Control file title. For DL_FIELD 4.10
49266
    1MOL     C1    1   6.173   0.072   1.181  0.3171 -0.8431 -0.3006
    1MOL     C2    2   6.244   0.166   1.090  0.1805 -0.3669 -0.1038
    1MOL     C3    3   6.389   0.112   1.041  0.3961  0.2285 -0.0719
    1MOL     C4    4   6.471   0.206   0.940 -0.5461  0.2125 -0.6002
    1MOL     O5    5   6.577   0.133   0.897 -0.3198 -0.2497 -0.3701
    1MOL     C6    6   6.479   0.078   1.164  0.7523 -0.2356 -0.2905
    1MOL     C7    7   6.408   8.023   1.264  0.2617 -0.5401 -0.4432
    1MOL     C8    8   6.266   0.035   1.301  0.3795  0.0903  0.0027
    1MOL     C9    9   6.198   7.975   1.405  0.1306 -0.1726 -0.0864
    1MOL    O10   10   6.078   0.003   1.446 -0.3150 -0.6809 -0.2492
    1MOL    C11   11   6.084   0.087   1.551 -0.5283  0.2697 -0.7584
    1MOL    O12   12   6.175   0.088   1.641  0.0511 -0.3378 -0.3187
    1MOL    C13   13   5.957   0.167   1.570 -0.7351  0.6004 -0.3255
    1MOL    C14   14   5.836   0.139   1.496  0.0614 -0.1547 -0.0266
    1MOL    C15   15   5.724   0.214   1.531  0.0909  0.0434 -0.1571
    1MOL    C16   16   5.729   0.322   1.625  0.2771  0.5637 -0.3634
    1MOL    C17   17   5.614   0.414   1.642 -0.1869  0.1166  0.4264
    1MOL    O18   18   5.593   0.473   1.748 -0.2408  0.0502  0.0020
    1MOL    O19   19   5.533   0.426   1.534  0.3168 -0.4086  0.1566
    1MOL    C20   20   5.846   0.338   1.701 -0.1591 -0.5435 -0.0910
    1MOL    C21   21   5.957   0.263   1.675  0.3317 -0.0072  1.0018
    1MOL    H22   22   6.081   0.120   1.215  0.7999  0.3416 -0.6562
    1MOL    H23   23   6.136   8.021   1.126  0.1983 -1.2389  0.3875
    1MOL    H24   24   6.179   0.199   1.008 -0.6586 -0.9102  0.3301
    1MOL    H25   25   6.263   0.255   1.149  1.7361  0.5592 -1.9581
    1MOL    H26   26   6.353   0.021   0.993 -2.6103  1.7248 -0.8108
    1MOL    H27   27   6.411   0.242   0.856 -0.1996 -1.1874 -1.4659
    1MOL    H28   28   6.519   0.290   0.990  0.8894 -0.7704 -0.3155
    1MOL    H29   29   6.576   0.038   1.135  0.3401 -1.3529 -0.1254
    1MOL    H30   30   6.495   0.174   1.213  1.0899 -0.5034  0.1257
    1MOL    H31   31   6.475   8.009   1.349 -0.5656  2.6361  0.8207
    1MOL    H32   32   6.409   7.924   1.218 -1.6020  0.7790 -3.4706
    1MOL    H33   33   6.281   0.130   1.351  0.8232  0.8097 -1.4632
    1MOL    H34   34   6.170   7.881   1.358 -0.3002 -0.8083  1.4101
    1MOL    H35   35   6.258   7.962   1.495 -0.9434  0.2470  0.6908
    1MOL    H36   36   5.840   0.067   1.415 -0.8651 -1.6044  1.1914
    1MOL    H37   37   5.626   0.193   1.492 -0.0204  2.3458 -1.1571
    1MOL    H38   38   5.847   0.415   1.777 -1.0869 -3.2635  2.8040
    1MOL    H39   39   6.048   0.290   1.726  0.5543  1.4431 -0.1398
    1MOL    H40   40   6.638   0.198   0.865  0.6514 -0.6696  0.5930
    1MOL    C41   41   5.264   0.960   1.392 -0.0926  0.5139 -0.6371
    1MOL    C42   42   5.364   0.843   1.398 -0.3784 -0.2059  0.1060
    1MOL    C43   43   5.308   0.724   1.476  0.1864  0.4884  0.1323
    1MOL    C44   44   5.431   0.630   1.486  0.1327 -0.1909 -0.7284
    1MOL    O45   45   5.408   0.516   1.558 -0.1358 -1.1532  0.3166
    1MOL    C46   46   5.271   0.756   1.620 -0.2483  0.9062  0.1036
    1MOL    C47   47   5.164   0.868   1.621  0.8542 -0.2401 -0.6183
    1MOL    C48   48   5.207   0.992   1.534 -0.1060 -0.4526  0.1727
    1MOL    C49   49   5.103   1.105   1.548  0.4558  0.5085 -0.1602
    1MOL    O50   50   4.982   1.077   1.487 -0.1633  0.1508 -0.2311
    1MOL    C51   51   4.869   1.137   1.519 -0.4383 -0.6462 -0.7214
    1MOL    O52   52   4.865   1.235   1.594 -0.1624 -0.3309  0.8777
    1MOL    C53   53   4.744   1.071   1.469 -1.0597 -0.2841  0.0359
    1MOL    C54   54   4.751   0.954   1.392  0.3917  0.6703  0.2963
    1MOL    C55   55   4.631   0.899   1.340 -0.3836  0.0215  0.4499
    1MOL    C56   56   4.507   0.958   1.360  0.5063 -0.3383 -0.2811
    1MOL    C57   57   4.382   0.911   1.301  0.6166 -0.4851 -0.0868
    1MOL    O58   58   4.269   0.948   1.332  0.4997 -0.3693 -0.2247
    1MOL    O59   59   4.400   0.808   1.216 -0.0034  0.5239 -0.1653
    1MOL    C60   60   4.500   1.084   1.429  0.2908 -0.3871  0.0500
    1MOL    C61   61   4.621   1.139   1.482 -0.1074  0.6333  0.1019
    1MOL    H62   62   5.315   1.043   1.344 -1.1723  0.2399 -2.2924
    1MOL    H63   63   5.176   0.931   1.334  1.0922 -0.7622 -1.8429
    1MOL    H64   64   5.366   0.805   1.297 -0.3273  2.2399 -0.8597
    1MOL    H65   65   5.459   0.888   1.427  0.4316 -1.8303 -0.0096
    1MOL    H66   66   5.222   0.691   1.418 -0.2906  2.7482 -0.4677
    1MOL    H67   67   5.473   0.602   1.389  2.2360 -1.7274  0.5997
    1MOL    H68   68   5.523   0.667   1.531 -0.3952  0.2337  0.0080
    1MOL    H69   69   5.225   0.673   1.672  1.3561  0.2280  0.4608
    1MOL    H70   70   5.354   0.788   1.683 -3.0591  3.0399  2.9058
    1MOL    H71   71   5.140   0.891   1.724  1.4236  1.3531 -0.8271
    1MOL    H72   72   5.067   0.840   1.580 -1.1174  2.8693  1.7269
    1MOL    H73   73   5.294   1.027   1.590 -0.0072 -1.3269  0.5727
    1MOL    H74   74   5.093   1.122   1.655  1.0333 -2.7039  0.4357
    1MOL    H75   75   5.139   1.196   1.500  0.8465 -0.2745 -1.3759
    1MOL    H76   76   4.837   0.894   1.370 -1.7988 -1.7909 -1.9285
    1MOL    H77   77   4.631   0.805   1.287  0.6519 -0.0272  0.5324
    1MOL    H78   78   4.405   1.132   1.450 -0.2725 -0.7841 -1.5431
    1MOL    H79   79   4.615   1.232   1.536  1.4482  0.7637  0.0829
    1MOL    C80   80   4.380   0.254   1.180  0.3644  0.1471  0.5728
    1MOL    C81   81   4.280   0.360   1.195 -0.2695  0.4856 -0.3280
    1MOL    C82   82   4.344   0.503   1.214  0.7553 -1.2371 -0.2204
    1MOL    C83   83   4.243   0.620   1.236 -0.3766 -0.7989  0.9504
    1MOL    O84   84   4.266   0.743   1.167 -0.0218 -0.0119  0.7109
    1MOL    C85   85   4.449   0.502   1.332 -0.8810 -0.4268  0.1519
    1MOL    C86   86   4.549   0.380   1.306  0.8800 -0.0172  0.8180
    1MOL    C87   87   4.481   0.248   1.297 -0.6872  0.4624  0.2483
    1MOL    C88   88   4.589   0.135   1.275  0.0802 -0.0852  0.1981
    1MOL    O89   89   4.666   0.152   1.158 -0.6972  0.1369  0.1412
    1MOL    C90   90   4.634   0.089   1.044  0.0285  0.5812  0.0008
    1MOL    O91   91   4.550   8.033   1.042  0.3279 -0.0335  1.2703
    1MOL    C92   92   4.720   0.124   0.934 -0.3271  0.0380  0.2744
    1MOL    C93   93   4.856   0.151   0.951  0.3668  0.1436 -0.0669
    1MOL    C94   94   4.937   0.173   0.836  0.5354 -0.0347 -0.5671
    1MOL    C95   95   4.877   0.170   0.708 -0.2358  0.5804 -0.3626
    1MOL    C96   96   4.950   0.190   0.581 -0.0377  0.3580 -0.2614
    1MOL    O97   97   4.898   0.208   0.469 -0.0920 -0.0842 -0.3522
    1MOL    O98   98   5.085   0.171   0.601 -0.1607 -0.1211  0.0420
    1MOL    C99   99   4.738   0.153   0.692  0.1228  0.2241 -0.0369
    1MOL   C100  100   4.659   0.119   0.804 -0.1416  0.4542  0.2503
    1MOL   H101  101   4.341   0.153   1.173 -2.5605  1.2966 -0.8548
    1MOL   H102  102   4.424   0.267   1.082 -2.1522 -0.1158 -0.6219
    1MOL   H103  103   4.211   0.372   1.111  0.2500 -0.0561 -0.8281
    1MOL   H104  104   4.222   0.341   1.286 -0.7643  0.2488 -0.6913
    1MOL   H105  105   4.403   0.513   1.122  0.2933 -0.0874 -0.4085
    1MOL   H106  106   4.145   0.578   1.212 -0.3969 -0.7245  0.9036
    1MOL   H107  107   4.238   0.634   1.344 -1.8009 -0.3141  0.8282
    1MOL   H108  108   4.505   0.596   1.337 -0.2998 -0.8064  0.8633
    1MOL   H109  109   4.409   0.476   1.429 -0.2664 -0.6649  0.3440
    1MOL   H110  110   4.624   0.379   1.386  1.1458  0.8129  0.5835
    1MOL   H111  111   4.608   0.394   1.215  0.0054 -0.8246  0.1164
    1MOL   H112  112   4.433   0.219   1.390  0.6455 -2.3793  0.0993
    1MOL   H113  113   4.661   0.142   1.357 -1.2056 -1.2028  1.4517
    1MOL   H114  114   4.546   0.035   1.276 -0.3969  0.1140  0.1402
    1MOL   H115  115   4.905   0.142   1.047 -0.3600  1.3735  0.4268
    1MOL   H116  116   5.043   0.180   0.853  0.3829 -0.1862  0.4670
    1MOL   H117  117   4.685   0.152   0.598  0.0308  0.8648  0.0043
    1MOL   H118  118   4.557   0.091   0.784 -0.3857  0.1012  1.9574
    1MOL   C119  119   5.432   0.028   0.108 -0.3423 -0.1502 -0.4823
    1MOL   C120  120   5.361   8.017   0.237  0.2416  0.2984 -0.2420
    1MOL   C121  121   5.306   0.112   0.310  0.1519  0.1377  0.5185
    1MOL   C122  122   5.220   0.081   0.436 -0.0166 -0.4806  0.7161
    1MOL   O123  123   5.169   0.201   0.481  0.1351  0.0718  0.3881
    1MOL   C124  124   5.424   0.206   0.342 -0.5178  0.0749 -0.0886
    1MOL   C125  125   5.490   0.255   0.211  0.2750  0.1582  0.6718
    1MOL   C126  126   5.541   0.135   0.130  0.0241  0.9180  0.1905
    1MOL   C127  127   5.587   0.194   8.030 -0.2021  0.6169  0.5410
    1MOL   O128  128   5.667   0.096   7.975 -0.3810 -0.4147 -0.2473
    1MOL   C129  129   5.714   0.108   7.848 -0.0168 -0.1389 -0.1219
    1MOL   O130  130   5.699   0.207   7.778 -0.2857 -0.2667  0.0253
    1MOL   C131  131   5.784   8.023   7.800 -0.8153  0.9717 -0.2784
    1MOL   C132  132   5.754   7.897   7.856 -0.4324  0.0623 -0.2422
    1MOL   C133  133   5.830   7.783   7.812  0.4051  0.0702  0.0108
    1MOL   C134  134   5.930   7.794   7.713  0.6114 -0.5484  0.3269
    1MOL   C135  135   6.012   7.676   7.680 -0.0779 -0.4062  0.3278
    1MOL   O136  136   6.100   7.666   7.591 -0.4375  0.4143 -0.5211
    1MOL   O137  137   5.973   7.568   7.762 -0.1645 -0.7883 -0.0981
    1MOL   C138  138   5.957   7.918   7.652 -0.1017  0.0384 -0.0172
    1MOL   C139  139   5.878   8.029   7.693 -0.5551  0.4313 -0.0243
    1MOL   H140  140   5.488   7.983   0.061  0.2487  0.8108 -1.4344
    1MOL   H141  141   5.358   0.054   0.032  0.8601 -0.3934 -1.7439
    1MOL   H142  142   5.282   7.946   0.215  0.4197 -0.5131  1.6575
    1MOL   H143  143   5.433   7.967   0.302 -1.7860 -1.9930  0.2952
    1MOL   H144  144   5.237   0.163   0.243 -0.2172 -0.6263  0.3149
    1MOL   H145  145   5.142   0.009   0.407  1.1935 -1.5181 -0.0260
    1MOL   H146  146   5.284   0.035   0.512 -0.6549 -1.5515  0.6202
    1MOL   H147  147   5.393   0.297   0.395 -1.9190 -0.9502  0.8873
    1MOL   H148  148   5.497   0.155   0.405 -2.1905 -1.5787  0.5743
    1MOL   H149  149   5.565   0.333   0.222  0.1914  1.3431 -5.5186
    1MOL   H150  150   5.412   0.306   0.155  1.0683  2.1876  1.3906
    1MOL   H151  151   5.628   0.093   0.182 -0.1908  0.1029 -0.1023
    1MOL   H152  152   5.502   0.219   7.966 -0.7428 -1.5434  0.3621
    1MOL   H153  153   5.650   0.283   0.000  2.7402 -1.4093  0.4006
    1MOL   H154  154   5.682   7.878   7.934 -3.1745  2.1800 -2.1419
    1MOL   H155  155   5.806   7.687   7.856 -0.9606  0.1107 -0.6198
    1MOL   H156  156   6.035   7.931   7.579  1.2106 -1.8009  1.0364
    1MOL   H157  157   5.894   0.095   7.658  0.0833  0.0587 -0.8524
    1MOL   C158  158   6.288   7.131   7.919  0.1136 -0.2060  0.1786
    1MOL   C159  159   6.274   7.220   7.801 -0.4724  0.4797 -0.3779
    1MOL   C160  160   6.256   7.374   7.831  0.1400  0.5878 -0.6939
    1MOL   C161  161   6.120   7.413   7.876 -0.3653 -0.3141  0.2349
    1MOL   O162  162   6.051   7.443   7.747  0.0332  0.7129 -0.0814
    1MOL   C163  163   6.354   7.422   7.942 -0.6866  0.0463 -0.3606
    1MOL   C164  164   6.353   7.329   0.033  0.2775 -0.7628  0.0300
    1MOL   C165  165   6.392   7.187   8.034  0.5443 -0.6011 -0.0559
    1MOL   C166  166   6.536   7.166   8.022 -0.2580  0.6381  0.2635
    1MOL   O167  167   6.572   7.023   8.017 -0.0083 -0.1673 -0.1214
    1MOL   C168  168   6.692   6.979   0.031 -0.2190 -0.1907  0.1249
    1MOL   O169  169   6.775   7.052   0.084  0.3949 -0.0721 -0.4012
    1MOL   C170  170   6.714   6.829   0.010  1.2400 -0.0923  0.4671
    1MOL   C171  171   6.633   6.767   7.948  0.3476 -0.6117  0.0701
    1MOL   C172  172   6.659   6.629   7.922  0.0912  0.4932 -0.5547
    1MOL   C173  173   6.741   6.551   8.013  0.5134  0.0201  0.4377
    1MOL   C174  174   6.760   6.404   7.987  0.9920 -0.3136 -0.3621
    1MOL   O175  175   6.694   6.354   7.893 -0.2520 -0.4216  0.0391
    1MOL   O176  176   6.853   6.337   0.025  0.2198  0.5234  0.0293
    1MOL   C177  177   6.839   6.620   0.061  0.3387  0.4322  0.6672
    1MOL   C178  178   6.810   6.758   0.082  0.7054 -0.6378 -0.0027
    1MOL   H179  179   6.188   7.109   7.957 -0.3540  0.5398 -0.6003
    1MOL   H180  180   6.322   7.035   7.880  1.8236  0.8966 -1.1032
    1MOL   H181  181   6.365   7.211   7.742  0.3047  0.5520  0.7846
    1MOL   H182  182   6.198   7.183   7.732 -1.1966  1.1180  0.0621
    1MOL   H183  183   6.275   7.422   7.734 -3.4442 -0.0006 -1.7678
    1MOL   H184  184   6.068   7.336   7.934  2.2885 -0.8578  1.9567
    1MOL   H185  185   6.120   7.505   7.934  1.2462  0.4839 -1.0059
    1MOL   H186  186   6.455   7.427   7.900 -0.3322  1.1376  0.6100
    1MOL   H187  187   6.333   7.526   7.966 -2.2466 -0.3688  0.0984
    1MOL   H188  188   6.257   7.317   0.082 -0.1517  1.0163 -0.3598
    1MOL   H189  189   6.411   7.368   0.117  0.3932  1.1625 -0.9395
    1MOL   H190  190   6.372   7.138   0.094  3.8887 -0.5397  0.7528
    1MOL   H191  191   6.578   7.222   7.939 -1.0664  0.6401 -0.1388
    1MOL   H192  192   6.583   7.202   0.078 -0.4852  0.7051  0.3523
    1MOL   H193  193   6.557   6.817   7.890  0.2475  2.3099  2.6246
    1MOL   H194  194   6.598   6.564   7.861  0.2458 -0.0553 -0.1312
    1MOL   H195  195   6.916   6.562   0.109  1.5344  0.5361 -1.0813
    1MOL   H196  196   6.874   6.811   0.150 -2.7333 -0.3614  3.1478
    1MOL   C197  197   6.897   5.781   7.930  0.2966  0.4138  0.1294
    1MOL   C198  198   6.902   5.911   8.004 -0.4323  0.0675  0.4011
    1MOL   C199  199   6.770   5.981   8.025  0.1342 -0.7377 -0.3166
    1MOL   C200  200   6.791   6.117   0.068  0.2260  0.5882 -0.0315
    1MOL   O201  201   6.879   6.199   8.027 -0.3462  0.4148 -1.1688
    1MOL   C202  202   6.689   5.982   7.899  0.1116  0.5925  0.6532
    1MOL   C203  203   6.672   5.850   7.824 -0.5769 -0.1532  0.4212
    1MOL   C204  204   6.817   5.789   7.802 -0.1903  0.4076  0.1076
    1MOL   C205  205   6.818   5.657   7.723 -0.1889  0.1266  0.2376
    1MOL   O206  206   6.938   5.620   7.669 -0.5049 -0.5292  0.1086
    1MOL   C207  207   6.975   5.653   7.539 -0.1858  0.4025  0.0002
    1MOL   O208  208   6.910   5.733   7.465 -0.5600 -0.6683  0.0013
    1MOL   C209  209   7.112   5.591   7.510 -0.2682 -0.0509  0.4298
    1MOL   C210  210   7.193   5.526   7.608 -0.7319 -0.5717  0.1315
    1MOL   C211  211   7.311   5.447   7.568 -0.1378 -0.3895  0.2973
    1MOL   C212  212   7.353   5.457   7.429 -0.4676 -0.3134 -0.6043
    1MOL   C213  213   7.472   5.380   7.375 -0.0980 -0.0499 -0.4259
    1MOL   O214  214   7.487   5.356   7.254  0.0607 -0.0842  0.6826
    1MOL   O215  215   7.555   5.333   7.472 -0.1965  0.0786 -0.2115
    1MOL   C216  216   7.280   5.530   7.339 -0.1415  0.4777 -0.9663
    1MOL   C217  217   7.158   5.594   7.379 -0.7011  0.1076  0.0718
    1MOL   H218  218   7.001   5.754   7.915  0.0379 -0.3743 -0.2742
    1MOL   H219  219   6.844   5.711   7.995  1.0712 -2.1849 -1.9611
    1MOL   H220  220   6.968   5.903   0.055 -2.1150 -1.7368  1.5651
    1MOL   H221  221   6.958   5.983   7.945 -1.3461 -0.5820 -1.3121
    1MOL   H222  222   6.712   5.914   0.053  0.6965  0.1508  1.1441
    1MOL   H223  223   6.693   6.165   0.072  0.5665  1.4184 -1.3674
    1MOL   H224  224   6.835   6.106   0.166 -0.4378 -0.9058  0.1188
    1MOL   H225  225   6.591   6.028   7.912  0.9461  2.7817 -0.5554
    1MOL   H226  226   6.730   6.060   7.835  2.8167 -0.1435  1.4225
    1MOL   H227  227   6.638   5.875   7.723 -0.4682  1.3347  0.7292
    1MOL   H228  228   6.605   5.789   7.884  0.7829 -1.4842  0.6053
    1MOL   H229  229   6.870   5.859   7.737 -0.0151  0.0258 -0.1611
    1MOL   H230  230   6.794   5.569   7.783  1.7902 -0.6220 -0.0548
    1MOL   H231  231   6.729   5.656   7.660 -0.6630 -1.8353  0.8965
    1MOL   H232  232   7.150   5.523   7.707 -3.2820  1.2326 -0.8516
    1MOL   H233  233   7.367   5.399   7.646  2.2813 -0.1792 -1.2648
    1MOL   H234  234   7.313   5.534   7.236 -0.0788  1.7077 -0.8998
    1MOL   H235  235   7.095   5.643   7.307  0.3583  0.2433 -0.7780
    1MOL   C236  236   7.998   5.015   7.221 -0.2347 -0.1376  0.2053
    1MOL   C237  237   7.905   5.087   7.328 -0.0801 -0.1470  0.5972
    1MOL   C238  238   7.759   5.083   7.284 -0.4399  0.4847  0.1837
    1MOL   C239  239   7.663   5.141   7.390  0.3152  0.3110  0.6133
    1MOL   O240  240   7.684   5.278   7.417  0.4336  0.2899  0.1860
    1MOL   C241  241   7.744   5.158   7.151 -0.2656  0.6067 -0.1586
    1MOL   C242  242   7.826   5.086   7.041  0.1321 -0.8661  0.2026
    1MOL   C243  243   7.969   5.082   7.085 -0.7849 -0.4738 -0.0555
    1MOL   C244  244   0.023   5.021   6.982 -0.2493  0.6952 -0.2160
    1MOL   O245  245   0.019   5.097   6.857  0.0676  0.1774  0.4146
    1MOL   C246  246   0.103   5.064   6.763 -0.6097 -0.8774  0.6250
    1MOL   O247  247   0.185   4.974   6.782 -0.9683 -0.1782  0.1704
    1MOL   C248  248   0.075   5.125   6.634  0.1162 -0.5592 -0.0845
    1MOL   C249  249   8.016   5.233   6.611 -0.2611  0.3153 -0.3654
    1MOL   C250  250   7.992   5.280   6.482  0.1102  0.1208  0.8122
    1MOL   C251  251   0.024   5.229   6.367 -0.7919  0.4342  0.1762
    1MOL   C252  252   0.004   5.281   6.233  0.1611  0.3885  1.1954
    1MOL   O253  253   0.080   5.245   6.140  0.5587  0.1361 -0.5639
    1MOL   O254  254   7.942   5.367   6.224  0.1146  0.7928  0.2273
    1MOL   C255  255   0.116   5.123   6.394  0.4800  0.0114 -0.7010
    1MOL   C256  256   0.144   5.075   6.522 -0.0869  0.5721  0.7276
    1MOL   H257  257   0.067   5.021   7.251 -0.2078 -1.0100  0.3122
    1MOL   H258  258   7.986   4.907   7.213 -0.8137 -0.1257  0.9011
    1MOL   H259  259   7.905   5.039   7.426 -0.7606 -1.3640  0.0252
    1MOL   H260  260   7.931   5.192   7.338  0.6578 -0.3120  0.4673
    1MOL   H261  261   7.738   4.978   7.265 -1.4628  1.1142 -2.3486
    1MOL   H262  262   7.562   5.135   7.350  1.4066  0.2563 -2.2528
    1MOL   H263  263   7.670   5.090   7.486  1.1403  2.4432  1.7183
    1MOL   H264  264   7.638   5.164   7.126 -0.4930  0.1361  0.6883
    1MOL   H265  265   7.789   5.257   7.157  1.5490 -0.0984 -1.8128
    1MOL   H266  266   7.812   5.154   6.957 -0.7939 -1.0976  0.1652
    1MOL   H267  267   7.774   4.997   7.007 -0.4395  0.4025 -2.3646
    1MOL   H268  268   8.008   5.183   7.093 -1.7868  0.0816 -1.9410
    1MOL   H269  269   0.121   5.028   7.029 -0.6597  0.5557  0.6696
    1MOL   H270  270   8.034   4.917   6.959 -1.3020  0.5361  1.6157
    1MOL   H271  271   7.966   5.281   6.694  0.0818 -0.2476  0.1696
    1MOL   H272  272   7.930   5.368   6.476 -0.7175 -0.5375 -0.5409
    1MOL   H273  273   0.172   5.088   6.308 -0.8375  1.5034 -2.2084
    1MOL   H274  274   0.211   4.993   6.539 -0.5620  0.2500  1.0810
    1MOL   C275  275   7.695   5.748   6.269 -0.0196  0.0157 -0.1201
    1MOL   C276  276   7.803   5.638   6.246  0.3660 -0.7808  0.0735
    1MOL   C277  277   7.814   5.614   6.092 -0.1163 -0.5381 -0.0385
    1MOL   C278  278   7.935   5.531   6.043  1.1087  0.7124 -0.3727
    1MOL   O279  279   7.902   5.395   6.083  0.9088 -0.4337  0.1108
    1MOL   C280  280   7.682   5.579   6.035 -0.3313  0.0378 -0.5650
    1MOL   C281  281   7.574   5.679   6.067  0.0767 -0.5387 -0.2795
    1MOL   C282  282   7.559   5.703   6.219  0.3456 -0.3346 -0.6816
    1MOL   C283  283   7.439   5.804   6.249  0.7969  0.5031 -0.7380
    1MOL   O284  284   7.413   5.827   6.386 -1.2862  0.1983 -0.5776
    1MOL   C285  285   7.467   5.932   6.446 -0.0205  0.1041  0.4058
    1MOL   O286  286   7.549   6.014   6.397 -0.2156 -0.7139  0.5965
    1MOL   C287  287   7.408   5.957   6.580  0.7454 -0.0730  0.4287
    1MOL   C288  288   7.292   5.895   6.622 -0.0088 -0.3120  0.1124
    1MOL   C289  289   7.232   5.926   6.748 -0.0943  0.1673 -0.3464
    1MOL   C290  290   7.290   6.022   6.836 -0.5962 -0.2474  0.0343
    1MOL   C291  291   7.232   6.060   6.970  0.0614  0.1141 -0.0082
    1MOL   O292  292   7.290   6.133   7.052  0.0957 -0.4971 -0.0265
    1MOL   O293  293   7.104   6.006   6.985 -0.5877  0.5218 -0.5247
    1MOL   C294  294   7.413   6.083   6.790  0.1081  0.1198  0.5890
    1MOL   C295  295   7.472   6.043   6.672 -0.0947  0.1446 -0.5503
    1MOL   H296  296   7.690   5.778   6.374 -2.6267 -1.0564  0.0880
    1MOL   H297  297   7.715   5.842   6.219  0.7168  0.5052  1.0624
    1MOL   H298  298   7.902   5.661   6.286 -0.0565 -0.2026  0.8037
    1MOL   H299  299   7.773   5.547   6.298  0.0883  0.2637  1.8108
    1MOL   H300  300   7.843   5.716   6.063  0.2703 -0.2793  1.2152
    1MOL   H301  301   7.950   5.516   5.936  0.5080  1.5281 -0.5747
    1MOL   H302  302   8.033   5.565   6.077  1.0653  0.9093 -0.4385
    1MOL   H303  303   7.679   5.554   5.929 -0.7823  2.3298 -1.1254
    1MOL   H304  304   7.661   5.482   6.080  0.5889  1.0478  2.1602
    1MOL   H305  305   7.489   5.630   6.021 -0.1031  0.9912 -1.6541
    1MOL   H306  306   7.594   5.770   6.010 -3.1317  1.1461  1.1653
    1MOL   H307  307   7.540   5.605   6.263 -1.2555 -0.2687 -1.2141
    1MOL   H308  308   7.448   5.884   6.176 -1.7251  0.0176 -1.6415
    1MOL   H309  309   7.346   5.754   6.222  0.9412 -0.2219  0.0911
    1MOL   H310  310   7.240   5.822   6.562 -1.3430  1.0550 -0.4095
    1MOL   H311  311   7.143   5.870   6.775  0.6855 -2.1591 -2.3865
    1MOL   H312  312   7.458   6.155   6.857 -0.1251  0.0305  0.8458
    1MOL   H313  313   7.563   6.093   6.642  1.4293 -0.0938  3.4004
    1MOL   C314  314   6.857   6.139   7.510 -1.0686 -0.0297  0.1579
    1MOL   C315  315   6.870   6.076   7.375  0.3994 -0.4026 -0.0704
    1MOL   C316  316   7.011   6.032   7.344 -0.1447 -0.2710 -0.4359
    1MOL   C317  317   7.031   5.965   7.209 -0.3908 -0.3765  0.4259
    1MOL   O318  318   7.026   6.060   7.104 -0.0834 -0.2073 -0.2993
    1MOL   C319  319   7.114   6.141   7.376  0.0974 -0.3331  0.2201
    1MOL   C320  320   7.098   6.207   7.513 -0.6496 -0.5494 -0.6922
    1MOL   C321  321   6.953   6.258   7.537 -0.4566  0.7939  0.5171
    1MOL   C322  322   6.937   6.312   7.676 -0.2273  0.2031 -0.3700
    1MOL   O323  323   7.030   6.407   7.706  0.0641  0.7310  0.0188
    1MOL   C324  324   6.993   6.537   7.707  0.1530  0.2101 -0.1601
    1MOL   O325  325   6.884   6.578   7.668  0.0307  0.2841  0.2047
    1MOL   C326  326   7.093   6.633   7.775  0.0186 -0.2188 -0.5231
    1MOL   C327  327   7.223   6.595   7.824 -0.6526 -0.0675 -0.2776
    1MOL   C328  328   7.307   6.694   7.880  0.0210  0.4919  0.8894
    1MOL   C329  329   7.261   6.830   7.889 -0.8622  0.6732 -0.1774
    1MOL   C330  330   7.356   6.932   7.942  0.0302  0.4679  0.6531
    1MOL   O331  331   7.470   6.901   7.980 -0.3579 -0.4563  0.8537
    1MOL   O332  332   7.301   7.060   7.951  0.0570 -0.9100  0.6888
    1MOL   C333  333   7.138   6.860   7.844  0.7692  0.6529  0.6500
    1MOL   C334  334   7.054   6.769   7.781  0.1771 -0.6888 -0.5190
    1MOL   H335  335   6.753   6.165   7.529 -0.8340  1.6306 -0.7044
    1MOL   H336  336   6.890   6.062   7.580  1.4314  2.5361  1.9535
    1MOL   H337  337   6.798   5.995   7.364 -1.5544  1.4321 -0.9804
    1MOL   H338  338   6.839   6.143   7.295  1.3413  0.5754  0.3706
    1MOL   H339  339   7.029   5.960   7.424 -1.9337  0.3425  0.5524
    1MOL   H340  340   7.131   5.922   7.209 -0.6210 -0.9215 -0.4241
    1MOL   H341  341   6.954   5.890   7.197  0.7927 -1.7950  1.5629
    1MOL   H342  342   7.214   6.099   7.363  0.2647  0.1019  0.0753
    1MOL   H343  343   7.103   6.219   7.300  0.9323 -0.5124 -0.0984
    1MOL   H344  344   7.172   6.287   7.520 -1.0221 -0.3021  0.6094
    1MOL   H345  345   7.122   6.132   7.589  0.8071 -0.5368 -1.1256
    1MOL   H346  346   6.939   6.340   7.467  0.7263  0.7894  0.2536
    1MOL   H347  347   6.837   6.353   7.686 -1.0016 -1.6549 -0.1189
    1MOL   H348  348   6.955   6.230   7.746 -3.2923 -0.1648  0.0540
    1MOL   H349  349   7.256   6.493   7.810  1.3550  0.8420 -2.6453
    1MOL   H350  350   7.408   6.669   7.906  0.0896 -1.8157 -1.4116
    1MOL   H351  351   7.099   6.960   7.852  0.7311  0.5913  1.2623
    1MOL   H352  352   6.951   6.793   7.759 -0.2886 -1.8980  0.2854
    1MOL   C353  353   7.780   7.295   0.089  0.2480 -0.1140  0.5261
    1MOL   C354  354   7.658   7.209   0.062 -0.0018 -0.2434  0.0812
    1MOL   C355  355   7.532   7.294   0.067  0.1035  0.4550 -0.1938
    1MOL   C356  356   7.400   7.220   0.048  0.1451  0.3942  0.7598
    1MOL   O357  357   7.395   7.177   7.949 -0.3303  0.4612  0.0046
    1MOL   C358  358   7.522   7.344   0.210  0.1048 -0.4108  0.4626
    1MOL   C359  359   7.646   7.431   0.246 -0.4986  0.0355  0.2077
    1MOL   C360  360   7.778   7.358   0.235  0.2330  0.5604  0.7609
    1MOL   C361  361   7.901   7.442   0.257  0.0985 -0.1593  0.1465
    1MOL   O362  362   8.013   7.350   0.263  0.0735 -0.7741  0.0275
    1MOL   C363  363   0.011   7.283   0.375  0.4692 -0.1860 -0.3916
    1MOL   O364  364   7.985   7.296   0.480  0.2529  0.0464  0.2800
    1MOL   C365  365   0.127   7.192   0.354  1.1875  0.0943 -0.4579
    1MOL   C366  366   0.148   7.122   0.235 -0.1713  0.1715  0.5676
    1MOL   C367  367   0.261   7.038   0.227  0.1198  0.6545  0.4578
    1MOL   C368  368   0.345   7.022   0.340 -0.3271  0.8247 -0.1461
    1MOL   C369  369   0.471   6.933   0.333 -1.3150  0.3437  0.2998
    1MOL   O370  370   0.494   6.865   0.232  0.5106  0.0601 -0.1050
    1MOL   O371  371   0.548   6.935   0.445 -0.0198 -0.1723  0.0859
    1MOL   C372  372   0.324   7.092   0.455  0.2451 -0.4783  0.0879
    1MOL   C373  373   0.215   7.178   0.467  0.8114 -0.0701 -0.5097
    1MOL   H374  374   7.867   7.230   0.074  1.5455  1.8941 -1.0428
    1MOL   H375  375   7.790   7.375   0.015  0.0338 -1.7934 -1.3862
    1MOL   H376  376   7.663   7.158   8.001  2.6320  2.2340 -1.1602
    1MOL   H377  377   7.658   7.132   0.139 -1.1969  0.1713  0.5175
    1MOL   H378  378   7.524   7.379   8.035 -2.8715  0.6102  0.2832
    1MOL   H379  379   7.387   7.140   0.121  2.8030  0.6371  1.5480
    1MOL   H380  380   7.313   7.286   0.055  1.8287  2.5243  1.8828
    1MOL   H381  381   7.439   7.414   0.213 -0.9842 -1.4077 -3.2992
    1MOL   H382  382   7.500   7.264   0.280  0.9252 -0.8057  0.2716
    1MOL   H383  383   7.622   7.469   0.345 -0.3453  0.9509 -0.1074
    1MOL   H384  384   7.646   7.514   0.175  1.6528 -1.6311 -1.8152
    1MOL   H385  385   7.768   7.276   0.306 -1.0666  0.0173 -0.0273
    1MOL   H386  386   7.926   7.513   0.178  0.6470  1.4970  1.8052
    1MOL   H387  387   7.892   7.489   0.354 -1.4037 -2.1162  1.0054
    1MOL   H388  388   0.071   7.133   0.160  0.7718 -0.5909 -0.5231
    1MOL   H389  389   0.287   6.988   0.135 -1.3105 -0.9810  0.9048
    1MOL   H390  390   0.386   7.084   0.543 -3.1146  0.2799  2.6378
    1MOL   H391  391   0.211   7.224   0.565  0.7611  0.5033 -0.7806
    1MOL   C392  392   1.083   7.040   0.312 -0.2985  0.2726  0.1348
    1MOL   C393  393   1.055   6.931   0.412 -0.1191 -0.0298 -0.0178
    1MOL   C394  394   0.923   6.861   0.384  0.4009  0.1171  0.1062
    1MOL   C395  395   0.792   6.943   0.418  1.0959  0.4296  0.1813
    1MOL   O396  396   0.680   6.852   0.428 -0.2449  0.3181 -0.2908
    1MOL   C397  397   0.915   6.816   0.237 -0.2862  0.0470 -0.1408
    1MOL   C398  398   0.956   6.920   0.131  0.2539  0.0576  0.0167
    1MOL   C399  399   1.090   6.978   0.173 -0.2839  0.2697  0.1082
    1MOL   C400  400   1.206   6.884   0.136  0.2058  0.3921 -0.2317
    1MOL   O401  401   1.335   6.944   0.181  0.1039  0.5653 -0.5313
    1MOL   C402  402   1.395   7.042   0.104  0.3851 -0.0663 -0.0846
    1MOL   O403  403   1.363   7.063   8.025  0.0345  0.1224  0.1585
    1MOL   C404  404   1.496   7.129   0.181 -0.2738 -0.1704  0.2002
    1MOL   C405  405   1.500   7.130   0.325 -0.2522  0.4153 -1.1348
    1MOL   C406  406   1.606   7.193   0.390 -0.4442  0.4902 -0.0683
    1MOL   C407  407   1.686   7.288   0.325  0.0533  0.1324  0.9336
    1MOL   C408  408   1.786   7.354   0.406  1.1910 -0.1992  0.1549
    1MOL   O409  409   1.801   7.335   0.527 -0.5802  0.1830  0.6432
    1MOL   O410  410   1.863   7.436   0.333  0.2231 -0.1445  0.5782
    1MOL   C411  411   1.681   7.289   0.182 -0.5607  0.2254 -0.1764
    1MOL   C412  412   1.588   7.210   0.114  0.3260 -0.0443 -0.6106
    1MOL   H413  413   1.001   7.110   0.327 -1.0829 -0.7664  0.8328
    1MOL   H414  414   1.176   7.091   0.338 -1.9928  2.9946  1.0288
    1MOL   H415  415   1.141   6.864   0.407 -0.8956 -1.0522  0.1113
    1MOL   H416  416   1.057   6.963   0.516 -1.1952  1.1130 -0.3257
    1MOL   H417  417   0.919   6.772   0.446 -1.0793  0.8687  1.1152
    1MOL   H418  418   0.805   7.001   0.509 -0.5798  1.9972 -0.5455
    1MOL   H419  419   0.785   7.020   0.341 -2.0891  0.6682  0.6608
    1MOL   H420  420   0.983   6.730   0.229  1.4941  1.2989  1.2639
    1MOL   H421  421   0.814   6.787   0.209 -1.0261  1.6501  0.7980
    1MOL   H422  422   0.881   7.000   0.129  1.5555  1.2795 -0.6218
    1MOL   H423  423   0.961   6.867   0.036  0.5068  0.4663 -0.2016
    1MOL   H424  424   1.101   7.072   0.119  1.2144  0.1597  0.2125
    1MOL   H425  425   1.203   6.782   0.173 -1.1419  0.1388 -1.0053
    1MOL   H426  426   1.220   6.872   0.028  1.2600 -3.0428  0.2438
    1MOL   H427  427   1.437   7.061   0.380  1.5280 -0.0484  0.3685
    1MOL   H428  428   1.623   7.181   0.496 -0.2323 -0.6894 -0.2391
    1MOL   H429  429   1.740   7.359   0.124  1.7399 -1.3228  0.2199
    1MOL   H430  430   1.566   7.207   0.008 -3.7245  0.0612  0.1325
    1MOL   C431  431   2.188   7.883   0.367  0.2896 -0.5046 -0.1771
    1MOL   C432  432   2.097   7.762   0.352 -0.0864 -0.0078 -0.3640
    1MOL   C433  433   2.025   7.738   0.487 -0.1427 -0.5431  0.1630
    1MOL   C434  434   1.920   7.626   0.463  0.4958 -0.3505  0.1941
    1MOL   O435  435   1.976   7.506   0.411 -0.2902 -0.0811  0.4950
    1MOL   C436  436   2.135   7.691   0.589 -0.7232 -0.2223 -0.3680
    1MOL   C437  437   2.233   7.812   0.607  0.1957  0.8402  0.4554
    1MOL   C438  438   2.297   7.855   0.469 -0.4551 -0.3256 -0.1023
    1MOL   C439  439   2.398   7.972   0.494 -0.0978  0.7522  0.3914
    1MOL   O440  440   2.479   7.993   0.384  0.4026 -0.2615  0.6026
    1MOL   C441  441   2.534   0.075   0.359 -0.5827  0.3932 -0.5935
    1MOL   O442  442   2.500   0.171   0.431  0.1294 -0.5965  0.0024
    1MOL   C443  443   2.621   0.077   0.241 -0.7443  0.3544 -0.3261
    1MOL   C444  444   2.667   7.991   0.186 -0.5949  0.1336  0.4326
    1MOL   C445  445   2.746   7.998   0.069  0.8047  0.0303  0.3869
    1MOL   C446  446   2.790   0.090   0.018  0.4578 -0.5435 -0.2998
    1MOL   C447  447   2.877   0.104   7.930  0.5765  0.0640  0.0754
    1MOL   O448  448   2.892   0.213   7.864 -0.5481  0.4592 -0.0750
    1MOL   O449  449   2.937   8.018   7.895 -0.6855 -0.6147 -0.1143
    1MOL   C450  450   2.742   0.208   0.074  0.2760  0.3937  0.1975
    1MOL   C451  451   2.664   0.198   0.189  0.4585 -0.4198 -0.0794
    1MOL   H452  452   2.249   7.901   0.279 -0.2317 -0.1519 -0.4662
    1MOL   H453  453   2.127   7.973   0.373 -0.4043 -1.0846  1.8545
    1MOL   H454  454   2.027   7.797   0.276 -0.0152 -0.3264 -0.5752
    1MOL   H455  455   2.144   7.665   0.335 -0.5070 -0.1617 -0.6394
    1MOL   H456  456   1.975   7.831   0.513  0.6439  0.1453 -0.7352
    1MOL   H457  457   1.869   7.600   0.556 -0.5926 -1.5290 -0.7201
    1MOL   H458  458   1.841   7.656   0.394 -0.3627 -0.9283  0.9067
    1MOL   H459  459   2.091   7.674   0.687  0.0787 -1.5235 -0.2176
    1MOL   H460  460   2.184   7.597   0.562  1.3054  1.2310 -1.9153
    1MOL   H461  461   2.319   7.802   0.673  0.5578 -0.6052 -0.2109
    1MOL   H462  462   2.173   7.893   0.647  0.3715 -0.0114  2.5090
    1MOL   H463  463   2.359   7.772   0.434  0.8717 -0.0451  1.5145
    1MOL   H464  464   2.334   0.022   0.517 -0.7979 -0.0631  1.5482
    1MOL   H465  465   2.454   7.958   0.587  0.6726 -1.0517 -0.3198
    1MOL   H466  466   2.638   7.898   0.233 -0.9668  0.3094  0.5574
    1MOL   H467  467   2.787   7.905   0.031 -1.6570 -1.8976  2.2412
    1MOL   H468  468   2.781   0.304   0.043 -0.4199  0.3863 -0.7236
    1MOL   H469  469   2.643   0.287   0.246 -0.4450  0.7671 -2.1768
    1MOL   C470  470   3.455   7.863   8.006 -0.0437  0.0841 -0.0970
    1MOL   C471  471   3.370   7.982   7.971 -0.0513 -0.7039  0.1336
    1MOL   C472  472   3.240   7.945   7.904  0.3242 -0.9155 -0.0832
    1MOL   C473  473   3.165   0.029   7.845 -0.4389 -0.5901 -0.1524
    1MOL   O474  474   3.043   8.020   7.793 -0.0846  0.4324  0.1404
    1MOL   C475  475   3.262   7.855   7.781  0.4567  0.2238 -0.2476
    1MOL   C476  476   3.356   7.742   7.805  0.3036  0.2536  0.1086
    1MOL   C477  477   3.485   7.788   7.872  0.3204 -0.1562  0.7971
    1MOL   C478  478   3.583   7.672   7.889 -0.5841 -0.5123  0.4620
    1MOL   O479  479   3.665   7.673   7.776  0.1542 -0.1685 -0.0201
    1MOL   C480  480   3.799   7.686   7.777 -1.1904 -0.6776  0.2095
    1MOL   O481  481   3.866   7.652   7.871 -0.3661 -0.3363 -0.0364
    1MOL   C482  482   3.859   7.713   7.647  0.4538 -0.3748 -0.0450
    1MOL   C483  483   3.796   7.795   7.546  0.0432  0.6106 -0.5507
    1MOL   C484  484   3.847   7.808   7.415 -1.0418 -0.9812 -0.1344
    1MOL   C485  485   3.973   7.749   7.385  0.5655 -0.3998 -0.4296
    1MOL   C486  486   4.031   7.763   7.246 -0.0387 -0.4094 -0.7401
    1MOL   O487  487   4.149   7.747   7.212 -0.4156 -0.0681  0.5839
    1MOL   O488  488   3.937   7.805   7.154 -0.2430 -0.3151 -0.1854
    1MOL   C489  489   4.043   7.681   7.483 -0.5980  0.0579 -0.3465
    1MOL   C490  490   3.991   7.666   7.612 -0.3919  0.0988 -0.6378
    1MOL   H491  491   3.548   7.884   0.024 -0.5002 -1.8181  1.5096
    1MOL   H492  492   3.398   7.807   0.045  0.8614 -1.0366 -0.2440
    1MOL   H493  493   3.345   8.032   0.029 -0.0004  0.3303 -0.4034
    1MOL   H494  494   3.420   0.025   7.913 -1.1176 -1.4917 -1.9256
    1MOL   H495  495   3.175   7.897   7.976 -0.3400  1.0604  0.6796
    1MOL   H496  496   3.161   0.117   7.910  0.8879 -1.6196  1.3523
    1MOL   H497  497   3.213   0.069   7.755 -0.8635  0.5640  0.1169
    1MOL   H498  498   3.172   7.807   7.743  0.7453 -0.7285  0.2471
    1MOL   H499  499   3.296   7.909   7.692  2.5288 -3.2098 -1.6730
    1MOL   H500  500   3.375   7.685   7.714  1.5179  0.8025  0.0026
    1MOL   H501  501   3.311   7.667   7.870  0.3056  0.8934  0.8508
    1MOL   H502  502   3.528   7.867   7.811 -0.0862  0.1328  0.8817
    1MOL   H503  503   3.647   7.692   7.975 -0.5559 -0.7628  0.5015
    1MOL   H504  504   3.525   7.581   7.904 -0.4969 -1.2633 -3.2723
    1MOL   H505  505   3.701   7.840   7.570 -0.6771 -1.6790  1.1213
    1MOL   H506  506   3.802   7.877   7.345 -1.0471 -0.7872  0.0574
    1MOL   H507  507   4.141   7.640   7.468 -1.1870 -2.7012  2.7106
    1MOL   H508  508   4.060   7.623   7.684  2.0257  0.4673 -2.6822
    1MOL   C509  509   3.737   7.529   6.778 -0.5476  0.6138 -0.0270
    1MOL   C510  510   3.873   7.603   6.796 -0.0491  0.2422 -0.1212
    1MOL   C511  511   3.863   7.699   6.911  0.4218 -0.5116 -0.0602
    1MOL   C512  512   4.000   7.763   6.934 -0.2944 -0.3658 -0.1988
    1MOL   O513  513   3.992   7.864   7.026 -0.6056  0.4157  0.1920
    1MOL   C514  514   3.752   7.810   6.878 -0.4865  0.5361  0.5337
    1MOL   C515  515   3.614   7.753   6.838 -0.0009 -0.1639 -0.4851
    1MOL   C516  516   3.621   7.631   6.744  0.3515  0.2164 -0.4319
    1MOL   C517  517   3.485   7.561   6.739  0.2128 -0.3795  1.0723
    1MOL   O518  518   3.456   7.511   6.864 -0.3941  0.6023 -0.0126
    1MOL   C519  519   3.333   7.513   6.905  0.1239 -0.1274 -0.5550
    1MOL   O520  520   3.236   7.561   6.846 -0.5463 -0.8679 -0.1216
    1MOL   C521  521   3.322   7.439   7.035  0.0446 -0.3215  0.7785
    1MOL   C522  522   3.435   7.369   7.089  0.2764 -0.1021  0.5743
    1MOL   C523  523   3.415   7.291   7.210  0.1491  0.1803 -0.2035
    1MOL   C524  524   3.287   7.275   7.276  0.0118 -0.2008 -0.1560
    1MOL   C525  525   3.261   7.176   7.390 -0.1615 -0.1331  0.2485
    1MOL   O526  526   3.346   7.105   7.451 -0.0198 -0.6965 -0.1132
    1MOL   O527  527   3.126   7.168   7.423 -0.3680 -0.0081  0.3421
    1MOL   C528  528   3.179   7.347   7.215  0.4660  0.2023 -0.0265
    1MOL   C529  529   3.195   7.425   7.101  0.2720  0.1429  0.7884
    1MOL   H530  530   3.737   7.455   6.699  1.5563 -0.9783  1.3923
    1MOL   H531  531   3.717   7.471   6.868  1.9805  0.3960  0.4370
    1MOL   H532  532   3.955   7.537   6.823  0.9698  1.7389  0.5345
    1MOL   H533  533   3.916   7.651   6.709 -1.3604  2.6217  0.5065
    1MOL   H534  534   3.825   7.644   6.998  2.8497  0.1875  1.4669
    1MOL   H535  535   4.071   7.686   6.964  1.8215  1.5939 -0.0196
    1MOL   H536  536   4.032   7.807   6.839 -1.1760 -0.7632 -0.6917
    1MOL   H537  537   3.727   7.883   6.956 -1.5839 -0.4927  1.1746
    1MOL   H538  538   3.779   7.873   6.794  0.5455  0.1914  0.6048
    1MOL   H539  539   3.555   7.828   6.784 -1.8606 -1.7128 -0.6660
    1MOL   H540  540   3.567   7.729   6.933 -0.1597 -2.0704 -1.0321
    1MOL   H541  541   3.642   7.665   6.643  0.0655  0.1039 -0.5306
    1MOL   H542  542   3.413   7.624   6.688  2.0791  0.3149 -0.7790
    1MOL   H543  543   3.500   7.473   6.676 -3.6954  0.8711 -1.7393
    1MOL   H544  544   3.532   7.379   7.042 -0.0315  2.1822  0.3686
    1MOL   H545  545   3.504   7.250   7.254  0.2777 -0.4470 -1.0305
    1MOL   H546  546   3.074   7.329   7.237 -0.1576  1.0215 -2.1832
    1MOL   H547  547   3.113   7.482   7.060 -1.1747 -1.4253  1.4355
    1MOL   C548  548   3.202   6.899   7.918 -0.0592  0.3172  0.5283
    1MOL   C549  549   3.199   6.973   7.788 -1.0787  0.2162  0.5529
    1MOL   C550  550   3.072   7.053   7.769  0.0304  0.3214  0.8101
    1MOL   C551  551   3.075   7.147   7.646 -0.0809 -0.0884  1.2134
    1MOL   O552  552   3.097   7.073   7.531 -0.1422 -0.0929  0.2015
    1MOL   C553  553   2.949   6.962   7.774  0.0085 -0.4971  0.0862
    1MOL   C554  554   2.943   6.885   7.909 -0.3296  0.0264 -0.2763
    1MOL   C555  555   3.077   6.808   7.936 -0.1748 -0.1280  0.2819
    1MOL   C556  556   3.074   6.749   0.043  0.1204  0.4899  0.2566
    1MOL   O557  557   3.197   6.667   0.043  0.0375 -0.3874 -0.0527
    1MOL   C558  558   3.211   6.567   0.128 -0.2585  0.1062 -0.6073
    1MOL   O559  559   3.123   6.528   0.203  0.1023 -0.1097 -0.2370
    1MOL   C560  560   3.335   6.488   0.102  0.6410  0.7391 -0.5123
    1MOL   C561  561   3.344   6.359   0.154 -0.1183 -0.1132 -0.5164
    1MOL   C562  562   3.452   6.278   0.129 -0.4426  0.4813  0.1600
    1MOL   C563  563   3.561   6.332   0.059  0.1976  0.4922 -0.4302
    1MOL   C564  564   3.679   6.249   0.023 -0.7354  0.1479  1.1935
    1MOL   O565  565   3.776   6.288   7.989 -0.0585  0.5147 -0.0473
    1MOL   O566  566   3.664   6.132   0.074  0.6231  0.1128 -0.7050
    1MOL   C567  567   3.562   6.466   0.018  1.2907 -0.4464  0.6013
    1MOL   C568  568   3.446   6.549   0.041 -1.0039  0.0515  0.1471
    1MOL   H569  569   3.299   6.851   7.914  0.7443  1.9280  0.4260
    1MOL   H570  570   3.203   6.971   8.000  0.7073 -2.6009  3.2027
    1MOL   H571  571   3.284   7.041   7.780 -1.7810  1.0739  0.2505
    1MOL   H572  572   3.204   6.898   7.709 -0.3262  1.4158 -0.5575
    1MOL   H573  573   3.068   7.111   7.862  2.9429  0.4536  0.8878
    1MOL   H574  574   2.982   7.203   7.638  0.5332  0.7754 -0.2306
    1MOL   H575  575   3.155   7.220   7.662  1.4089 -1.4989  0.3788
    1MOL   H576  576   2.854   7.009   7.751  0.4927 -0.6309 -2.2951
    1MOL   H577  577   2.953   6.893   7.690 -0.1225 -0.7271  0.2678
    1MOL   H578  578   2.869   6.805   7.902 -0.1699 -0.0260 -1.3605
    1MOL   H579  579   2.932   6.950   7.996  0.2813 -1.0525  0.6169
    1MOL   H580  580   3.076   6.725   7.865  1.3754  1.4136 -1.5598
    1MOL   H581  581   3.067   6.829   0.117 -1.9502  0.3858  0.2038
    1MOL   H582  582   2.980   6.693   0.044  1.6723 -2.1971 -0.6642
    1MOL   H583  583   3.260   6.320   0.210  1.1915 -0.8945  0.9135
    1MOL   H584  584   3.444   6.184   0.180 -0.9794  0.4035 -0.0613
    1MOL   H585  585   3.650   6.514   8.013  1.1659  0.8427  1.8212
    1MOL   H586  586   3.435   6.650   0.005 -2.1057 -0.7330 -1.8061
    1MOL   C587  587   3.763   6.030   7.611  0.2144  0.4744  0.0570
    1MOL   C588  588   3.789   6.019   7.763 -0.2521 -0.5903 -0.3790
    1MOL   C589  589   3.661   5.961   7.834  0.9010 -0.0987  0.5740
    1MOL   C590  590   3.686   5.925   7.979 -0.0702 -0.0726  0.3419
    1MOL   O591  591   3.757   6.025   0.015  0.1555  0.2726 -0.4947
    1MOL   C592  592   3.544   6.061   7.796  0.0576  0.1787  0.6197
    1MOL   C593  593   3.512   6.061   7.647  0.3933  0.2003 -0.1407
    1MOL   C594  594   3.636   6.112   7.570 -0.1548  0.0993  0.0124
    1MOL   C595  595   3.606   6.111   7.417  0.4825  0.5229 -0.2906
    1MOL   O596  596   3.554   6.234   7.373  0.6448 -0.1839 -0.3901
    1MOL   C597  597   3.629   6.332   7.354  0.6805 -0.1050 -0.1706
    1MOL   O598  598   3.741   6.345   7.399 -0.4010 -0.3371  0.1237
    1MOL   C599  599   3.567   6.435   7.273  0.9438 -0.5838 -0.5217
    1MOL   C600  600   3.645   6.503   7.178  0.2357 -0.3842 -0.3431
    1MOL   C601  601   3.584   6.601   7.091 -0.8431  0.4542  0.0078
    1MOL   C602  602   3.448   6.627   7.108 -0.4065  0.5025 -0.5300
    1MOL   C603  603   3.380   6.717   7.009  0.1256  0.4177  0.1309
    1MOL   O604  604   3.429   6.743   6.900 -0.2228 -0.0936 -0.5736
    1MOL   O605  605   3.265   6.774   7.061 -0.2275 -0.1545  0.5444
    1MOL   C606  606   3.372   6.564   7.212 -0.2488  0.1288  0.0071
    1MOL   C607  607   3.434   6.465   7.294  0.3079  0.1592  0.6084
    1MOL   H608  608   3.859   6.068   7.577  0.0239  0.1788 -0.8044
    1MOL   H609  609   3.776   5.935   7.560  1.5406  0.5536  0.2097
    1MOL   H610  610   3.865   5.944   7.783  0.2009 -0.1456 -0.4516
    1MOL   H611  611   3.818   6.117   7.800 -3.6070  0.9565 -1.6803
    1MOL   H612  612   3.650   5.864   7.786 -1.9341  0.2728  0.3501
    1MOL   H613  613   3.594   5.890   8.026  0.0800 -2.4407 -1.0331
    1MOL   H614  614   3.750   5.838   7.998  0.2189 -0.0396 -0.4909
    1MOL   H615  615   3.458   6.022   7.851  0.9720 -1.7580  0.7173
    1MOL   H616  616   3.566   6.162   7.830 -2.1980  0.7889  0.3726
    1MOL   H617  617   3.428   6.126   7.623  0.6652  0.5903 -0.0353
    1MOL   H618  618   3.480   5.964   7.609  0.7481  0.5135 -1.2497
    1MOL   H619  619   3.660   6.210   7.612  1.6109 -0.3408  0.0884
    1MOL   H620  620   3.695   6.097   7.356  3.2103  1.2038  3.3430
    1MOL   H621  621   3.539   6.028   7.400  2.3202 -0.8964 -0.7870
    1MOL   H622  622   3.748   6.474   7.165 -0.0268 -1.6713  0.3257
    1MOL   H623  623   3.650   6.639   7.015  1.7768 -1.7653  1.0861
    1MOL   H624  624   3.265   6.571   7.224 -0.1900  1.9634 -0.3822
    1MOL   H625  625   3.371   6.405   7.357  0.1942  0.7771  1.0972
    1MOL   C626  626   3.011   7.202   6.765  0.1510  0.1729  0.2269
    1MOL   C627  627   3.028   7.110   6.885  0.3648  0.3088  0.4237
    1MOL   C628  628   3.183   7.098   6.917 -0.0149 -0.3962 -0.0064
    1MOL   C629  629   3.218   7.005   7.026 -0.6323  0.0389  0.2566
    1MOL   O630  630   3.188   6.876   6.980 -0.1629  0.3423  0.4612
    1MOL   C631  631   3.264   7.066   6.786  0.5566  0.1207 -0.1798
    1MOL   C632  632   3.228   7.151   6.658 -0.2168  0.4348  0.4956
    1MOL   C633  633   3.076   7.153   6.638 -0.4773  0.3292  0.2154
    1MOL   C634  634   3.016   7.224   6.514  0.0155  0.4979 -0.2960
    1MOL   O635  635   3.056   7.365   6.509  0.5200  0.2381  0.7138
    1MOL   C636  636   2.960   7.454   6.456  0.0163  0.3555  0.3182
    1MOL   O637  637   2.846   7.420   6.427  0.4924  0.2368  0.7456
    1MOL   C638  638   3.013   7.593   6.445  0.7087 -0.5927  0.2463
    1MOL   C639  639   3.132   7.626   6.518 -0.1939  0.3527 -0.5866
    1MOL   C640  640   3.181   7.761   6.518  0.4705 -0.0166  0.1113
    1MOL   C641  641   3.119   7.861   6.438  0.1606  0.6416  0.2606
    1MOL   C642  642   3.157   8.003   6.431  0.5455  0.7024  0.5078
    1MOL   O643  643   3.094   0.057   6.372 -0.2105 -0.4412  0.2393
    1MOL   O644  644   3.276   8.031   6.489 -0.0768 -0.2415 -0.1691
    1MOL   C645  645   3.000   7.826   6.368  0.5368  0.1722  0.4390
    1MOL   C646  646   2.953   7.694   6.370  0.1187 -0.8811  0.1895
    1MOL   H647  647   2.904   7.218   6.746  0.9209  1.4353 -3.4610
    1MOL   H648  648   3.054   7.299   6.789  0.9284 -0.3029  0.7478
    1MOL   H649  649   2.970   7.152   6.967  1.1908  1.6652  0.3292
    1MOL   H650  650   2.995   7.007   6.869 -0.3506  0.4172  1.1775
    1MOL   H651  651   3.190   7.203   6.947  1.8292 -0.6494  0.4762
    1MOL   H652  652   3.326   7.015   7.035 -0.5000 -0.7185 -0.4705
    1MOL   H653  653   3.171   7.033   7.120 -1.4964 -0.8871  0.1044
    1MOL   H654  654   3.371   7.080   6.803  0.6638 -0.3266 -0.4745
    1MOL   H655  655   3.255   6.960   6.763  1.3471 -0.3361  1.5057
    1MOL   H656  656   3.279   7.113   6.570 -1.4173 -0.4458  0.1666
    1MOL   H657  657   3.261   7.254   6.663  1.1157 -0.0448  2.2132
    1MOL   H658  658   3.051   7.047   6.633  0.3877  0.1243  0.2013
    1MOL   H659  659   3.045   7.184   6.417  1.6884  0.3941  0.2413
    1MOL   H660  660   2.907   7.220   6.515  0.0594 -0.5865  1.3204
    1MOL   H661  661   3.184   7.554   6.579  1.4429 -1.0391 -3.5305
    1MOL   H662  662   3.264   7.796   6.577  0.3217 -0.7931  0.7969
    1MOL   H663  663   2.946   7.891   6.300  2.7479  0.9772 -0.6128
    1MOL   H664  664   2.868   7.663   6.311  0.3751  0.2780 -0.8169
    1MOL   C665  665   3.506   0.041   6.906 -0.2291 -0.2072  0.1782
    1MOL   C666  666   3.394   0.058   6.797  0.0557  0.0491 -0.1335
    1MOL   C667  667   3.391   0.196   6.736  0.0811  0.3721 -0.5492
    1MOL   C668  668   3.281   0.200   6.627  0.5506 -0.2560  0.8184
    1MOL   O669  669   3.304   0.145   6.496 -0.6583 -0.0523 -0.3907
    1MOL   C670  670   3.369   0.297   6.858 -0.3150  0.5106  0.0333
    1MOL   C671  671   3.483   0.293   6.962 -0.7305  0.0754 -0.4753
    1MOL   C672  672   3.499   0.149   7.017 -0.2937 -0.0295 -0.0760
    1MOL   C673  673   3.616   0.142   7.120 -0.4609 -0.1851 -0.3833
    1MOL   O674  674   3.747   0.143   7.059 -0.3061  0.0224 -0.4022
    1MOL   C675  675   3.857   0.127   7.134  0.7518 -0.2336 -0.1828
    1MOL   O676  676   3.856   0.116   7.261 -0.4397 -0.4253 -0.3600
    1MOL   C677  677   3.984   0.131   7.055  0.8065 -0.3791 -0.4315
    1MOL   C678  678   3.987   0.111   6.919  0.0121  0.4273 -0.6584
    1MOL   C679  679   4.112   0.100   6.849  0.1048  0.1904 -0.0736
    1MOL   C680  680   4.232   0.117   6.926 -0.8970 -0.2928 -0.7694
    1MOL   C681  681   4.366   0.099   6.863 -0.1307 -0.1601 -0.0537
    1MOL   O682  682   4.472   0.119   6.924  0.5864 -0.4879 -0.2629
    1MOL   O683  683   4.358   0.044   6.739  0.0608 -0.5905 -0.9031
    1MOL   C684  684   4.222   0.149   7.066 -0.1327  0.1603 -0.2562
    1MOL   C685  685   4.099   0.158   7.130 -0.1341 -1.0077 -0.1766
    1MOL   H686  686   3.490   7.979   6.951 -0.0915 -1.3442 -2.1803
    1MOL   H687  687   3.603   0.035   6.857 -1.9117 -2.0713 -3.0687
    1MOL   H688  688   3.407   8.015   6.723 -1.0877  0.1902 -0.5024
    1MOL   H689  689   3.301   0.037   6.851  0.5209 -3.0056 -0.4272
    1MOL   H690  690   3.494   0.212   6.702  0.6677  0.7014  1.3325
    1MOL   H691  691   3.183   0.168   6.661 -0.0749  0.5699 -0.1754
    1MOL   H692  692   3.260   0.304   6.601  0.3794 -0.6322 -0.5783
    1MOL   H693  693   3.363   0.399   6.820 -1.6095  0.2858 -0.3930
    1MOL   H694  694   3.279   0.266   6.911  0.5352 -1.6517  0.2604
    1MOL   H695  695   3.457   0.364   7.041 -2.2841  0.0613 -0.9633
    1MOL   H696  696   3.573   0.348   6.936 -2.0706  1.6835 -1.7395
    1MOL   H697  697   3.407   0.123   7.068 -0.3169  0.7463  0.2855
    1MOL   H698  698   3.614   0.234   7.178  0.2214 -2.2612  3.0296
    1MOL   H699  699   3.606   0.054   7.184 -0.7404  0.5263  0.5596
    1MOL   H700  700   3.895   0.093   6.865 -0.7630  0.6871  0.5705
    1MOL   H701  701   4.108   0.073   6.744 -0.1764 -1.1636  0.2728
    1MOL   H702  702   4.313   0.166   7.123  0.9817  2.8154 -2.7245
    1MOL   H703  703   4.095   0.175   7.237 -0.9369  0.2160 -0.3979
    1MOL   C704  704   4.866   7.912   6.494  0.1458 -0.6173 -0.1553
    1MOL   C705  705   4.717   7.949   6.507 -0.1648 -0.4459 -0.2231
    1MOL   C706  706   4.694   0.046   6.591  0.5855  0.3956  0.3066
    1MOL   C707  707   4.544   0.077   6.605 -0.2331  0.5988  0.3651
    1MOL   O708  708   4.483   8.022   6.685 -0.0748  0.0760 -0.1273
    1MOL   C709  709   4.764   0.038   6.722 -0.8415 -0.2167 -0.4986
    1MOL   C710  710   4.918   0.003   6.703 -0.9204 -0.2403  0.0490
    1MOL   C711  711   4.942   7.908   6.628  0.0086  0.1466 -0.4383
    1MOL   C712  712   5.089   7.865   6.618 -0.5360  0.5244 -0.1501
    1MOL   O713  713   5.176   7.971   6.592 -0.2524 -0.1905  0.4316
    1MOL   C714  714   5.240   7.981   6.476 -1.0029 -0.7563 -0.0347
    1MOL   O715  715   5.245   7.885   6.389 -0.0177 -0.2147  0.3461
    1MOL   C716  716   5.328   0.065   6.469  0.0924 -0.4388 -1.2479
    1MOL   C717  717   5.427   0.071   6.367  0.3668 -0.1076 -0.3505
    1MOL   C718  718   5.511   0.185   6.352  0.4302 -0.5338  0.0550
    1MOL   C719  719   5.492   0.293   6.437  0.1203  0.1174 -0.6633
    1MOL   C720  720   5.569   0.420   6.434  0.0444 -0.3332 -0.6314
    1MOL   O721  721   5.552   0.515   6.509 -0.6422  0.0279 -0.6255
    1MOL   O722  722   5.667   0.415   6.344  0.3112 -0.2626 -0.4147
    1MOL   C723  723   5.398   0.292   6.544 -0.3413  0.4407 -0.6621
    1MOL   C724  724   5.320   0.174   6.562  0.4907 -0.4835 -0.2959
    1MOL   H725  725   4.876   7.822   6.433  1.6812 -1.8143  1.8412
    1MOL   H726  726   4.921   7.993   6.447  0.1304 -0.5881 -0.1233
    1MOL   H727  727   4.691   7.955   6.401 -2.1582 -1.5921  0.1803
    1MOL   H728  728   4.664   7.858   6.535  1.2864 -0.9612  0.8587
    1MOL   H729  729   4.732   0.115   6.515 -1.1838  1.3285  0.2391
    1MOL   H730  730   4.543   0.175   6.653 -1.5138  1.0816 -0.5948
    1MOL   H731  731   4.504   0.099   6.506 -0.6252 -1.0346  0.1405
    1MOL   H732  732   4.760   0.133   6.775  1.8665 -1.1521  1.4331
    1MOL   H733  733   4.713   7.996   6.780  1.4809 -1.4375 -0.0387
    1MOL   H734  734   4.967   8.028   6.800  1.5612  1.6486 -0.9464
    1MOL   H735  735   4.961   0.085   6.646  2.1054 -1.0279  1.1172
    1MOL   H736  736   4.897   7.831   6.691 -0.9625  0.4136 -0.8073
    1MOL   H737  737   5.114   7.827   6.717  0.1453  0.8199 -0.2094
    1MOL   H738  738   5.097   7.776   6.556 -1.4677 -0.0579  0.5560
    1MOL   H739  739   5.426   8.018   6.304 -2.4211  0.0951 -0.6310
    1MOL   H740  740   5.586   0.195   6.275 -3.0738 -0.6477 -3.5098
    1MOL   H741  741   5.390   0.374   6.613 -3.5144  1.2935 -1.9824
    1MOL   H742  742   5.245   0.173   6.641 -0.9276 -4.0035 -1.5485
    1MOL   C743  743   6.045   0.804   6.509  0.7164  0.1940 -0.0951
    1MOL   C744  744   5.933   0.697   6.501 -0.4859  0.3214  0.1424
    1MOL   C745  745   5.987   0.580   6.419 -0.4854  0.3495  0.1366
    1MOL   C746  746   5.877   0.468   6.417 -0.3010  0.0623  0.2977
    1MOL   O747  747   5.766   0.521   6.351  0.2923  0.0897 -0.2975
    1MOL   C748  748   6.022   0.618   6.277  0.7318  0.0495 -0.0143
    1MOL   C749  749   6.125   0.732   6.280 -0.1305 -0.2761 -0.4906
    1MOL   C750  750   6.083   0.855   6.372  0.0807 -0.4889 -0.4003
    1MOL   C751  751   6.198   0.956   6.367 -0.1231  0.3395 -0.0759
    1MOL   O752  752   6.196   1.012   6.238 -0.3406  0.7973 -0.1300
    1MOL   C753  753   6.310   1.048   6.171  0.0792 -0.0387 -0.1712
    1MOL   O754  754   6.421   1.039   6.219 -0.0051  0.0688 -0.1789
    1MOL   C755  755   6.278   1.094   6.033 -0.6083 -0.5275 -0.3533
    1MOL   C756  756   6.146   1.087   5.973 -0.1592 -0.0875  0.4797
    1MOL   C757  757   6.113   1.133   5.840 -0.7680  0.2887  0.6222
    1MOL   C758  758   6.222   1.189   5.760  0.6702 -0.5528 -0.3395
    1MOL   C759  759   6.200   1.244   5.630 -0.0827 -0.2530  0.4768
    1MOL   O760  760   6.286   1.293   5.559  0.9813 -0.2184  0.1894
    1MOL   O761  761   6.075   1.226   5.586  0.1479 -0.0938 -0.3942
    1MOL   C762  762   6.349   1.188   5.821  0.5764 -0.4455 -0.0022
    1MOL   C763  763   6.380   1.143   5.953 -0.4561  0.3592  0.2141
    1MOL   H764  764   6.019   0.887   6.575 -0.4536  0.1131 -0.4399
    1MOL   H765  765   6.131   0.756   6.555  0.1927 -0.8187 -0.1596
    1MOL   H766  766   5.915   0.663   6.603  0.8109  1.3723  0.7385
    1MOL   H767  767   5.842   0.742   6.462  1.1495  2.6742 -1.1197
    1MOL   H768  768   6.071   0.537   6.473 -0.6367  1.4131  1.2427
    1MOL   H769  769   5.904   0.375   6.367 -0.9010  0.5037 -0.8654
    1MOL   H770  770   5.868   0.428   6.518 -0.8542 -0.7369 -0.0744
    1MOL   H771  771   6.057   0.539   6.210  1.0730  0.3368 -0.1790
    1MOL   H772  772   5.933   0.659   6.230  2.1230  2.4898 -0.6238
    1MOL   H773  773   6.156   0.754   6.177 -1.8193 -1.1513 -1.1915
    1MOL   H774  774   6.214   0.688   6.327 -0.1982  0.3027  0.1902
    1MOL   H775  775   5.994   0.902   6.329  0.2855 -0.6807 -1.0414
    1MOL   H776  776   6.195   1.029   6.448  5.2814 -0.3970  1.0411
    1MOL   H777  777   6.291   0.903   6.391 -0.4428  0.8311  2.3934
    1MOL   H778  778   6.065   1.055   6.036 -0.9019 -0.7896 -0.8055
    1MOL   H779  779   6.017   1.135   5.791 -0.1484  1.1028 -0.5850
    1MOL   H780  780   6.434   1.224   5.764 -0.0793 -2.0665 -2.0627
    1MOL   H781  781   6.484   1.153   5.982  0.1154  1.2244 -2.0366
    1MOL   H782  782   6.065   1.288   5.515 -1.6032 -1.1384 -1.1025
    2MOL     C1  783   7.098   1.647   0.598  0.0922  1.0250 -0.2695
    2MOL     C2  784   7.175   1.581   0.486 -1.0060 -0.4081 -0.5839
    2MOL     C3  785   7.298   1.513   0.550  0.2429  0.5999 -0.2422
    2MOL     C4  786   7.385   1.432   0.451  0.1077  0.4985 -0.4575
    2MOL     O5  787   7.323   1.311   0.427  0.1138  0.5235  0.0358
    2MOL     C6  788   7.388   1.607   0.637  0.0601 -0.1530  0.1812
    2MOL     C7  789   7.301   1.691   0.733  0.2049 -0.8424 -0.2897
    2MOL     C8  790   7.176   1.754   0.668 -0.0622  0.6340  0.1294
    2MOL     C9  791   7.092   1.813   0.784  0.2882 -0.1803 -0.3172
    2MOL    O10  792   7.002   1.911   0.729 -0.0892 -0.5937  0.1362
    2MOL    C11  793   6.933   1.990   0.813 -0.1742  0.2168  0.4463
    2MOL    O12  794   6.936   1.993   0.936 -0.1686  0.2370 -0.4816
    2MOL    C13  795   6.839   2.083   0.741  0.2848  0.0324 -0.1273
    2MOL    C14  796   6.736   2.150   0.808 -0.4150 -1.1279 -0.1110
    2MOL    C15  797   6.654   2.237   0.742 -0.0109 -0.6080  0.6012
    2MOL    C16  798   6.668   2.261   0.603  0.8961 -0.8899  0.3246
    2MOL    C17  799   6.580   2.362   0.529  0.2863  1.0321 -0.0659
    2MOL    O18  800   6.574   2.361   0.405 -0.2019  0.2483 -0.3100
    2MOL    O19  801   6.509   2.446   0.609 -0.1780 -0.1094 -0.6923
    2MOL    C20  802   6.756   2.182   0.529 -0.8886  0.7024 -0.1564
    2MOL    C21  803   6.849   2.105   0.601 -0.7012 -0.7622 -0.4431
    2MOL    H22  804   7.003   1.676   0.552 -0.4207 -0.0297  0.1101
    2MOL    H23  805   7.074   1.574   0.676  0.3812  2.7182  1.4388
    2MOL    H24  806   7.106   1.517   0.431 -0.8986 -1.7224  0.7878
    2MOL    H25  807   7.204   1.661   0.418  1.0861  0.4670  1.2774
    2MOL    H26  808   7.253   1.437   0.614 -0.4939 -0.0428 -1.5127
    2MOL    H27  809   7.386   1.489   0.357  0.2452 -0.2476 -0.9125
    2MOL    H28  810   7.481   1.418   0.500 -0.2290 -3.6085 -0.8630
    2MOL    H29  811   7.462   1.552   0.694  1.4240  1.4515  0.0330
    2MOL    H30  812   7.440   1.672   0.566  0.6369 -1.1675 -0.3376
    2MOL    H31  813   7.365   1.771   0.771 -0.2123 -0.1690 -0.9907
    2MOL    H32  814   7.261   1.622   0.807  1.9370 -1.3559  0.1845
    2MOL    H33  815   7.203   1.836   0.601  0.3220 -0.0498 -0.5525
    2MOL    H34  816   7.036   1.739   0.841  0.4913  0.6784  1.0106
    2MOL    H35  817   7.148   1.863   0.862 -1.9720  0.5594  0.8852
    2MOL    H36  818   6.719   2.125   0.911  0.9458 -1.0117  0.1471
    2MOL    H37  819   6.577   2.288   0.797  0.0715 -0.5706  0.6821
    2MOL    H38  820   6.757   2.198   0.422 -0.0420 -0.9047 -0.4115
    2MOL    H39  821   6.921   2.054   0.539  0.5689  0.1186  0.2995
    2MOL    H40  822   7.258   1.319   0.359 -1.6102  1.2208  1.7219
    2MOL    C41  823   6.453   3.034   0.421 -0.5965  0.0983  0.1775
    2MOL    C42  824   6.519   2.900   0.453 -0.8679  0.6596 -0.3402
    2MOL    C43  825   6.421   2.787   0.466  0.1808 -0.3116 -0.2629
    2MOL    C44  826   6.500   2.662   0.515 -0.6517 -0.0930  0.6713
    2MOL    O45  827   6.421   2.546   0.526  0.0090  0.0473 -0.1011
    2MOL    C46  828   6.304   2.826   0.571  0.2113  0.5926 -0.3578
    2MOL    C47  829   6.245   2.961   0.540  0.2237 -0.3329  0.1480
    2MOL    C48  830   6.341   3.079   0.512 -0.5888  0.1167 -0.6074
    2MOL    C49  831   6.281   3.213   0.459  0.1941  0.2282 -0.4564
    2MOL    O50  832   6.199   3.196   0.342  0.2396  0.0281 -0.8297
    2MOL    C51  833   6.139   3.293   0.279 -0.4892 -0.3714 -0.5750
    2MOL    O52  834   6.177   3.407   0.284  0.1921  0.0166  0.4824
    2MOL    C53  835   6.027   3.251   0.192 -0.0879  0.6305  0.1699
    2MOL    C54  836   5.998   3.112   0.161  0.0621 -0.6773  0.3177
    2MOL    C55  837   5.900   3.075   0.070  0.2015  0.3942  0.0860
    2MOL    C56  838   5.822   3.170   0.001  0.0563  0.6410 -0.5838
    2MOL    C57  839   5.714   3.123   7.937  0.5689 -0.4680  0.4277
    2MOL    O58  840   5.694   3.004   7.916  0.0652 -0.4521 -0.4152
    2MOL    O59  841   5.644   3.223   7.877  0.1294  0.1431  0.4742
    2MOL    C60  842   5.851   3.307   0.022 -0.1554 -0.6576  0.0089
    2MOL    C61  843   5.951   3.345   0.120 -0.4036  0.6381  0.6196
    2MOL    H62  844   6.528   3.113   0.419 -0.9831  0.4743  0.2815
    2MOL    H63  845   6.410   3.030   0.321 -0.9168  0.4430  0.2996
    2MOL    H64  846   6.609   2.869   0.399 -1.5189 -1.4007 -0.2822
    2MOL    H65  847   6.557   2.915   0.554 -0.3751 -0.2605 -0.3862
    2MOL    H66  848   6.392   2.769   0.363  0.8565 -0.8579 -0.3566
    2MOL    H67  849   6.583   2.646   0.446 -1.7260  0.1929 -0.7325
    2MOL    H68  850   6.538   2.689   0.613 -0.1763  1.6068  0.0371
    2MOL    H69  851   6.222   2.757   0.550 -0.0724  1.4476 -2.2303
    2MOL    H70  852   6.342   2.825   0.673 -0.3396 -0.8151 -0.1503
    2MOL    H71  853   6.178   3.003   0.615  1.4317  0.1564  0.9781
    2MOL    H72  854   6.178   2.960   0.454 -0.0696 -2.4780  0.3676
    2MOL    H73  855   6.375   3.120   0.607  1.0446  0.9500 -1.5261
    2MOL    H74  856   6.227   3.260   0.542 -0.7132  1.3407 -1.6464
    2MOL    H75  857   6.360   3.285   0.440  0.8978 -0.3631  0.1929
    2MOL    H76  858   6.051   3.029   0.206  0.5281 -1.0919 -0.9795
    2MOL    H77  859   5.897   2.968   0.056  1.5795  0.4944 -1.0885
    2MOL    H78  860   5.805   3.386   8.000  2.6647 -0.4320 -1.9925
    2MOL    H79  861   5.965   3.451   0.134  0.3172  0.6302  0.0051
    2MOL    C80  862   5.160   3.122   7.566 -0.6826  0.5199  1.0344
    2MOL    C81  863   5.285   3.184   7.641  0.1673 -0.2616  0.2070
    2MOL    C82  864   5.284   3.129   7.790  0.2573 -0.1694  0.2938
    2MOL    C83  865   5.400   3.189   7.875 -0.2742  0.1287  0.2654
    2MOL    O84  866   5.519   3.166   7.801 -0.3453  0.4547 -0.0605
    2MOL    C85  867   5.163   3.156   7.870  0.3726  0.2712 -0.0899
    2MOL    C86  868   5.043   3.107   7.794  0.7875  0.0029  0.6910
    2MOL    C87  869   5.037   3.151   7.648  0.1943  0.2337  0.1296
    2MOL    C88  870   4.908   3.094   7.582  0.3032 -0.7268  0.5393
    2MOL    O89  871   4.898   3.125   7.447  0.3326 -0.3482  0.1655
    2MOL    C90  872   4.770   3.126   7.394  0.8805  0.4947  0.2348
    2MOL    O91  873   4.666   3.120   7.461 -0.0380 -0.4906  0.1349
    2MOL    C92  874   4.761   3.132   7.242 -0.7039 -0.9078  0.2495
    2MOL    C93  875   4.888   3.126   7.175 -0.5807  0.4721  0.5853
    2MOL    C94  876   4.890   3.127   7.034 -0.5294 -0.0225  0.5511
    2MOL    C95  877   4.768   3.126   6.964  0.0726 -0.4831  0.4605
    2MOL    C96  878   4.772   3.127   6.808  0.8911  0.2984 -0.0913
    2MOL    O97  879   4.882   3.134   6.748  0.1240 -0.1472  0.9843
    2MOL    O98  880   4.652   3.101   6.751  0.1567  0.0795 -0.2439
    2MOL    C99  881   4.645   3.137   7.031  0.2540 -0.1835 -0.2191
    2MOL   C100  882   4.641   3.143   7.172  0.6134 -0.5277 -0.5811
    2MOL   H101  883   5.144   3.154   7.463  1.0906 -0.7364  0.3431
    2MOL   H102  884   5.176   3.014   7.563 -0.1610  0.5761  1.6385
    2MOL   H103  885   5.377   3.160   7.587  0.6230  1.4244  0.2259
    2MOL   H104  886   5.279   3.292   7.645  1.6391 -0.1534 -0.2627
    2MOL   H105  887   5.296   3.021   7.786  2.9938  0.1033 -0.2315
    2MOL   H106  888   5.379   3.294   7.894  0.1376 -0.0491  1.8205
    2MOL   H107  889   5.411   3.134   7.969  1.7158 -0.3910 -0.2372
    2MOL   H108  890   5.166   3.117   7.972 -0.8171 -1.4759 -0.6977
    2MOL   H109  891   5.153   3.263   7.886  1.1508  0.4312 -0.6683
    2MOL   H110  892   4.954   3.151   7.840 -0.2260 -1.5483  0.2547
    2MOL   H111  893   5.018   3.001   7.799  1.0099  0.0279  3.3500
    2MOL   H112  894   5.017   3.258   7.652 -1.5417 -0.0527 -0.3362
    2MOL   H113  895   4.901   2.989   7.610  0.3000 -0.2660  2.3686
    2MOL   H114  896   4.827   3.141   7.639 -1.6128  0.2014 -2.8151
    2MOL   H115  897   4.986   3.135   7.220 -0.2133 -0.8717  0.0598
    2MOL   H116  898   4.982   3.135   6.978 -1.0246  0.2347 -0.2237
    2MOL   H117  899   4.549   3.142   6.981 -0.1527  0.9108  0.6367
    2MOL   H118  900   4.543   3.135   7.217 -0.1081  1.4188 -1.7362
    2MOL   C119  901   4.617   2.782   6.219 -0.4096  0.1522  0.2473
    2MOL   C120  902   4.650   2.795   6.370  0.2394  0.4098 -0.0903
    2MOL   C121  903   4.642   2.943   6.412 -0.2381 -0.2823 -0.2116
    2MOL   C122  904   4.697   2.960   6.565 -0.3040 -0.0207  0.4732
    2MOL   O123  905   4.662   3.091   6.600 -0.2568 -0.3401  0.4890
    2MOL   C124  906   4.724   3.025   6.313 -0.0450 -0.0702  0.2232
    2MOL   C125  907   4.716   2.989   6.163 -0.0114 -0.6622 -0.2489
    2MOL   C126  908   4.726   2.843   6.127  0.4471  0.0642 -0.8274
    2MOL   C127  909   4.702   2.836   5.972 -0.0664  0.3228  0.0944
    2MOL   O128  910   4.830   2.841   5.903 -0.1256 -0.3268  0.1299
    2MOL   C129  911   4.831   2.874   5.777  0.2847  0.1534 -0.2097
    2MOL   O130  912   4.729   2.894   5.709  0.1481 -0.0280  0.3662
    2MOL   C131  913   4.967   2.884   5.716  0.1822 -0.5330 -0.3339
    2MOL   C132  914   5.082   2.880   5.796 -0.2739 -0.1846 -0.2429
    2MOL   C133  915   5.208   2.892   5.742  0.7878 -0.0431 -0.7635
    2MOL   C134  916   5.230   2.897   5.605  0.8560  0.0045  0.7155
    2MOL   C135  917   5.366   2.914   5.559  0.0032  0.1173  0.4423
    2MOL   O136  918   5.464   2.945   5.626  0.4036  0.2657 -0.1298
    2MOL   O137  919   5.372   2.897   5.428 -0.2325 -0.2535  0.4481
    2MOL   C138  920   5.117   2.897   5.523  0.5755  0.2221 -0.3722
    2MOL   C139  921   4.988   2.897   5.575 -0.5019 -0.3560 -0.2534
    2MOL   H140  922   4.604   2.675   6.202 -3.5341  0.5376 -0.0589
    2MOL   H141  923   4.516   2.819   6.201 -0.1367  1.1547  0.7759
    2MOL   H142  924   4.575   2.741   6.430  0.8153 -1.8886 -1.3828
    2MOL   H143  925   4.749   2.753   6.382  0.4441  1.4240  1.9754
    2MOL   H144  926   4.540   2.977   6.401  0.6065  2.9535  1.3131
    2MOL   H145  927   4.651   2.885   6.629 -0.5699 -0.4385 -0.1961
    2MOL   H146  928   4.804   2.940   6.574 -0.2213  0.9083  1.6165
    2MOL   H147  929   4.697   3.127   6.341  0.6198  0.2097 -0.1598
    2MOL   H148  930   4.830   3.016   6.336  0.1394  0.0432 -0.5518
    2MOL   H149  931   4.800   3.044   6.119  0.2072 -1.1768 -0.4864
    2MOL   H150  932   4.624   3.035   6.129 -1.3835 -1.6614  1.9680
    2MOL   H151  933   4.825   2.806   6.155  0.3148 -0.1063 -0.5872
    2MOL   H152  934   4.653   2.743   5.941 -0.5775  1.4981 -2.7020
    2MOL   H153  935   4.625   2.908   5.946  1.1203  1.9002  0.8850
    2MOL   H154  936   5.062   2.875   5.902 -1.1114 -0.9829 -0.4259
    2MOL   H155  937   5.297   2.882   5.802  0.6241  2.5648 -0.0173
    2MOL   H156  938   5.122   2.884   5.416 -1.7650 -0.4021 -0.4261
    2MOL   H157  939   4.899   2.899   5.515 -1.0124  1.4061  0.5054
    2MOL   C158  940   5.307   2.615   4.990 -0.2065 -0.4426 -0.4892
    2MOL   C159  941   5.415   2.624   5.099 -0.1542 -0.0222  0.3897
    2MOL   C160  942   5.409   2.754   5.188 -0.2523 -1.1699  0.3304
    2MOL   C161  943   5.517   2.765   5.302 -0.0628  0.1417 -0.3042
    2MOL   O162  944   5.508   2.891   5.371  0.5713  0.0626 -0.2752
    2MOL   C163  945   5.430   2.871   5.099 -0.0598  0.1727  0.3901
    2MOL   C164  946   5.326   2.875   4.984  0.1632  0.0644 -0.3509
    2MOL   C165  947   5.319   2.746   4.899  0.7394 -0.4275 -0.5430
    2MOL   C166  948   5.200   2.757   4.795  0.0383 -0.4368 -0.0228
    2MOL   O167  949   5.194   2.647   4.702  0.3198  0.2487  0.1333
    2MOL   C168  950   5.088   2.565   4.696  0.3885 -0.5943  0.6406
    2MOL   O169  951   4.981   2.586   4.753 -0.3255  0.1332 -0.4886
    2MOL   C170  952   5.109   2.456   4.593  0.1027 -0.5688  0.2778
    2MOL   C171  953   5.233   2.438   4.534  0.0985  0.7368  0.2820
    2MOL   C172  954   5.263   2.317   4.466 -0.4617 -0.1452 -0.3562
    2MOL   C173  955   5.169   2.216   4.445 -0.0070 -0.6396 -0.0790
    2MOL   C174  956   5.193   2.098   4.349  0.1692  0.1622  0.1866
    2MOL   O175  957   5.100   2.022   4.313 -1.1685 -0.4528 -0.2979
    2MOL   O176  958   5.321   2.086   4.308 -0.3636  0.0256  0.2283
    2MOL   C177  959   5.037   2.236   4.495  0.0061 -0.2082 -0.0721
    2MOL   C178  960   5.009   2.358   4.572 -0.2160  0.8472  0.0838
    2MOL   H179  961   5.316   2.520   4.937 -2.0226 -0.2699 -1.1380
    2MOL   H180  962   5.207   2.603   5.032 -0.5599  0.3445 -1.0960
    2MOL   H181  963   5.410   2.538   5.165  1.3930 -0.0240  0.5257
    2MOL   H182  964   5.509   2.629   5.044 -0.2111 -1.2240  0.1682
    2MOL   H183  965   5.308   2.749   5.228 -1.1328  0.1907 -1.6668
    2MOL   H184  966   5.505   2.684   5.374  0.9697  1.7516  1.7402
    2MOL   H185  967   5.610   2.758   5.245  1.4225  0.8040  1.9594
    2MOL   H186  968   5.401   2.949   5.170  1.4163  0.2364  0.9491
    2MOL   H187  969   5.537   2.884   5.083  0.4193 -1.6844  1.9416
    2MOL   H188  970   5.344   2.970   4.933 -0.5079 -0.6070 -1.8847
    2MOL   H189  971   5.226   2.892   5.024  1.6277  3.6274  1.9903
    2MOL   H190  972   5.412   2.734   4.844  0.9996  0.1776 -0.2289
    2MOL   H191  973   5.108   2.759   4.854 -1.4851  0.1914 -2.3669
    2MOL   H192  974   5.211   2.848   4.737  1.1607 -0.8576 -0.4785
    2MOL   H193  975   5.313   2.510   4.538  0.0742  0.8446 -0.8463
    2MOL   H194  976   5.356   2.309   4.412  0.6450 -0.3325  1.5231
    2MOL   H195  977   4.966   2.157   4.481  0.5571 -0.2172 -3.2019
    2MOL   H196  978   4.914   2.367   4.623  1.1823  0.0244  2.9638
    2MOL   C197  979   5.636   1.708   4.063 -0.6048  0.3516  1.0324
    2MOL   C198  980   5.572   1.846   4.099 -0.2873 -0.2243 -0.1964
    2MOL   C199  981   5.423   1.853   4.061 -0.0713  0.7689 -0.2364
    2MOL   C200  982   5.360   1.982   4.105  0.2738 -0.0941 -0.0758
    2MOL   O201  983   5.352   1.956   4.245  0.1894  0.4565  0.3128
    2MOL   C202  984   5.424   1.832   3.907 -0.4970  0.0626 -0.2747
    2MOL   C203  985   5.477   1.696   3.859 -0.5991 -0.3516  0.2353
    2MOL   C204  986   5.620   1.669   3.917  0.6286 -0.4589 -0.8157
    2MOL   C205  987   5.670   1.530   3.884 -0.6044 -0.7473 -0.6778
    2MOL   O206  988   5.812   1.523   3.902  0.2364 -0.1234 -0.1877
    2MOL   C207  989   5.889   1.415   3.857 -0.4855  0.7490 -0.0451
    2MOL   O208  990   5.839   1.318   3.800  0.1603 -0.5821  0.7403
    2MOL   C209  991   6.034   1.424   3.901 -0.4305 -0.3106 -0.6466
    2MOL   C210  992   6.084   1.538   3.963  0.1290 -0.3600  0.5620
    2MOL   C211  993   6.213   1.549   4.011 -0.1867  0.1533 -0.3561
    2MOL   C212  994   6.296   1.432   4.008 -0.2980  0.4194 -0.5868
    2MOL   C213  995   6.437   1.443   4.054 -0.7419 -0.1510  0.1364
    2MOL   O214  996   6.519   1.353   4.061 -0.2207 -0.0120 -0.4921
    2MOL   O215  997   6.469   1.573   4.085  0.8132  0.4620  0.3791
    2MOL   C216  998   6.241   1.315   3.959 -0.4280 -0.0562  0.5215
    2MOL   C217  999   6.115   1.308   3.901 -0.5320  0.0982  0.1867
    2MOL   H218 1000   5.742   1.706   4.085 -0.4662  1.4386  0.4853
    2MOL   H219 1001   5.585   1.634   4.126  0.2945 -1.3951 -0.2501
    2MOL   H220 1002   5.578   1.854   4.207 -0.0676 -1.8047 -0.0845
    2MOL   H221 1003   5.616   1.932   4.048 -1.0354  0.4987  0.3582
    2MOL   H222 1004   5.370   1.764   4.097  1.2494  0.9190  2.1653
    2MOL   H223 1005   5.427   2.066   4.083 -0.2895 -0.0585 -1.7726
    2MOL   H224 1006   5.259   1.988   4.064  0.0901 -0.6256  0.2896
    2MOL   H225 1007   5.321   1.829   3.872 -1.0484 -2.8076  1.3784
    2MOL   H226 1008   5.484   1.898   3.844  0.2425 -1.9379 -1.7122
    2MOL   H227 1009   5.473   1.679   3.752 -1.0286  1.2275 -0.0033
    2MOL   H228 1010   5.416   1.619   3.906 -0.2838 -1.0741 -0.5162
    2MOL   H229 1011   5.679   1.741   3.861 -2.1019  3.0466  0.5973
    2MOL   H230 1012   5.610   1.459   3.942 -1.0014 -1.0393 -1.4434
    2MOL   H231 1013   5.638   1.491   3.787 -3.1169 -0.8614  0.1526
    2MOL   H232 1014   6.030   1.632   3.966  1.4632  0.3886  1.4919
    2MOL   H233 1015   6.247   1.641   4.056  0.2371  0.3360 -1.0299
    2MOL   H234 1016   6.305   1.230   3.945  1.3149  1.4783 -1.1183
    2MOL   H235 1017   6.089   1.211   3.860  1.0824  0.8188 -2.7148
    2MOL   C236 1018   7.047   1.617   4.050  0.6177  0.3284 -0.6129
    2MOL   C237 1019   6.901   1.563   4.078 -0.3977 -0.5225 -0.5773
    2MOL   C238 1020   6.816   1.671   4.147  0.2141 -0.5235 -0.0307
    2MOL   C239 1021   6.677   1.609   4.182 -0.4354  0.0325 -0.0566
    2MOL   O240 1022   6.608   1.614   4.055  0.0402  0.1964 -0.3613
    2MOL   C241 1023   6.876   1.735   4.276 -0.8213  0.4192 -0.0780
    2MOL   C242 1024   7.017   1.786   4.234  0.2761 -0.1419  0.4668
    2MOL   C243 1025   7.105   1.681   4.173  0.5954 -0.1731 -0.1077
    2MOL   C244 1026   7.242   1.742   4.141  0.0280  0.4285 -0.7153
    2MOL   O245 1027   7.295   1.811   4.249  0.2636  0.4760  0.8275
    2MOL   C246 1028   7.315   1.945   4.258 -0.1661 -0.1169 -0.0636
    2MOL   O247 1029   7.293   2.019   4.159  0.3995  0.7853 -0.0111
    2MOL   C248 1030   7.364   1.983   4.394 -0.4710 -0.7296  0.4147
    2MOL   C249 1031   7.368   2.121   4.442 -0.0273 -0.3251 -0.5584
    2MOL   C250 1032   7.400   2.151   4.575 -0.1402  0.1697 -0.5322
    2MOL   C251 1033   7.459   2.048   4.656  0.6322 -1.0333 -0.7102
    2MOL   C252 1034   7.512   2.077   4.792  0.1973  0.0070 -0.3555
    2MOL   O253 1035   7.477   2.167   4.869 -0.0858 -0.4407  0.7370
    2MOL   O254 1036   7.600   1.976   4.834 -0.4354  0.3569  0.1541
    2MOL   C255 1037   7.465   1.919   4.603 -0.4562 -0.0867  0.1386
    2MOL   C256 1038   7.420   1.884   4.476  0.0234  0.1492  0.9889
    2MOL   H257 1039   7.114   1.538   4.017 -0.8170  0.5362 -4.1596
    2MOL   H258 1040   7.050   1.693   3.973 -1.1185 -0.9555 -1.9922
    2MOL   H259 1041   6.847   1.538   3.987  0.4777 -0.4678 -1.1151
    2MOL   H260 1042   6.911   1.477   4.144  1.7118  0.1286 -0.0071
    2MOL   H261 1043   6.800   1.754   4.077  0.8670 -0.7248 -0.4205
    2MOL   H262 1044   6.704   1.507   4.209 -0.7146  0.1330  0.5882
    2MOL   H263 1045   6.622   1.663   4.259 -0.6104 -0.1338 -0.0650
    2MOL   H264 1046   6.829   1.821   4.323  0.4607  1.2210 -0.2476
    2MOL   H265 1047   6.874   1.664   4.359 -0.2013  0.7502  0.2228
    2MOL   H266 1048   7.068   1.830   4.320  0.7769 -0.6828  0.4509
    2MOL   H267 1049   7.016   1.868   4.163 -0.5707 -0.5283  0.0178
    2MOL   H268 1050   7.131   1.603   4.244  1.5875  0.5508  0.3304
    2MOL   H269 1051   7.310   1.662   4.113 -2.4337 -0.9782 -2.9290
    2MOL   H270 1052   7.234   1.807   4.053  2.9563 -1.8634 -2.7841
    2MOL   H271 1053   7.335   2.197   4.373  0.0789  1.1322  0.9653
    2MOL   H272 1054   7.388   2.253   4.608 -0.9925 -0.3632  0.8640
    2MOL   H273 1055   7.508   1.840   4.663 -1.5936 -0.4918  0.4403
    2MOL   H274 1056   7.417   1.781   4.446  0.2228  0.3526  0.2688
    2MOL   C275 1057   7.823   1.894   5.372 -0.5196 -0.4891  0.1595
    2MOL   C276 1058   7.805   1.883   5.214  0.4668 -0.1233 -0.0127
    2MOL   C277 1059   7.764   2.021   5.160 -0.1902  0.1132 -0.9286
    2MOL   C278 1060   7.743   2.025   5.009 -0.4454 -0.5974 -0.4208
    2MOL   O279 1061   7.617   1.966   4.979 -0.2406  0.8007  0.0525
    2MOL   C280 1062   7.640   2.078   5.234  0.4070  0.7584  0.5879
    2MOL   C281 1063   7.677   2.097   5.376  0.0681  0.0102  0.3666
    2MOL   C282 1064   7.704   1.964   5.443  0.6100 -0.2316  0.4478
    2MOL   C283 1065   7.741   1.988   5.587  0.1059  0.2665  0.3115
    2MOL   O284 1066   7.623   2.033   5.652  0.0238  0.3421  0.4642
    2MOL   C285 1067   7.631   2.132   5.747  0.0122 -0.4924  0.7410
    2MOL   O286 1068   7.731   2.188   5.786 -0.7078 -0.0548  0.3072
    2MOL   C287 1069   7.498   2.176   5.790  0.8765 -1.1710  0.1469
    2MOL   C288 1070   7.379   2.131   5.723 -0.1252  0.1826 -1.2016
    2MOL   C289 1071   7.258   2.181   5.769  0.1708  0.6656  0.5343
    2MOL   C290 1072   7.244   2.277   5.874  0.3618  0.8261  0.3324
    2MOL   C291 1073   7.120   2.333   5.929  0.3029  0.1277  0.1336
    2MOL   O292 1074   7.121   2.425   6.009  0.6109 -0.4311  0.0133
    2MOL   O293 1075   7.006   2.291   5.864  0.5481 -0.3776  0.3078
    2MOL   C294 1076   7.364   2.316   5.936 -0.5277 -0.8588 -0.6173
    2MOL   C295 1077   7.491   2.268   5.892  0.5416  0.1520 -0.2728
    2MOL   H296 1078   7.836   1.795   5.414 -0.8741 -0.6716 -0.1519
    2MOL   H297 1079   7.920   1.935   5.399  0.6637 -1.6075 -2.2698
    2MOL   H298 1080   7.886   1.845   5.151 -0.2308  1.8974 -2.2321
    2MOL   H299 1081   7.715   1.823   5.207 -1.5959  2.6766  1.8598
    2MOL   H300 1082   7.855   2.081   5.166  1.0532 -1.9042  1.1466
    2MOL   H301 1083   7.740   2.127   4.973  2.2869 -0.0881  0.6268
    2MOL   H302 1084   7.818   1.971   4.951 -0.0825 -1.7292  1.0691
    2MOL   H303 1085   7.603   2.171   5.192  0.5910 -0.1038 -1.5508
    2MOL   H304 1086   7.557   2.007   5.230  0.3696  0.8336 -0.1146
    2MOL   H305 1087   7.600   2.155   5.428 -0.0381 -0.1307  0.3680
    2MOL   H306 1088   7.774   2.145   5.386  0.1879 -0.3873  1.1884
    2MOL   H307 1089   7.626   1.888   5.440  1.2323 -0.9173  1.1212
    2MOL   H308 1090   7.771   1.890   5.623  3.0697  0.3836 -1.7564
    2MOL   H309 1091   7.835   2.042   5.597  0.4086 -0.3728  0.9936
    2MOL   H310 1092   7.388   2.065   5.639  0.9363 -1.4679  0.1776
    2MOL   H311 1093   7.176   2.137   5.715  1.7232 -1.0364 -0.5162
    2MOL   H312 1094   7.358   2.388   6.017  0.1467 -1.7472  0.2325
    2MOL   H313 1095   7.579   2.298   5.948  1.0045  1.0088 -1.4348
    2MOL   C314 1096   6.687   2.775   5.900  0.6862  0.3209  0.5186
    2MOL   C315 1097   6.787   2.657   5.889 -0.1689  0.1272 -0.1394
    2MOL   C316 1098   6.739   2.555   5.787 -0.0176  0.6272 -0.1041
    2MOL   C317 1099   6.843   2.440   5.774 -0.1811 -0.4154  0.5182
    2MOL   O318 1100   6.888   2.381   5.892 -0.7108  0.1404 -0.5357
    2MOL   C319 1101   6.600   2.508   5.827 -0.5193  0.3959  0.5536
    2MOL   C320 1102   6.501   2.618   5.850 -0.4927  0.3438  0.4852
    2MOL   C321 1103   6.550   2.729   5.946  0.2120 -1.4342 -0.3172
    2MOL   C322 1104   6.452   2.846   5.944 -0.5869 -0.0069 -0.3381
    2MOL   O323 1105   6.331   2.786   6.000 -0.4742  0.1735  0.0834
    2MOL   C324 1106   6.217   2.857   6.005 -0.5469 -0.1761  0.4013
    2MOL   O325 1107   6.211   2.977   5.980 -0.0449 -0.3447 -0.2877
    2MOL   C326 1108   6.100   2.774   6.042 -0.3523  0.6738 -0.1490
    2MOL   C327 1109   6.100   2.634   6.000 -0.1292  0.3301  0.4505
    2MOL   C328 1110   5.982   2.556   6.033  0.5028 -0.2080 -0.1994
    2MOL   C329 1111   5.882   2.607   6.119  0.2898 -0.1026  1.0974
    2MOL   C330 1112   5.770   2.520   6.165  0.3884  0.0499  0.4724
    2MOL   O331 1113   5.749   2.416   6.102 -0.1137 -0.1202 -0.4450
    2MOL   O332 1114   5.698   2.566   6.274 -0.6136 -0.0619  0.0962
    2MOL   C333 1115   5.889   2.744   6.163 -0.0568  0.1341  1.0159
    2MOL   C334 1116   5.996   2.824   6.117 -0.2275  0.6948  0.5748
    2MOL   H335 1117   6.721   2.853   5.968  0.2444  1.0516 -0.0849
    2MOL   H336 1118   6.673   2.829   5.806  0.0891  1.5625  1.3183
    2MOL   H337 1119   6.882   2.704   5.864  0.7012 -1.4289  0.1327
    2MOL   H338 1120   6.796   2.609   5.986  2.2358 -2.0560 -1.3673
    2MOL   H339 1121   6.737   2.612   5.694 -2.2701 -2.4839 -2.1034
    2MOL   H340 1122   6.797   2.352   5.729  2.6855 -2.3745  1.2133
    2MOL   H341 1123   6.928   2.482   5.719 -0.8342 -0.1691 -0.3154
    2MOL   H342 1124   6.580   2.428   5.756  0.1242  0.5406  0.2044
    2MOL   H343 1125   6.607   2.450   5.919  1.0862 -0.1257  0.1231
    2MOL   H344 1126   6.407   2.572   5.880  0.1400 -3.1553 -2.4493
    2MOL   H345 1127   6.481   2.672   5.758 -1.0770  1.3762  1.2180
    2MOL   H346 1128   6.556   2.693   6.048 -3.0020  0.6922  0.6899
    2MOL   H347 1129   6.490   2.919   6.015 -0.3005  0.0286 -0.5249
    2MOL   H348 1130   6.441   2.883   5.842 -1.0078  1.5718  0.2781
    2MOL   H349 1131   6.183   2.593   5.945  0.2675 -0.7899  1.8502
    2MOL   H350 1132   5.979   2.454   5.997 -0.4705 -1.2783  2.7558
    2MOL   H351 1133   5.805   2.776   6.223  0.7160 -1.5248  3.0595
    2MOL   H352 1134   6.005   2.928   6.144  1.0004  0.4981  0.9420
    2MOL   C353 1135   5.360   2.741   6.585 -0.1006 -0.2808 -0.3642
    2MOL   C354 1136   5.420   2.621   6.511  0.7011 -0.1726 -0.0721
    2MOL   C355 1137   5.428   2.642   6.357  0.1830  0.4146  0.6014
    2MOL   C356 1138   5.465   2.507   6.290 -0.5039 -0.3042  0.0333
    2MOL   O357 1139   5.593   2.470   6.337  0.0461 -0.6771  0.2196
    2MOL   C358 1140   5.302   2.689   6.295 -0.0827  0.1964  1.1831
    2MOL   C359 1141   5.235   2.797   6.381 -0.5703 -0.1189  0.8208
    2MOL   C360 1142   5.222   2.774   6.530  0.0142 -0.4934 -1.0148
    2MOL   C361 1143   5.160   2.892   6.605  0.0631  0.3630 -0.0270
    2MOL   O362 1144   5.140   2.864   6.744 -0.0487 -0.6539  0.3479
    2MOL   C363 1145   5.020   2.810   6.777  0.3115 -0.2660 -0.2386
    2MOL   O364 1146   4.932   2.776   6.695  0.1658  0.0297  0.2557
    2MOL   C365 1147   4.990   2.813   6.922  0.3419  0.1078 -0.7164
    2MOL   C366 1148   5.092   2.827   7.016 -0.1390 -0.6644  0.2151
    2MOL   C367 1149   5.059   2.827   7.155 -0.1134  0.4810  0.4512
    2MOL   C368 1150   4.925   2.791   7.193  0.1946 -0.4495  0.4160
    2MOL   C369 1151   4.899   2.780   7.338 -0.0562 -0.5157  0.0642
    2MOL   O370 1152   4.981   2.816   7.422 -0.1437  0.2325  0.1836
    2MOL   O371 1153   4.781   2.723   7.360  0.4164 -0.2520 -0.2396
    2MOL   C372 1154   4.824   2.791   7.096  0.3291 -0.0054  0.0870
    2MOL   C373 1155   4.855   2.801   6.961 -0.2102  0.1141  0.0709
    2MOL   H374 1156   5.358   2.738   6.694  0.9627  1.8203 -0.2589
    2MOL   H375 1157   5.415   2.834   6.572 -0.8063  0.0842 -0.7629
    2MOL   H376 1158   5.519   2.603   6.551  0.3291  0.6721  1.2448
    2MOL   H377 1159   5.369   2.527   6.530 -0.2011  0.3135 -0.0580
    2MOL   H378 1160   5.503   2.719   6.336 -0.3781  0.4215 -1.5545
    2MOL   H379 1161   5.398   2.427   6.320 -0.9680  0.5753  1.3946
    2MOL   H380 1162   5.479   2.522   6.183  0.7179 -0.0814  0.2075
    2MOL   H381 1163   5.333   2.719   6.195 -1.6816 -2.4757 -0.1501
    2MOL   H382 1164   5.236   2.606   6.270  1.2310 -0.0754 -1.5412
    2MOL   H383 1165   5.137   2.819   6.336 -1.2995 -3.3318  0.7164
    2MOL   H384 1166   5.285   2.893   6.367 -0.1682 -0.4717 -0.2043
    2MOL   H385 1167   5.163   2.683   6.543  1.8378 -1.6217 -0.3615
    2MOL   H386 1168   5.229   2.976   6.594  0.4281 -0.0150 -0.6243
    2MOL   H387 1169   5.073   2.924   6.549 -1.6198 -3.5335  0.2047
    2MOL   H388 1170   5.194   2.832   6.982  0.8574 -0.6677  3.1254
    2MOL   H389 1171   5.140   2.833   7.227  1.4797 -0.7354 -1.2033
    2MOL   H390 1172   4.720   2.767   7.117 -0.2627  0.9402 -1.6615
    2MOL   H391 1173   4.775   2.806   6.888  0.4198 -1.5169 -0.7426
    2MOL   C392 1174   4.407   2.314   7.511 -0.0940  0.0101 -0.1851
    2MOL   C393 1175   4.559   2.347   7.506  0.5065 -0.3539 -0.2715
    2MOL   C394 1176   4.581   2.506   7.514 -0.0179 -0.2861 -0.2024
    2MOL   C395 1177   4.734   2.542   7.501 -0.3529  0.1417  0.2572
    2MOL   O396 1178   4.756   2.678   7.496 -0.1797  0.0028 -0.2932
    2MOL   C397 1179   4.508   2.571   7.399 -0.2513 -0.3666 -0.1502
    2MOL   C398 1180   4.358   2.539   7.387  0.0800  0.4657  0.7542
    2MOL   C399 1181   4.329   2.377   7.399 -0.3418 -0.1975 -1.4601
    2MOL   C400 1182   4.178   2.348   7.402 -0.1602 -0.1818 -0.2802
    2MOL   O401 1183   4.109   2.395   7.289 -0.5413 -0.0739  0.5444
    2MOL   C402 1184   4.101   2.324   7.178  0.0041 -0.6120  0.0818
    2MOL   O403 1185   4.159   2.214   7.157  0.5786 -0.4532  0.1916
    2MOL   C404 1186   4.021   2.400   7.075  0.0606  0.0395  0.2295
    2MOL   C405 1187   3.997   2.335   6.956 -0.4194 -0.5367  0.8198
    2MOL   C406 1188   3.913   2.394   6.860 -0.6180 -0.3175 -0.4492
    2MOL   C407 1189   3.859   2.523   6.874  0.3040  0.4160 -0.1524
    2MOL   C408 1190   3.773   2.586   6.778  0.4656  0.6131 -0.7137
    2MOL   O409 1191   3.726   2.524   6.685  0.0009 -0.8698  0.4026
    2MOL   O410 1192   3.726   2.708   6.809 -0.4859  0.1390 -0.4722
    2MOL   C411 1193   3.880   2.583   7.004  0.4005  0.0411  0.9729
    2MOL   C412 1194   3.962   2.525   7.097 -0.4648  0.3490 -0.2649
    2MOL   H413 1195   4.398   2.205   7.510  0.6934 -0.1069 -4.2636
    2MOL   H414 1196   4.364   2.354   7.603 -0.2473  2.2902 -1.2289
    2MOL   H415 1197   4.616   2.299   7.586 -1.5088  0.1074  1.4822
    2MOL   H416 1198   4.598   2.316   7.409 -1.2458 -1.0469 -0.7760
    2MOL   H417 1199   4.536   2.551   7.602  1.5747 -1.3908  1.2071
    2MOL   H418 1200   4.785   2.504   7.589  2.4873 -0.5169 -1.5992
    2MOL   H419 1201   4.784   2.500   7.413 -1.5137  1.0357 -0.8529
    2MOL   H420 1202   4.505   2.679   7.412 -3.0003 -0.3821 -0.2650
    2MOL   H421 1203   4.564   2.546   7.309  1.4894 -1.2289  1.1404
    2MOL   H422 1204   4.316   2.576   7.294 -2.9199 -2.6130  0.7830
    2MOL   H423 1205   4.304   2.591   7.466 -0.4210  0.0100  0.7185
    2MOL   H424 1206   4.374   2.336   7.308 -0.4648  2.0434 -2.5693
    2MOL   H425 1207   4.155   2.242   7.403  0.4844 -0.3522 -1.9312
    2MOL   H426 1208   4.120   2.389   7.485  3.5682  1.1998  1.7548
    2MOL   H427 1209   4.039   2.236   6.945  1.4040  0.2928  0.2020
    2MOL   H428 1210   3.887   2.341   6.770 -0.8679 -1.6439  0.3951
    2MOL   H429 1211   3.844   2.682   7.026  1.8685  0.7974  0.0322
    2MOL   H430 1212   3.984   2.593   7.178  1.3907  0.9662 -1.2607
    2MOL   C431 1213   3.262   3.035   6.524 -0.4073 -0.2889  0.2262
    2MOL   C432 1214   3.315   2.928   6.625  0.1876  0.3695  0.3800
    2MOL   C433 1215   3.469   2.903   6.606 -0.1366 -0.1646  0.2254
    2MOL   C434 1216   3.524   2.803   6.706  0.5745  0.1283 -0.2561
    2MOL   O435 1217   3.660   2.788   6.690 -0.3871 -0.3447 -0.2553
    2MOL   C436 1218   3.490   2.864   6.463 -0.3411  0.3449 -0.1455
    2MOL   C437 1219   3.448   2.972   6.368  0.5097  0.1367 -0.0056
    2MOL   C438 1220   3.293   2.997   6.375  0.4739  0.4028  0.6705
    2MOL   C439 1221   3.231   3.108   6.284 -0.2510  0.2311 -0.8269
    2MOL   O440 1222   3.262   3.086   6.143 -0.0305 -0.3345  0.0683
    2MOL   C441 1223   3.226   3.179   6.058 -0.7222 -0.2365  0.7684
    2MOL   O442 1224   3.150   3.271   6.087 -0.0118  0.1669 -0.0643
    2MOL   C443 1225   3.284   3.167   5.925 -0.0460  0.3727  0.5852
    2MOL   C444 1226   3.361   3.054   5.877  0.0731 -0.0611  0.0396
    2MOL   C445 1227   3.406   3.045   5.742  0.1561  0.4229  0.4242
    2MOL   C446 1228   3.380   3.159   5.658  0.1328 -0.1236 -0.0569
    2MOL   C447 1229   3.436   3.158   5.516 -0.1337  0.1328  0.2627
    2MOL   O448 1230   3.521   3.076   5.472  0.6816 -0.3849 -0.6799
    2MOL   O449 1231   3.367   3.236   5.437 -0.7269 -0.1241  0.2991
    2MOL   C450 1232   3.309   3.273   5.706 -0.5923 -1.1580 -0.0758
    2MOL   C451 1233   3.262   3.273   5.838 -0.6515 -0.1770  0.4089
    2MOL   H452 1234   3.155   3.046   6.541 -0.5891  0.3705 -1.2736
    2MOL   H453 1235   3.305   3.135   6.539 -0.5703 -0.2447  0.3919
    2MOL   H454 1236   3.301   2.976   6.722  1.0600  0.6475  0.3780
    2MOL   H455 1237   3.250   2.841   6.620 -0.3073  0.7612 -0.0361
    2MOL   H456 1238   3.524   2.995   6.625 -1.8563  0.8488  0.4093
    2MOL   H457 1239   3.494   2.839   6.805  0.4131 -0.4479 -0.0934
    2MOL   H458 1240   3.467   2.710   6.694 -2.8209  1.7846  2.0454
    2MOL   H459 1241   3.597   2.853   6.449 -0.2676  0.3360  0.4079
    2MOL   H460 1242   3.454   2.763   6.440  0.9560  0.0762 -1.0488
    2MOL   H461 1243   3.453   2.943   6.263 -0.0578 -1.7317  0.4625
    2MOL   H462 1244   3.507   3.061   6.386  0.7391  0.0797 -0.4759
    2MOL   H463 1245   3.243   2.905   6.344  1.1091 -0.0184  0.9001
    2MOL   H464 1246   3.123   3.100   6.294  0.1084 -3.1261  1.1915
    2MOL   H465 1247   3.260   3.208   6.317 -2.5246  0.6888 -0.1814
    2MOL   H466 1248   3.382   2.980   5.952  1.1990  1.2159  1.0173
    2MOL   H467 1249   3.465   2.965   5.698  0.8463  2.3604 -2.3405
    2MOL   H468 1250   3.293   3.362   5.646  1.0056 -0.6967  0.1649
    2MOL   H469 1251   3.194   3.352   5.870  0.0211  0.6505 -0.1855
    2MOL   C470 1252   3.433   3.551   4.921 -0.8021 -0.4823 -0.3162
    2MOL   C471 1253   3.457   3.545   5.072 -0.0033  0.6359  0.3650
    2MOL   C472 1254   3.404   3.414   5.125 -0.6912 -0.0548  0.1785
    2MOL   C473 1255   3.444   3.388   5.269 -0.1099  0.3270  0.1062
    2MOL   O474 1256   3.424   3.254   5.299  0.4337  0.8253  0.1310
    2MOL   C475 1257   3.252   3.406   5.100  0.1317  0.1020 -0.1614
    2MOL   C476 1258   3.217   3.416   4.953  0.4893 -0.4784  0.1275
    2MOL   C477 1259   3.288   3.537   4.878  0.4734 -0.2940  0.0364
    2MOL   C478 1260   3.273   3.525   4.725  0.1674 -0.2883  0.0845
    2MOL   O479 1261   3.317   3.399   4.685  0.1148 -0.2171  0.5465
    2MOL   C480 1262   3.427   3.401   4.601 -0.0341  0.0925 -0.1751
    2MOL   O481 1263   3.484   3.500   4.560 -0.2602 -0.8605 -0.1028
    2MOL   C482 1264   3.474   3.264   4.561 -0.3428 -0.2729  0.1301
    2MOL   C483 1265   3.422   3.147   4.615 -0.4829  0.4001  0.0576
    2MOL   C484 1266   3.474   3.020   4.584  0.5222 -0.1978 -0.7839
    2MOL   C485 1267   3.571   3.009   4.483  0.4098 -0.7220 -0.0920
    2MOL   C486 1268   3.640   2.872   4.457  0.1145  0.1314 -1.0013
    2MOL   O487 1269   3.626   2.779   4.534  0.3511 -0.1278  0.0510
    2MOL   O488 1270   3.733   2.869   4.349 -0.0545 -0.0470  0.0159
    2MOL   C489 1271   3.621   3.128   4.428  0.6176  0.3271  0.2504
    2MOL   C490 1272   3.575   3.254   4.464 -0.1334 -0.7200  0.0227
    2MOL   H491 1273   3.485   3.643   4.891 -1.5002  0.4037  1.1205
    2MOL   H492 1274   3.490   3.466   4.883  0.5828  0.4129 -0.2925
    2MOL   H493 1275   3.563   3.543   5.100 -0.3393  1.7575  1.7681
    2MOL   H494 1276   3.424   3.628   5.134  1.1207  1.8514 -0.6228
    2MOL   H495 1277   3.450   3.338   5.060 -1.4205 -0.1867 -0.1880
    2MOL   H496 1278   3.550   3.411   5.281 -0.4340  1.7761  0.2447
    2MOL   H497 1279   3.384   3.441   5.344 -0.7407 -2.3368  1.5648
    2MOL   H498 1280   3.226   3.303   5.125 -1.6212 -0.0119 -2.2813
    2MOL   H499 1281   3.190   3.479   5.152 -1.1742 -0.6988 -0.5818
    2MOL   H500 1282   3.108   3.425   4.956  0.5915  1.0595 -0.4568
    2MOL   H501 1283   3.241   3.318   4.912 -0.9097 -0.5227 -0.5993
    2MOL   H502 1284   3.238   3.625   4.920 -0.0458 -0.3648 -0.4265
    2MOL   H503 1285   3.169   3.518   4.695  0.7302 -2.5240 -1.4686
    2MOL   H504 1286   3.315   3.618   4.686 -0.4559 -0.1771 -0.3301
    2MOL   H505 1287   3.337   3.146   4.682 -1.0805  0.0124 -0.6874
    2MOL   H506 1288   3.451   2.933   4.644  1.1288 -0.8575 -1.5082
    2MOL   H507 1289   3.697   3.116   4.352 -0.7282 -0.8044 -0.9469
    2MOL   H508 1290   3.622   3.339   4.416 -0.7087 -0.3572  0.1053
    2MOL   C509 1291   3.901   2.363   4.042 -0.5723  0.1462  0.0170
    2MOL   C510 1292   3.817   2.488   4.082 -0.2715 -0.1798 -0.7728
    2MOL   C511 1293   3.850   2.539   4.219  0.2397 -0.5314 -0.6112
    2MOL   C512 1294   3.756   2.651   4.256  0.6977  0.2423 -0.5405
    2MOL   O513 1295   3.821   2.741   4.347  0.9265  0.0718  0.3228
    2MOL   C514 1296   3.840   2.422   4.322  0.0264  0.3394  0.2804
    2MOL   C515 1297   3.933   2.304   4.280 -0.0314 -0.0639  0.2824
    2MOL   C516 1298   3.894   2.250   4.144  0.3734 -0.0385  0.3629
    2MOL   C517 1299   3.980   2.131   4.097 -0.1051  0.6067  0.3055
    2MOL   O518 1300   3.974   2.032   4.197 -0.3533  0.5808 -0.2209
    2MOL   C519 1301   3.938   1.910   4.158  0.5627  0.5893  0.1911
    2MOL   O520 1302   3.884   1.889   4.050  0.1402 -0.6882 -0.5532
    2MOL   C521 1303   3.971   1.798   4.252  0.5323 -0.6100  0.0038
    2MOL   C522 1304   3.917   1.671   4.239 -0.1656 -0.3943  0.9731
    2MOL   C523 1305   3.969   1.563   4.311 -0.1304  0.0178 -0.4025
    2MOL   C524 1306   4.078   1.588   4.395  0.2144  0.2268  0.7759
    2MOL   C525 1307   4.137   1.480   4.473  0.3186 -0.1503 -0.3569
    2MOL   O526 1308   4.063   1.386   4.520  0.5214  0.0731  0.1675
    2MOL   O527 1309   4.271   1.482   4.487  0.1568  0.4776 -0.2955
    2MOL   C528 1310   4.125   1.716   4.421 -0.6069 -0.3523 -0.2258
    2MOL   C529 1311   4.072   1.825   4.351 -0.3874  0.6389  0.4085
    2MOL   H530 1312   3.859   2.319   3.952  0.2770  0.6248 -0.6115
    2MOL   H531 1313   4.000   2.394   4.008  0.0061  0.2120  1.7186
    2MOL   H532 1314   3.842   2.571   4.015 -0.6556  0.3265 -0.2961
    2MOL   H533 1315   3.712   2.462   4.084 -0.7088  1.4493  2.9053
    2MOL   H534 1316   3.950   2.581   4.225 -0.7199  1.5188  2.2491
    2MOL   H535 1317   3.731   2.711   4.169  0.6568 -1.0715 -1.4574
    2MOL   H536 1318   3.656   2.620   4.288  0.2444  3.5205  1.4569
    2MOL   H537 1319   3.856   2.450   4.426  0.1587  1.4066 -0.0151
    2MOL   H538 1320   3.734   2.394   4.321 -0.2822  1.4570 -0.1279
    2MOL   H539 1321   3.919   2.227   4.356 -0.9773  0.0381  0.2198
    2MOL   H540 1322   4.039   2.324   4.298  0.2241 -0.4973 -0.7278
    2MOL   H541 1323   3.791   2.214   4.148  0.0411  0.7957 -0.4405
    2MOL   H542 1324   3.955   2.104   3.994 -1.6946  2.3211  0.2225
    2MOL   H543 1325   4.082   2.171   4.096  0.7862 -1.5807  0.4250
    2MOL   H544 1326   3.832   1.650   4.176 -1.0724  3.5725  0.7535
    2MOL   H545 1327   3.924   1.466   4.299 -0.2637  0.1678 -1.1180
    2MOL   H546 1328   4.202   1.738   4.492  1.7033  1.5336 -3.1835
    2MOL   H547 1329   4.116   1.920   4.375 -1.6244  0.8583  1.9773
    2MOL   C548 1330   4.319   1.228   4.995  0.2760  0.1086  0.4957
    2MOL   C549 1331   4.294   1.305   4.869  0.5037  0.6098  0.5781
    2MOL   C550 1332   4.403   1.398   4.821 -0.0475  0.1783  0.2648
    2MOL   C551 1333   4.359   1.472   4.695  0.6892  0.1074  0.9542
    2MOL   O552 1334   4.317   1.389   4.589  0.1564  0.1326 -0.2574
    2MOL   C553 1335   4.442   1.486   4.940 -0.5546 -0.1440 -0.5685
    2MOL   C554 1336   4.478   1.400   5.064 -0.0759  0.8970 -0.1392
    2MOL   C555 1337   4.359   1.312   5.111  0.4660 -0.6306 -0.4529
    2MOL   C556 1338   4.387   1.217   5.235 -0.1040  0.2494 -0.0710
    2MOL   O557 1339   4.434   1.298   5.347 -0.6554  0.6876 -0.2157
    2MOL   C558 1340   4.540   1.246   5.419 -0.1766  0.3417  0.2376
    2MOL   O559 1341   4.585   1.134   5.410  0.1525 -0.3444 -0.6265
    2MOL   C560 1342   4.590   1.325   5.532  0.6330  0.0131  0.8280
    2MOL   C561 1343   4.710   1.289   5.594 -0.6885  0.2334 -0.8247
    2MOL   C562 1344   4.752   1.366   5.701 -0.9489  0.0411 -0.3069
    2MOL   C563 1345   4.681   1.480   5.749 -0.0825  0.0867  0.4076
    2MOL   C564 1346   4.730   1.561   5.865  0.1562  0.0131  0.3258
    2MOL   O565 1347   4.849   1.547   5.903 -0.0724  0.2624  0.0774
    2MOL   O566 1348   4.644   1.653   5.905  0.2165 -0.0324  0.0875
    2MOL   C567 1349   4.557   1.508   5.691  0.4998 -0.0580  0.1954
    2MOL   C568 1350   4.512   1.434   5.579  0.2098  0.4438  0.1035
    2MOL   H569 1351   4.246   1.154   5.027 -0.2648 -0.0846 -1.1151
    2MOL   H570 1352   4.407   1.173   4.961 -0.9802 -1.9089  0.3761
    2MOL   H571 1353   4.277   1.234   4.788  1.0717  0.1070  0.8970
    2MOL   H572 1354   4.202   1.363   4.874 -0.5230 -0.9125 -0.3060
    2MOL   H573 1355   4.496   1.345   4.798 -0.3448 -0.4713  0.5276
    2MOL   H574 1356   4.274   1.529   4.730  1.0594  0.7057  0.8750
    2MOL   H575 1357   4.436   1.545   4.669  0.6784  0.2780  1.4096
    2MOL   H576 1358   4.529   1.547   4.915 -0.7534 -0.1133 -1.1939
    2MOL   H577 1359   4.361   1.554   4.967 -0.6729 -0.6940  0.4814
    2MOL   H578 1360   4.493   1.478   5.138  2.2375  0.9776 -0.6744
    2MOL   H579 1361   4.566   1.338   5.047  0.6374  1.5574  1.1163
    2MOL   H580 1362   4.283   1.385   5.139 -0.6247 -2.0546  0.3258
    2MOL   H581 1363   4.298   1.169   5.277  0.6783  0.0398  1.3793
    2MOL   H582 1364   4.459   1.139   5.212  1.6279  2.2403 -1.6703
    2MOL   H583 1365   4.760   1.198   5.563 -1.3133  0.0422 -1.2640
    2MOL   H584 1366   4.850   1.355   5.746 -0.5763  0.9704 -0.8732
    2MOL   H585 1367   4.496   1.589   5.728 -0.0389  0.4865 -1.8340
    2MOL   H586 1368   4.415   1.462   5.540 -0.6338  0.9070  2.4671
    2MOL   C587 1369   5.022   2.037   6.084  0.2639 -0.2761 -0.4024
    2MOL   C588 1370   4.930   1.939   6.020  0.3159  0.0769 -0.0121
    2MOL   C589 1371   4.784   1.974   6.040 -0.4726  0.4957 -0.1308
    2MOL   C590 1372   4.700   1.879   5.962  0.0373  0.6984  0.3851
    2MOL   O591 1373   4.704   1.747   6.005 -0.6559  0.6293  0.1315
    2MOL   C592 1374   4.755   1.962   6.195 -0.6823  1.0093  0.2601
    2MOL   C593 1375   4.843   2.049   6.279 -0.2185 -0.5356 -0.0290
    2MOL   C594 1376   4.995   2.035   6.243  0.4315  0.3461  0.0470
    2MOL   C595 1377   5.084   2.136   6.315 -0.7127 -0.3349  0.0315
    2MOL   O596 1378   5.221   2.117   6.282 -0.4648  0.0046  0.0833
    2MOL   C597 1379   5.286   2.189   6.192 -0.1776 -0.6380  0.3605
    2MOL   O598 1380   5.237   2.286   6.132 -0.2848  0.6865 -1.0332
    2MOL   C599 1381   5.432   2.155   6.186  0.3050  0.0860 -0.0560
    2MOL   C600 1382   5.497   2.153   6.067 -0.0683  0.4025 -0.2984
    2MOL   C601 1383   5.636   2.138   6.057  0.5272  0.2976 -0.9466
    2MOL   C602 1384   5.710   2.118   6.182 -0.3785 -0.3183  0.0177
    2MOL   C603 1385   5.850   2.113   6.171 -0.8273  0.0320  0.2493
    2MOL   O604 1386   5.911   2.071   6.070 -0.1954  0.2836 -0.3628
    2MOL   O605 1387   5.905   2.159   6.278  0.5708  0.9283  0.4820
    2MOL   C606 1388   5.645   2.103   6.306  1.1068  0.5668 -0.0846
    2MOL   C607 1389   5.504   2.122   6.304  0.9487  0.6069 -0.3455
    2MOL   H608 1390   5.126   2.019   6.055  0.1068 -0.5039 -0.8267
    2MOL   H609 1391   5.004   2.135   6.041 -1.0899  0.1495  1.0755
    2MOL   H610 1392   4.948   1.939   5.912 -0.0952  3.2250 -0.1307
    2MOL   H611 1393   4.955   1.841   6.060 -1.7054  0.3304  2.0003
    2MOL   H612 1394   4.773   2.079   6.011 -1.2711  0.4465 -0.0192
    2MOL   H613 1395   4.600   1.921   5.953 -0.2476 -0.1144 -0.3412
    2MOL   H614 1396   4.735   1.873   5.859 -0.8797 -0.8401  0.1515
    2MOL   H615 1397   4.650   1.987   6.204 -1.2789 -1.2879 -0.0195
    2MOL   H616 1398   4.754   1.856   6.221  0.7857  0.8017 -0.4512
    2MOL   H617 1399   4.831   2.025   6.385 -1.6905 -2.3046 -0.5770
    2MOL   H618 1400   4.810   2.152   6.273  1.9886  0.0496 -4.3709
    2MOL   H619 1401   5.031   1.934   6.263  0.7415  0.8164  1.8923
    2MOL   H620 1402   5.058   2.238   6.288 -0.4006 -0.6529 -1.5165
    2MOL   H621 1403   5.078   2.141   6.424  0.3512  0.0602  0.0825
    2MOL   H622 1404   5.437   2.175   5.980  0.2308 -0.1708 -0.6549
    2MOL   H623 1405   5.686   2.156   5.963  0.7835  2.1632 -0.4871
    2MOL   H624 1406   5.700   2.076   6.395  0.3230  0.5454  0.4007
    2MOL   H625 1407   5.455   2.130   6.399  0.6221 -0.1079 -0.4517
    2MOL   C626 1408   6.459   2.211   6.347 -0.0750  0.5056  0.9769
    2MOL   C627 1409   6.311   2.222   6.359 -0.5167 -0.1132  0.6071
    2MOL   C628 1410   6.253   2.282   6.230  0.7624  0.2595 -0.1283
    2MOL   C629 1411   6.100   2.286   6.246  0.4774 -0.8658 -0.0262
    2MOL   O630 1412   6.054   2.154   6.271  0.2000  0.3389 -0.2602
    2MOL   C631 1413   6.306   2.430   6.212 -0.8210  0.0122  0.2672
    2MOL   C632 1414   6.463   2.423   6.213  0.1120 -0.5449 -0.0357
    2MOL   C633 1415   6.508   2.357   6.337  0.1974  0.3840  0.6963
    2MOL   C634 1416   6.664   2.358   6.337 -0.3091  0.2280 -0.8668
    2MOL   O635 1417   6.699   2.350   6.479  0.2000 -0.5623  0.0688
    2MOL   C636 1418   6.801   2.270   6.523  0.4294  0.2566 -0.0310
    2MOL   O637 1419   6.865   2.190   6.456 -0.4749  0.4306  0.5593
    2MOL   C638 1420   6.824   2.285   6.671 -0.3425 -0.3802  0.1065
    2MOL   C639 1421   6.955   2.275   6.723 -0.5567  0.7555 -0.4811
    2MOL   C640 1422   6.984   2.278   6.863 -0.0730  0.5237 -0.0210
    2MOL   C641 1423   6.875   2.281   6.952 -0.5000 -0.3832 -0.3163
    2MOL   C642 1424   6.892   2.274   7.102 -0.2957  0.1408  0.5835
    2MOL   O643 1425   6.804   2.307   7.181  0.0165  0.1648  0.2749
    2MOL   O644 1426   7.019   2.244   7.144  0.5783 -0.1957  0.0301
    2MOL   C645 1427   6.746   2.300   6.897 -0.0828  0.1812  0.5377
    2MOL   C646 1428   6.720   2.302   6.757 -0.6883 -0.3548  0.5057
    2MOL   H647 1429   6.508   2.158   6.428  0.0207 -0.2890  0.3999
    2MOL   H648 1430   6.488   2.158   6.256  0.7974  0.0636  1.5106
    2MOL   H649 1431   6.263   2.125   6.376 -0.5058 -0.2497 -0.1263
    2MOL   H650 1432   6.304   2.286   6.447  1.6500  0.2489  0.5438
    2MOL   H651 1433   6.272   2.220   6.142 -0.0405  1.5665 -1.2606
    2MOL   H652 1434   6.067   2.360   6.319  1.8920  0.5562 -0.7941
    2MOL   H653 1435   6.047   2.327   6.160 -1.0065  0.7872  1.6311
    2MOL   H654 1436   6.268   2.468   6.117 -0.1975 -0.3728 -0.1450
    2MOL   H655 1437   6.250   2.491   6.282  1.1523  0.9127  1.1099
    2MOL   H656 1438   6.504   2.524   6.204 -1.5602  0.0678 -1.0041
    2MOL   H657 1439   6.488   2.370   6.121 -0.7164 -1.1044  0.0579
    2MOL   H658 1440   6.471   2.414   6.422 -0.9496  1.3511 -0.4345
    2MOL   H659 1441   6.708   2.284   6.270 -0.7119 -0.9422  0.1524
    2MOL   H660 1442   6.718   2.445   6.299 -0.9505  0.6860 -0.7454
    2MOL   H661 1443   7.034   2.272   6.650 -0.3943 -4.5724 -0.2484
    2MOL   H662 1444   7.084   2.252   6.895 -0.0861  1.6339  0.9590
    2MOL   H663 1445   6.657   2.307   6.957 -0.4054  3.6083 -0.2295
    2MOL   H664 1446   6.624   2.277   6.713 -0.3077 -2.8332  0.9951
    2MOL   C665 1447   7.188   2.753   7.397  0.6941  0.5948 -0.5556
    2MOL   C666 1448   7.151   2.652   7.289 -0.3907 -0.0364  0.7600
    2MOL   C667 1449   7.204   2.512   7.309  0.4281  0.0820 -0.1579
    2MOL   C668 1450   7.174   2.414   7.200 -0.3228  0.0839 -0.6566
    2MOL   O669 1451   7.066   2.334   7.254  0.3770 -0.7976  0.5575
    2MOL   C670 1452   7.361   2.529   7.326  0.5109 -0.4587  0.3784
    2MOL   C671 1453   7.398   2.639   7.431 -0.0740  0.5692 -0.0754
    2MOL   C672 1454   7.340   2.775   7.395  0.7050 -0.0936 -0.6863
    2MOL   C673 1455   7.372   2.893   7.497  0.0833 -0.2469  0.3006
    2MOL   O674 1456   7.329   3.015   7.444 -0.1237  0.3822  0.2777
    2MOL   C675 1457   7.379   3.130   7.494 -0.3416  0.3132 -0.2626
    2MOL   O676 1458   7.448   3.128   7.594 -0.5282 -0.2353  0.1100
    2MOL   C677 1459   7.361   3.244   7.406  0.2509  0.6409  0.1809
    2MOL   C678 1460   7.276   3.242   7.298  0.8238  0.3679 -0.1944
    2MOL   C679 1461   7.253   3.350   7.216  0.0206  0.1390  0.4713
    2MOL   C680 1462   7.308   3.475   7.250  0.4441 -0.5316  0.3042
    2MOL   C681 1463   7.276   3.599   7.189 -0.8091 -0.0757  1.0670
    2MOL   O682 1464   7.294   3.706   7.241  0.5584 -0.2203 -0.0818
    2MOL   O683 1465   7.249   3.580   7.059  0.1052 -0.2699  0.0722
    2MOL   C684 1466   7.397   3.484   7.365  0.4959  0.2859 -0.2546
    2MOL   C685 1467   7.415   3.368   7.444  0.4914 -0.2790  0.2323
    2MOL   H686 1468   7.137   2.849   7.387  0.4192  0.5446  0.3313
    2MOL   H687 1469   7.166   2.708   7.494  0.6608  0.9897 -0.3799
    2MOL   H688 1470   7.043   2.638   7.293 -0.3103 -0.6563  0.8635
    2MOL   H689 1471   7.185   2.686   7.191 -0.7025  2.8356  1.5872
    2MOL   H690 1472   7.161   2.464   7.397 -1.8054  0.6884 -0.8841
    2MOL   H691 1473   7.157   2.461   7.103  1.1392  0.9782 -0.4810
    2MOL   H692 1474   7.252   2.339   7.188 -2.4968 -2.2660 -0.6968
    2MOL   H693 1475   7.415   2.439   7.353  1.5318  0.2709  0.8222
    2MOL   H694 1476   7.392   2.564   7.228  1.6298 -0.3443  0.7697
    2MOL   H695 1477   7.505   2.660   7.432  0.0554 -0.0803  0.1457
    2MOL   H696 1478   7.372   2.631   7.537 -0.8759  1.2567 -0.2152
    2MOL   H697 1479   7.378   2.818   7.302 -0.5596  1.1145 -0.6616
    2MOL   H698 1480   7.320   2.882   7.593 -0.1439 -1.5998  0.0318
    2MOL   H699 1481   7.479   2.897   7.519  0.2517 -1.1462 -0.3346
    2MOL   H700 1482   7.227   3.150   7.271 -0.8541  1.1813  0.0286
    2MOL   H701 1483   7.193   3.344   7.127  1.3337  1.9199 -0.5674
    2MOL   H702 1484   7.446   3.576   7.395 -0.1896  0.7681 -0.6189
    2MOL   H703 1485   7.484   3.367   7.528  1.5963 -2.2740 -0.6456
    2MOL   C704 1486   7.332   4.033   6.679 -1.0007  0.0628 -0.0799
    2MOL   C705 1487   7.323   3.896   6.732 -0.0459 -1.2923  0.5875
    2MOL   C706 1488   7.382   3.878   6.878 -0.0247 -0.2267  0.0069
    2MOL   C707 1489   7.373   3.733   6.929  0.0882  0.0178 -0.5895
    2MOL   O708 1490   7.249   3.708   6.979  0.2900 -0.0966 -0.0942
    2MOL   C709 1491   7.532   3.923   6.875 -0.3552 -0.0526  0.3313
    2MOL   C710 1492   7.543   4.066   6.817  0.2724 -0.1340 -0.4039
    2MOL   C711 1493   7.477   4.071   6.674  0.3098 -0.4502 -0.2017
    2MOL   C712 1494   7.490   4.198   6.602  0.7659 -0.5699  0.4280
    2MOL   O713 1495   7.621   4.237   6.551 -0.2769  0.0698  0.2253
    2MOL   C714 1496   7.627   4.296   6.418 -0.3741  0.2755 -0.3613
    2MOL   O715 1497   7.534   4.301   6.343  0.2108 -0.2572  0.5042
    2MOL   C716 1498   7.761   4.353   6.388 -0.7008  0.4307 -0.5729
    2MOL   C717 1499   7.868   4.364   6.482 -0.3585  0.1177  0.4160
    2MOL   C718 1500   7.992   4.428   6.451  0.1318  0.4484  0.6542
    2MOL   C719 1501   8.019   4.480   6.324 -0.5210 -0.2111 -0.1000
    2MOL   C720 1502   0.105   4.566   6.291 -0.1488 -0.8299 -0.5450
    2MOL   O721 1503   0.115   4.643   6.197  0.6623  0.3070  0.0540
    2MOL   O722 1504   0.198   4.554   6.389  0.0355 -0.9777 -0.8522
    2MOL   C723 1505   7.920   4.462   6.226  0.0737 -0.1927  0.8741
    2MOL   C724 1506   7.790   4.416   6.261  0.3874  0.8564  0.1620
    2MOL   H725 1507   7.304   4.022   6.575  0.0064  0.1947 -0.3766
    2MOL   H726 1508   7.259   4.101   6.723 -0.0862  0.4427  0.8945
    2MOL   H727 1509   7.216   3.872   6.730 -0.0639 -1.3870 -4.4161
    2MOL   H728 1510   7.369   3.816   6.674  1.5182  0.9410 -1.3306
    2MOL   H729 1511   7.330   3.947   6.945  1.6769  1.6146 -0.5208
    2MOL   H730 1512   7.406   3.659   6.856  0.5826 -0.2585 -0.0859
    2MOL   H731 1513   7.435   3.723   7.018  0.4844 -0.4033 -0.9082
    2MOL   H732 1514   7.578   3.924   6.974  0.4551 -2.3750  0.0224
    2MOL   H733 1515   7.588   3.844   6.825 -0.7260 -1.3780  1.9708
    2MOL   H734 1516   7.649   4.087   6.802  0.5006 -1.2839 -0.4629
    2MOL   H735 1517   7.503   4.141   6.885  2.2360  0.0107  0.6325
    2MOL   H736 1518   7.522   3.995   6.610  0.1979 -2.1101  1.6201
    2MOL   H737 1519   7.424   4.194   6.515  1.1369 -0.2545  0.1303
    2MOL   H738 1520   7.451   4.279   6.664  1.6632  1.2569 -1.3272
    2MOL   H739 1521   7.853   4.338   6.586 -0.0512 -0.8751  0.2184
    2MOL   H740 1522   0.013   4.456   6.539  0.7727 -0.5321  0.5610
    2MOL   H741 1523   7.933   4.502   6.127  3.1837  0.4511  1.4769
    2MOL   H742 1524   7.729   4.417   6.171  0.7798  0.0247 -0.1267
    2MOL   C743 1525   0.484   5.023   6.248 -0.7067 -0.2707  0.9512
    2MOL   C744 1526   0.417   4.878   6.247 -0.9239  0.5664 -0.9704
    2MOL   C745 1527   0.483   4.785   6.344 -0.6661 -0.7423  0.3839
    2MOL   C746 1528   0.405   4.649   6.337  0.3856  0.0758  0.0339
    2MOL   O747 1529   0.281   4.672   6.405  0.0135  0.1683 -0.3237
    2MOL   C748 1530   0.632   4.772   6.302  0.2147  0.7319  0.0781
    2MOL   C749 1531   0.706   4.910   6.286 -0.3281 -0.3483  0.0332
    2MOL   C750 1532   0.633   5.014   6.201  0.4175 -0.1334 -0.5590
    2MOL   C751 1533   0.713   5.143   6.184  0.3151  0.0898 -0.6590
    2MOL   O752 1534   0.622   5.236   6.112 -0.4665 -0.0913 -0.6367
    2MOL   C753 1535   0.657   5.306   6.001 -0.2043 -0.1417 -0.6496
    2MOL   O754 1536   0.771   5.307   5.950  0.4577  0.3622  0.1292
    2MOL   C755 1537   0.543   5.380   5.949 -0.0948  0.6146  0.0445
    2MOL   C756 1538   0.562   5.490   5.869 -0.0043 -0.1256  0.1610
    2MOL   C757 1539   0.456   5.563   5.813 -0.4335  0.5102 -0.4787
    2MOL   C758 1540   0.324   5.524   5.833  0.2243  0.1132 -0.3012
    2MOL   C759 1541   0.207   5.596   5.769  0.1330 -0.1251  0.0169
    2MOL   O760 1542   0.093   5.552   5.771 -0.1275  0.3109 -0.1458
    2MOL   O761 1543   0.240   5.720   5.718  0.6096  0.2917  0.2328
    2MOL   C762 1544   0.301   5.405   5.905  0.0604 -0.2325 -0.6707
    2MOL   C763 1545   0.411   5.338   5.969  0.0621 -0.0547 -0.0948
    2MOL   H764 1546   0.423   5.081   6.179 -1.1228  0.3463  1.8307
    2MOL   H765 1547   0.482   5.082   6.339  0.9581  2.7765 -0.8700
    2MOL   H766 1548   0.313   4.879   6.277 -0.3368 -1.7225  1.2490
    2MOL   H767 1549   0.425   4.830   6.150 -0.4836  1.6687 -1.4938
    2MOL   H768 1550   0.471   4.818   6.447  3.5585  0.4907  0.5470
    2MOL   H769 1551   0.393   4.611   6.235 -1.0582 -0.3987  0.3620
    2MOL   H770 1552   0.468   4.580   6.392  0.5361  0.7582  0.7172
    2MOL   H771 1553   0.675   4.708   6.379  0.9783  1.3839  0.1965
    2MOL   H772 1554   0.647   4.721   6.207 -0.1404  0.7385  0.0180
    2MOL   H773 1555   0.804   4.888   6.246 -0.8955  1.1929 -2.3098
    2MOL   H774 1556   0.725   4.944   6.388 -0.7093 -0.0393  0.0063
    2MOL   H775 1557   0.636   4.969   6.102 -0.2679  2.6979 -1.8961
    2MOL   H776 1558   0.746   5.179   6.281  0.0394 -3.0455  0.6517
    2MOL   H777 1559   0.797   5.115   6.121 -1.6774  0.3159 -3.5353
    2MOL   H778 1560   0.661   5.529   5.848  0.4991 -0.2562  2.1779
    2MOL   H779 1561   0.475   5.660   5.769 -1.8955  0.7447 -0.6115
    2MOL   H780 1562   0.202   5.362   5.913  1.7901 -4.1365  1.4617
    2MOL   H781 1563   0.396   5.245   6.024  1.7018 -0.2007  0.1498
    2MOL   H782 1564   0.158   5.757   5.689  1.8009  1.1542 -2.1432
    3MOL     C1 1565   3.892   7.819   2.370 -0.0771 -0.0345  0.6705
    3MOL     C2 1566   3.919   7.808   2.222 -0.3166  0.9401 -0.4127
    3MOL     C3 1567   4.055   7.864   2.171  0.0744  0.8307  0.3010
    3MOL     C4 1568   4.068   7.859   2.019  0.0303 -0.0300 -0.4637
    3MOL     O5 1569   4.209   7.873   1.988  0.4436 -0.0540  0.1954
    3MOL     C6 1570   4.069   8.006   2.224  0.0650  0.2171 -0.0267
    3MOL     C7 1571   4.049   8.022   2.375  0.8344 -0.0160 -0.3720
    3MOL     C8 1572   3.919   7.964   2.431 -0.0518 -0.0839  0.9092
    3MOL     C9 1573   3.913   7.970   2.582 -0.2754  0.4544  0.8849
    3MOL    O10 1574   3.998   7.862   2.628 -0.6876  0.0341 -0.2742
    3MOL    C11 1575   4.025   7.848   2.762 -0.0735  0.2402 -0.5974
    3MOL    O12 1576   3.969   7.915   2.846 -0.0577  0.3229 -0.7242
    3MOL    C13 1577   4.116   7.732   2.789  0.6295 -0.2287  0.3976
    3MOL    C14 1578   4.208   7.685   2.697 -0.1021 -0.0369 -0.0624
    3MOL    C15 1579   4.285   7.572   2.731 -0.4907 -0.6372  0.5572
    3MOL    C16 1580   4.276   7.522   2.862 -0.6559 -0.6113 -0.2920
    3MOL    C17 1581   4.380   7.419   2.891 -0.4987  0.2051  0.2568
    3MOL    O18 1582   4.472   7.386   2.816 -0.3567  0.2340  0.1354
    3MOL    O19 1583   4.358   7.357   3.006 -0.6478  0.4383  0.6601
    3MOL    C20 1584   4.188   7.568   2.954  0.2067  0.3458  0.5732
    3MOL    C21 1585   4.108   7.675   2.921  0.6531 -0.0970 -0.1585
    3MOL    H22 1586   3.791   7.798   2.406  1.1540  0.3539  4.5843
    3MOL    H23 1587   3.953   7.746   2.424  0.4935  0.5719  0.8527
    3MOL    H24 1588   3.899   7.705   2.196 -0.2311  0.6415  0.6922
    3MOL    H25 1589   3.847   7.877   2.177 -0.1691  0.9031 -0.7076
    3MOL    H26 1590   4.140   7.809   2.212 -0.9824 -2.1285 -1.3521
    3MOL    H27 1591   4.029   7.763   1.985 -0.1124 -1.2069  2.9043
    3MOL    H28 1592   4.005   7.932   1.969 -1.6288 -0.7015  0.6167
    3MOL    H29 1593   4.172   0.001   2.206  0.2053 -0.7555 -0.9097
    3MOL    H30 1594   4.005   0.039   2.169  1.6143  0.4228 -1.6102
    3MOL    H31 1595   4.075   0.087   2.409  2.0032 -0.3892 -0.1414
    3MOL    H32 1596   4.124   7.958   2.421  1.4633  1.7330  1.1403
    3MOL    H33 1597   3.846   0.001   2.395  1.5980  1.1748  0.0063
    3MOL    H34 1598   3.948   0.028   2.626 -1.6876  0.0306  2.9474
    3MOL    H35 1599   3.809   7.953   2.610 -0.5347 -2.1471 -1.4496
    3MOL    H36 1600   4.222   7.741   2.605  1.4352 -0.7663 -0.2732
    3MOL    H37 1601   4.362   7.546   2.659 -0.1804  0.8437  0.3301
    3MOL    H38 1602   4.182   7.521   3.051 -1.9819 -0.0853  0.2491
    3MOL    H39 1603   4.040   7.719   2.992  0.7351  0.9850 -0.7364
    3MOL    H40 1604   4.229   7.877   1.895 -1.4205  0.3155 -0.1991
    3MOL    C41 1605   4.859   7.200   2.905 -0.3821  0.2111  0.2224
    3MOL    C42 1606   4.708   7.210   2.917  0.2541  0.3604 -0.9045
    3MOL    C43 1607   4.658   7.142   3.040  0.4132  0.4143  0.1533
    3MOL    C44 1608   4.504   7.164   3.042 -0.2035 -0.5051  0.1508
    3MOL    O45 1609   4.483   7.302   3.069 -0.7158  0.0470  0.0402
    3MOL    C46 1610   4.689   6.991   3.033 -0.0804  0.2899 -0.1951
    3MOL    C47 1611   4.843   6.967   3.024  0.5570 -0.1424 -0.3894
    3MOL    C48 1612   4.912   7.045   2.912 -0.6113  0.7609  0.2667
    3MOL    C49 1613   5.066   7.036   2.910  1.0527  0.1741 -0.0770
    3MOL    O50 1614   5.139   7.097   3.024  0.8557 -0.3543 -0.3428
    3MOL    C51 1615   5.213   7.016   3.091 -0.1903 -0.4778 -0.4391
    3MOL    O52 1616   5.191   6.896   3.089  0.7034 -0.1922  0.2628
    3MOL    C53 1617   5.326   7.078   3.166 -0.8704  0.2623 -1.6065
    3MOL    C54 1618   5.351   7.217   3.166 -0.5959 -0.1419  0.9857
    3MOL    C55 1619   5.462   7.269   3.234 -0.3780  0.0247  0.6866
    3MOL    C56 1620   5.556   7.186   3.298  0.4131 -0.6735 -0.3180
    3MOL    C57 1621   5.672   7.249   3.369  0.1973  0.1692 -0.0245
    3MOL    O58 1622   5.706   7.364   3.357 -0.5692 -0.5788  0.2652
    3MOL    O59 1623   5.726   7.163   3.453  0.3103 -0.2998  0.0773
    3MOL    C60 1624   5.530   7.049   3.301 -0.0448  0.3190 -0.2417
    3MOL    C61 1625   5.413   6.993   3.240  0.1733 -0.6031  0.5442
    3MOL    H62 1626   4.880   7.248   2.809 -2.9053 -1.8142 -1.4258
    3MOL    H63 1627   4.906   7.252   2.988  0.8014 -0.7669  0.2003
    3MOL    H64 1628   4.694   7.318   2.920  2.8961  0.7010  0.9152
    3MOL    H65 1629   4.666   7.186   2.819 -1.5329  0.2396 -0.1270
    3MOL    H66 1630   4.702   7.187   3.128  2.6176 -0.1826 -0.6031
    3MOL    H67 1631   4.459   7.129   2.949  0.3624 -2.4274  0.5826
    3MOL    H68 1632   4.443   7.112   3.115 -1.1285 -0.2464 -0.4276
    3MOL    H69 1633   4.647   6.934   3.116  1.6882 -2.5354 -1.1328
    3MOL    H70 1634   4.648   6.945   2.943  1.2675 -0.3034 -0.5237
    3MOL    H71 1635   4.853   6.860   3.006  0.3772 -0.3766  0.8322
    3MOL    H72 1636   4.886   6.985   3.123 -1.2419 -0.4748  0.4843
    3MOL    H73 1637   4.879   7.004   2.817 -1.1577  0.5343  0.5500
    3MOL    H74 1638   5.091   6.932   2.889 -0.1156 -0.0615 -0.3426
    3MOL    H75 1639   5.086   7.087   2.816  0.3700 -4.1863 -2.7483
    3MOL    H76 1640   5.290   7.287   3.110  3.8086  1.3371 -2.2266
    3MOL    H77 1641   5.460   7.377   3.240 -1.9833  0.0058  0.6116
    3MOL    H78 1642   5.593   6.977   3.351 -2.4180 -1.6189  0.0147
    3MOL    H79 1643   5.392   6.887   3.246 -0.8447 -0.4273  0.1377
    3MOL    C80 1644   5.980   6.790   3.481 -0.0864  0.3050 -0.9356
    3MOL    C81 1645   5.931   6.925   3.443  1.1268  0.0932  0.2564
    3MOL    C82 1646   5.999   7.037   3.532 -0.5042  0.2501 -0.3541
    3MOL    C83 1647   5.957   7.181   3.495  0.1236 -0.6568 -0.0990
    3MOL    O84 1648   5.832   7.220   3.546 -0.0789  0.3759  0.1351
    3MOL    C85 1649   5.981   7.007   3.684 -0.1055 -0.5998 -0.1731
    3MOL    C86 1650   6.029   6.866   3.717 -0.1575 -0.1819 -0.4492
    3MOL    C87 1651   5.955   6.760   3.633 -0.7060 -0.0754 -0.1183
    3MOL    C88 1652   5.990   6.613   3.682  0.3146 -1.1775 -0.0506
    3MOL    O89 1653   5.910   6.522   3.607  0.5773  0.5047 -0.3455
    3MOL    C90 1654   5.955   6.469   3.499  0.0703 -0.3993 -0.0340
    3MOL    O91 1655   6.077   6.476   3.464 -0.0234  0.7588  0.1052
    3MOL    C92 1656   5.846   6.408   3.419 -0.4729  0.1740 -0.5475
    3MOL    C93 1657   5.882   6.348   3.303  0.0200 -0.3811  1.1878
    3MOL    C94 1658   5.781   6.295   3.224 -0.4996  0.3964 -0.3717
    3MOL    C95 1659   5.649   6.281   3.266  0.6504 -0.3970  0.2765
    3MOL    C96 1660   5.549   6.206   3.180  0.0516 -0.3627  0.0464
    3MOL    O97 1661   5.431   6.206   3.200 -0.4044 -0.1609  0.0582
    3MOL    O98 1662   5.606   6.148   3.076 -0.2011 -0.1105  0.4611
    3MOL    C99 1663   5.611   6.347   3.387  0.1341 -0.6274 -0.3127
    3MOL   C100 1664   5.712   6.405   3.464  0.3494  0.2922 -0.2609
    3MOL   H101 1665   5.923   6.716   3.425 -0.7549  0.4398 -0.4437
    3MOL   H102 1666   6.083   6.791   3.446 -0.0059 -0.5608 -0.7565
    3MOL   H103 1667   5.933   6.953   3.338  0.6998 -3.0864 -0.6408
    3MOL   H104 1668   5.822   6.922   3.451  1.2934 -0.0924  3.2025
    3MOL   H105 1669   6.106   7.041   3.512 -0.5615  0.3393 -0.6493
    3MOL   H106 1670   6.027   7.255   3.536  0.2988 -0.3215 -1.0033
    3MOL   H107 1671   5.967   7.202   3.389 -0.2539  1.9345  0.3336
    3MOL   H108 1672   6.025   7.088   3.743  1.7587 -0.3591 -1.8309
    3MOL   H109 1673   5.877   7.020   3.712  0.4461  0.6113  1.4324
    3MOL   H110 1674   6.002   6.839   3.819  2.9752  1.5118  0.9087
    3MOL   H111 1675   6.137   6.861   3.704  0.2506  1.4139  2.1100
    3MOL   H112 1676   5.851   6.782   3.657 -0.5734 -0.2647  0.6401
    3MOL   H113 1677   6.096   6.612   3.655  0.4379  0.5885  0.2981
    3MOL   H114 1678   5.982   6.597   3.790 -2.2184 -3.0016 -0.4578
    3MOL   H115 1679   5.982   6.354   3.264 -1.2954 -1.3917 -2.5864
    3MOL   H116 1680   5.808   6.252   3.129 -1.5353 -2.2797  0.4876
    3MOL   H117 1681   5.508   6.334   3.419  0.3116 -1.5630 -0.1009
    3MOL   H118 1682   5.680   6.440   3.561 -0.4579  1.2187 -0.8498
    3MOL   C119 1683   5.431   6.578   2.975 -0.2361 -0.4959 -0.7383
    3MOL   C120 1684   5.417   6.437   2.913  0.3024  0.5281  0.0793
    3MOL   C121 1685   5.561   6.382   2.900  0.1335  0.2447 -0.2732
    3MOL   C122 1686   5.564   6.233   2.858 -0.2481  0.2789  0.1100
    3MOL   O123 1687   5.517   6.147   2.960 -1.0128  0.1195  0.1582
    3MOL   C124 1688   5.641   6.467   2.801 -0.2983 -0.4780 -0.1115
    3MOL   C125 1689   5.647   6.617   2.843 -0.1139  0.5807 -0.4709
    3MOL   C126 1690   5.513   6.669   2.876 -0.0276  0.6968 -0.7758
    3MOL   C127 1691   5.511   6.805   2.943 -0.1545  0.0147 -0.1729
    3MOL   O128 1692   5.559   6.910   2.873 -0.4396 -0.2028 -0.0845
    3MOL   C129 1693   5.475   6.997   2.815  0.6588  0.1121  0.2287
    3MOL   O130 1694   5.356   6.972   2.799  0.0985  0.0998 -0.3109
    3MOL   C131 1695   5.535   7.126   2.780  0.3039 -0.3827 -0.5544
    3MOL   C132 1696   5.675   7.133   2.742  0.0822  0.6598  0.6561
    3MOL   C133 1697   5.732   7.262   2.725 -0.0571  0.3285  1.0727
    3MOL   C134 1698   5.657   7.382   2.737  0.1478 -0.1236 -0.4066
    3MOL   C135 1699   5.727   7.515   2.731 -0.1022  0.2920 -0.3794
    3MOL   O136 1700   5.835   7.528   2.674 -0.1927 -0.2368  0.2280
    3MOL   O137 1701   5.659   7.622   2.786 -0.4053 -0.6057  0.1678
    3MOL   C138 1702   5.517   7.375   2.769  1.3183  0.6561  0.0076
    3MOL   C139 1703   5.459   7.247   2.789 -0.2251 -0.5010 -0.4968
    3MOL   H140 1704   5.330   6.615   2.985  0.2276  0.5817  0.0337
    3MOL   H141 1705   5.476   6.581   3.075  0.2912 -2.0294 -0.9097
    3MOL   H142 1706   5.363   6.376   2.985 -0.6474  2.3263  0.9195
    3MOL   H143 1707   5.370   6.444   2.815  0.5670 -0.2235 -0.1059
    3MOL   H144 1708   5.607   6.406   2.996 -0.1422  0.4130 -0.1828
    3MOL   H145 1709   5.506   6.221   2.767 -0.6638  0.4662  0.3512
    3MOL   H146 1710   5.669   6.207   2.841  0.2058  3.2203 -1.9462
    3MOL   H147 1711   5.746   6.438   2.796  0.0394  0.5236  1.0299
    3MOL   H148 1712   5.600   6.462   2.700 -0.8015  1.9998 -0.0450
    3MOL   H149 1713   5.677   6.677   2.758 -1.7414  0.3224 -1.2411
    3MOL   H150 1714   5.716   6.634   2.926  0.6899 -0.8349 -0.8361
    3MOL   H151 1715   5.448   6.680   2.790  0.5619  0.9750 -1.1865
    3MOL   H152 1716   5.412   6.817   2.988 -0.8274 -0.2622 -1.5801
    3MOL   H153 1717   5.586   6.799   3.022  0.7245 -0.9643 -1.0852
    3MOL   H154 1718   5.750   7.056   2.735  0.3476  1.1048 -1.5810
    3MOL   H155 1719   5.836   7.276   2.701  0.4176  0.3118  3.0612
    3MOL   H156 1720   5.454   7.457   2.801 -0.3247 -1.8235  3.4188
    3MOL   H157 1721   5.355   7.230   2.816 -0.3178  0.5376 -0.1613
    3MOL   C158 1722   6.081   8.023   2.754 -0.1222  0.2624  0.7259
    3MOL   C159 1723   5.994   7.895   2.767 -0.3826  0.3432 -0.7631
    3MOL   C160 1724   5.891   7.912   2.867  0.3360 -0.1230 -0.1516
    3MOL   C161 1725   5.811   7.783   2.874 -0.4469  0.2406 -0.1747
    3MOL   O162 1726   5.728   7.759   2.763  0.1551  0.6238 -0.1928
    3MOL   C163 1727   5.948   7.945   3.012  0.6994 -0.3577 -0.4454
    3MOL   C164 1728   6.025   0.035   2.999  0.2403 -0.6365 -0.3629
    3MOL   C165 1729   6.137   0.022   2.892  0.2329 -0.4335  0.3972
    3MOL   C166 1730   6.232   0.144   2.885 -0.3091  0.2559  0.2561
    3MOL   O167 1731   6.317   0.145   3.002  0.4215  0.4328 -0.1840
    3MOL   C168 1732   6.446   0.118   2.995 -0.2888 -0.2559 -0.5485
    3MOL   O169 1733   6.498   0.104   2.884 -0.3324 -0.1211 -0.1981
    3MOL   C170 1734   6.512   0.096   3.129 -0.5038  0.5361  0.8268
    3MOL   C171 1735   6.455   0.129   3.256 -0.1519 -0.7028 -0.2927
    3MOL   C172 1736   6.535   0.099   3.372 -0.1583 -0.5549 -0.0378
    3MOL   C173 1737   6.659   0.036   3.366  0.2839  0.0702 -0.8051
    3MOL   C174 1738   6.735   0.004   3.490  0.0244 -0.2092 -0.2540
    3MOL   O175 1739   6.684   8.029   3.605 -0.2211 -0.4504 -0.1706
    3MOL   O176 1740   6.872   8.028   3.458 -0.6973  0.4420  0.2982
    3MOL   C177 1741   6.710   0.009   3.239  0.7845  0.2534  0.5256
    3MOL   C178 1742   6.634   0.033   3.123 -0.5387 -0.2298  0.1809
    3MOL   H179 1743   6.165   8.006   2.687 -0.1492  2.2834  0.1316
    3MOL   H180 1744   6.035   0.073   2.703  0.9583  0.6709  0.4259
    3MOL   H181 1745   5.935   7.868   2.679  2.1191  1.4929 -2.8405
    3MOL   H182 1746   6.057   7.807   2.780 -0.8281  0.1448  0.0531
    3MOL   H183 1747   5.817   7.981   2.827 -1.4792 -2.1313 -0.3560
    3MOL   H184 1748   5.872   7.693   2.890 -2.9515 -1.3462  0.6939
    3MOL   H185 1749   5.734   7.794   2.951  1.4227 -0.3776  1.8617
    3MOL   H186 1750   5.862   7.945   3.079  1.2539 -3.4973  0.3028
    3MOL   H187 1751   6.014   7.869   3.052 -2.1085 -3.1523 -0.9171
    3MOL   H188 1752   6.070   0.052   3.097 -1.4446  0.1978  0.2747
    3MOL   H189 1753   5.955   0.117   2.983 -0.0386 -0.8540 -0.2489
    3MOL   H190 1754   6.202   7.975   2.922  0.8184 -0.3842 -0.7035
    3MOL   H191 1755   6.288   0.133   2.793 -0.5455  1.1411  0.0064
    3MOL   H192 1756   6.171   0.234   2.886  1.5499  1.5430  1.3184
    3MOL   H193 1757   6.362   0.183   3.261  0.5049  0.3053  1.3426
    3MOL   H194 1758   6.499   0.123   3.471  0.5112 -0.7156  0.2485
    3MOL   H195 1759   6.807   8.000   3.224  1.2437  1.8095 -1.2375
    3MOL   H196 1760   6.680   0.025   3.025 -2.5416  1.8595 -0.9704
    3MOL   C197 1761   7.317   7.712   3.688  0.4802 -0.0726 -0.6138
    3MOL   C198 1762   7.195   7.772   3.608  0.4277 -0.3217 -0.0620
    3MOL   C199 1763   7.084   7.843   3.693 -0.0881 -0.0404 -0.0024
    3MOL   C200 1764   6.950   7.881   3.617  0.5528  0.6793  0.2547
    3MOL   O201 1765   6.966   8.010   3.581 -0.2047 -0.6455  0.8191
    3MOL   C202 1766   7.043   7.747   3.805 -0.7625 -0.0680 -0.0816
    3MOL   C203 1767   7.166   7.711   3.888  0.5342 -0.3674 -0.2468
    3MOL   C204 1768   7.263   7.630   3.803 -0.5825 -0.5021 -0.4451
    3MOL   C205 1769   7.374   7.570   3.886  0.1350 -0.5582  0.1697
    3MOL   O206 1770   7.318   7.505   3.997  0.4991  0.6418 -0.6720
    3MOL   C207 1771   7.398   7.429   4.075 -0.4387 -0.3297 -0.3687
    3MOL   O208 1772   7.519   7.412   4.048 -0.6433  0.2127 -0.6062
    3MOL   C209 1773   7.339   7.385   4.200  0.3408  0.0957  0.6499
    3MOL   C210 1774   7.199   7.395   4.219  0.2649  0.2541 -0.2597
    3MOL   C211 1775   7.140   7.380   4.348 -0.1451  0.2496 -0.3967
    3MOL   C212 1776   7.225   7.339   4.456  0.8187 -0.5021 -0.9770
    3MOL   C213 1777   7.172   7.308   4.596 -0.3909  0.0389  0.6290
    3MOL   O214 1778   7.059   7.344   4.631  0.0403  0.5831 -0.3406
    3MOL   O215 1779   7.259   7.236   4.675 -0.4631 -0.2365 -0.2977
    3MOL   C216 1780   7.360   7.311   4.427 -0.2390 -0.5131  0.2326
    3MOL   C217 1781   7.420   7.344   4.305  0.3341 -0.7212 -0.8976
    3MOL   H218 1782   7.383   7.654   3.624  0.4245  1.8908 -2.5032
    3MOL   H219 1783   7.388   7.781   3.733 -2.5891 -0.0502  4.6548
    3MOL   H220 1784   7.232   7.841   3.533  1.4962 -0.6135  0.1892
    3MOL   H221 1785   7.152   7.690   3.551  0.0886  0.6520 -1.2111
    3MOL   H222 1786   7.127   7.931   3.741  0.6271 -0.0851 -0.5549
    3MOL   H223 1787   6.934   7.810   3.536 -0.0674  0.8765  0.1999
    3MOL   H224 1788   6.867   7.874   3.687 -1.1797  0.5804 -1.7581
    3MOL   H225 1789   6.975   7.800   3.872  1.0809  0.0686  1.7454
    3MOL   H226 1790   6.994   7.663   3.758  0.3395 -0.0272 -1.3285
    3MOL   H227 1791   7.125   7.658   3.973 -0.3576  2.7009  1.3132
    3MOL   H228 1792   7.226   7.794   3.927  1.4417 -1.8368  1.5267
    3MOL   H229 1793   7.210   7.551   3.751 -1.0301  0.0229 -0.7923
    3MOL   H230 1794   7.435   7.497   3.833 -0.3038 -1.2670  0.6264
    3MOL   H231 1795   7.442   7.651   3.912 -0.3101  0.5858 -2.0881
    3MOL   H232 1796   7.138   7.433   4.139 -0.0861  0.2232 -0.0068
    3MOL   H233 1797   7.036   7.406   4.362  0.2121  0.4610  2.0003
    3MOL   H234 1798   7.427   7.278   4.504 -1.7737 -1.2660  1.2670
    3MOL   H235 1799   7.526   7.338   4.285  0.7003  0.8221  0.5392
    3MOL   C236 1800   7.282   7.074   5.210  0.1525 -0.1322  0.2810
    3MOL   C237 1801   7.291   7.127   5.062  0.2512 -0.3829  0.1459
    3MOL   C238 1802   7.218   7.265   5.048  0.5260  0.1923  0.2029
    3MOL   C239 1803   7.239   7.309   4.901 -0.0309 -0.1263  0.1351
    3MOL   O240 1804   7.203   7.205   4.813 -0.3738 -0.1609 -0.1947
    3MOL   C241 1805   7.071   7.265   5.097  0.4439  0.5344 -0.3668
    3MOL   C242 1806   7.064   7.210   5.241 -0.0185  0.0606  0.1704
    3MOL   C243 1807   7.135   7.073   5.265  0.3974 -0.3088 -0.1104
    3MOL   C244 1808   7.121   7.011   5.405 -0.1296  0.3922  0.0775
    3MOL   O245 1809   7.192   7.102   5.482 -0.0299  0.1812  0.2263
    3MOL   C246 1810   7.147   7.140   5.604  0.2553 -0.2239  0.0277
    3MOL   O247 1811   7.042   7.105   5.648  0.3278  0.2033  0.3275
    3MOL   C248 1812   7.233   7.233   5.676  0.4232 -0.6236 -0.4243
    3MOL   C249 1813   7.373   7.253   5.639 -0.4621 -0.5939  0.1749
    3MOL   C250 1814   7.446   7.352   5.706  0.3935  0.5377 -0.1714
    3MOL   C251 1815   7.390   7.428   5.807  0.1341 -0.2815 -0.5502
    3MOL   C252 1816   7.463   7.551   5.855 -0.2599 -0.2022  0.1888
    3MOL   O253 1817   7.562   7.602   5.804 -0.1101  0.4345 -0.5583
    3MOL   O254 1818   7.400   7.612   5.955 -0.0004 -0.1195  0.1956
    3MOL   C255 1819   7.257   7.409   5.845  0.0077  0.2960  0.2459
    3MOL   C256 1820   7.182   7.306   5.784  0.0187 -0.1325 -0.0152
    3MOL   H257 1821   7.344   6.986   5.220  2.5487  1.6308  1.3706
    3MOL   H258 1822   7.336   7.146   5.271  0.9858  0.1327 -0.7602
    3MOL   H259 1823   7.396   7.136   5.033  0.6179  2.7952  2.2154
    3MOL   H260 1824   7.240   7.053   5.000  0.0987  0.5533 -0.8625
    3MOL   H261 1825   7.272   7.339   5.108  0.2470  1.3059 -0.8924
    3MOL   H262 1826   7.175   7.395   4.882 -0.1781 -0.3299 -0.2969
    3MOL   H263 1827   7.344   7.335   4.887 -0.3878  0.8490 -0.8189
    3MOL   H264 1828   7.023   7.363   5.098 -1.7759 -0.5244 -1.0461
    3MOL   H265 1829   7.002   7.206   5.037 -0.4826  0.7603  0.4665
    3MOL   H266 1830   6.959   7.227   5.267 -0.2468  0.7724 -1.1126
    3MOL   H267 1831   7.106   7.289   5.303 -0.9515  0.9158 -0.2637
    3MOL   H268 1832   7.072   7.009   5.204 -0.9888 -0.1235  1.0980
    3MOL   H269 1833   7.023   6.982   5.441  0.2622 -0.6519  0.3294
    3MOL   H270 1834   7.188   6.925   5.403  0.8078  1.0564  2.0371
    3MOL   H271 1835   7.415   7.199   5.555 -0.8746  0.4471 -0.7179
    3MOL   H272 1836   7.548   7.360   5.671  1.1694 -2.8346  1.1050
    3MOL   H273 1837   7.202   7.468   5.917 -0.7526  0.9998 -0.9010
    3MOL   H274 1838   7.080   7.304   5.816  0.3243 -1.7204  0.8723
    3MOL   C275 1839   7.871   7.903   6.239 -0.0965 -0.1345 -0.0041
    3MOL   C276 1840   7.758   7.800   6.239  0.0918  0.2981 -0.1477
    3MOL   C277 1841   7.651   7.836   6.139  0.9460  0.5265 -0.5833
    3MOL   C278 1842   7.545   7.724   6.111 -0.4337 -0.3990  0.2801
    3MOL   O279 1843   7.466   7.738   5.991 -0.3994  0.1828 -0.1568
    3MOL   C280 1844   7.584   7.965   6.185 -0.1287  0.1695 -0.7126
    3MOL   C281 1845   7.691   0.038   6.190 -0.3593 -0.1776  0.3077
    3MOL   C282 1846   7.813   0.007   6.272  0.2909  0.0572  0.3734
    3MOL   C283 1847   7.916   0.124   6.248  0.2500 -0.3800  0.5015
    3MOL   O284 1848   7.893   0.235   6.335 -0.3363  0.1706  0.4180
    3MOL   C285 1849   7.944   0.235   6.465 -0.0430  0.3518  0.5903
    3MOL   O286 1850   8.001   0.133   6.510 -0.6630  0.1225  0.5250
    3MOL   C287 1851   7.911   0.358   6.544  0.6798  0.4384 -0.2686
    3MOL   C288 1852   7.816   0.450   6.500  1.0368 -0.3018 -0.1258
    3MOL   C289 1853   7.792   0.561   6.587 -0.2301  0.2434 -0.6969
    3MOL   C290 1854   7.874   0.576   6.706  0.5464  0.2768  0.1576
    3MOL   C291 1855   7.850   0.707   6.776 -0.7766 -0.0606  0.4385
    3MOL   O292 1856   7.787   0.796   6.728  0.2126 -0.0323  0.0952
    3MOL   O293 1857   7.914   0.718   6.900 -0.1047  0.1636  0.2003
    3MOL   C294 1858   7.964   0.478   6.750 -0.0956  0.0605  0.3549
    3MOL   C295 1859   7.984   0.374   6.661 -0.6818 -0.0337 -0.5290
    3MOL   H296 1860   7.943   7.878   6.317 -0.1135 -1.5014 -0.4023
    3MOL   H297 1861   7.928   7.915   6.147 -0.0432 -0.4429 -0.0125
    3MOL   H298 1862   7.801   7.700   6.232 -3.4744 -1.3342 -0.1132
    3MOL   H299 1863   7.716   7.785   6.338  1.8868 -3.2177  0.1595
    3MOL   H300 1864   7.689   7.852   6.039  2.8033 -0.9641 -0.1323
    3MOL   H301 1865   7.606   7.634   6.098 -0.0926 -0.1437  0.0951
    3MOL   H302 1866   7.484   7.715   6.201 -1.3374  0.0606 -0.2828
    3MOL   H303 1867   7.501   7.985   6.116  0.3933 -1.7603 -1.9345
    3MOL   H304 1868   7.537   7.940   6.281 -1.7632  0.4456 -1.4193
    3MOL   H305 1869   7.651   0.130   6.234  0.6125  0.4082 -0.0102
    3MOL   H306 1870   7.722   0.059   6.087  0.9719 -1.0067  0.5162
    3MOL   H307 1871   7.774   8.033   6.373  3.2898 -0.7609  1.5087
    3MOL   H308 1872   8.018   0.087   6.249  0.8169  1.1611  2.1777
    3MOL   H309 1873   7.912   0.157   6.144 -1.2587  1.5151  1.1425
    3MOL   H310 1874   7.756   0.437   6.412  0.7924  0.0114 -0.0065
    3MOL   H311 1875   7.714   0.631   6.559  1.0405  2.8406  2.0617
    3MOL   H312 1876   8.023   0.481   6.841  0.1688 -1.5294  0.2569
    3MOL   H313 1877   0.022   0.297   6.681  0.5653  1.0582 -0.8104
    3MOL   C314 1878   7.912   1.172   7.283 -0.0194  0.0402 -0.6773
    3MOL   C315 1879   7.946   1.048   7.207 -0.1489  0.1632  0.1347
    3MOL   C316 1880   7.960   1.071   7.049 -0.3961  0.0040 -0.1276
    3MOL   C317 1881   7.985   0.937   6.957  0.5412 -0.1661  0.3413
    3MOL   O318 1882   7.869   0.849   6.970  0.6376 -0.4582 -0.2250
    3MOL   C319 1883   7.841   1.156   6.999  1.2444  0.5228  0.4106
    3MOL   C320 1884   7.779   1.259   7.097 -0.1706 -0.1328  0.0455
    3MOL   C321 1885   7.779   1.215   7.248  0.4047  0.8323  0.7623
    3MOL   C322 1886   7.725   1.321   7.347  0.2871 -0.3917 -0.3822
    3MOL   O323 1887   7.585   1.343   7.322 -0.1506  0.1874 -0.2721
    3MOL   C324 1888   7.491   1.270   7.386 -0.8043 -0.0005 -0.0699
    3MOL   O325 1889   7.523   1.188   7.476 -0.0966 -0.4391 -0.0581
    3MOL   C326 1890   7.352   1.296   7.351 -0.2551  0.2630 -0.5978
    3MOL   C327 1891   7.255   1.246   7.442  0.8634 -0.7050 -0.5971
    3MOL   C328 1892   7.120   1.250   7.415  0.2591 -0.5243  0.1042
    3MOL   C329 1893   7.072   1.324   7.304 -0.3903  0.1015 -0.0411
    3MOL   C330 1894   6.924   1.336   7.282 -0.1222 -0.7558 -0.3419
    3MOL   O331 1895   6.870   1.422   7.221 -0.1567  0.6143  0.4272
    3MOL   O332 1896   6.857   1.242   7.357 -0.1285  0.5662 -0.6983
    3MOL   C333 1897   7.172   1.384   7.220  0.2299  0.2773 -0.1226
    3MOL   C334 1898   7.311   1.373   7.239 -0.0042  0.2118 -0.5040
    3MOL   H335 1899   7.916   1.142   7.388  2.4613  0.5468 -0.5953
    3MOL   H336 1900   7.997   1.237   7.264  2.5680 -3.2953 -1.0549
    3MOL   H337 1901   0.009   1.008   7.230 -0.2776 -1.1355 -1.4659
    3MOL   H338 1902   7.872   0.972   7.230  0.5044 -1.1311 -1.9219
    3MOL   H339 1903   0.017   1.128   7.046  0.0391 -0.6401  0.5615
    3MOL   H340 1904   7.987   0.969   6.853 -2.3771  4.1143  1.4398
    3MOL   H341 1905   0.043   0.894   6.993  1.3002  1.1599 -0.0166
    3MOL   H342 1906   7.855   1.203   6.902  2.6878 -0.1856  0.2593
    3MOL   H343 1907   7.760   1.084   6.983  0.2837  1.7225 -0.1865
    3MOL   H344 1908   7.682   1.300   7.073 -0.5587  0.8722  3.1069
    3MOL   H345 1909   7.839   1.346   7.071  0.4019 -0.5307  0.0098
    3MOL   H346 1910   7.716   1.127   7.262  0.7125  0.3354 -0.8274
    3MOL   H347 1911   7.748   1.287   7.448  2.2044  2.0081  0.0261
    3MOL   H348 1912   7.772   1.419   7.338 -2.2973  0.7360 -2.3863
    3MOL   H349 1913   7.294   1.185   7.522  0.6818 -0.6040 -0.4326
    3MOL   H350 1914   7.058   1.197   7.485 -1.6739 -0.2944 -1.3829
    3MOL   H351 1915   7.136   1.423   7.126 -0.1712 -1.4789 -0.7068
    3MOL   H352 1916   7.382   1.412   7.168  0.7174  0.7745  0.5000
    3MOL   C353 1917   6.828   0.726   7.362  0.0384  0.4626  0.0666
    3MOL   C354 1918   6.758   0.835   7.276  0.5170 -0.4700  0.4119
    3MOL   C355 1919   6.770   0.975   7.335 -0.5778  0.1729 -0.2764
    3MOL   C356 1920   6.706   1.090   7.256 -0.5424 -0.2641 -0.4018
    3MOL   O357 1921   6.716   1.215   7.316 -0.0829  0.5087 -0.7954
    3MOL   C358 1922   6.718   0.980   7.485 -0.0565  0.3501  0.1860
    3MOL   C359 1923   6.782   0.869   7.579  0.0648  0.7825 -0.2418
    3MOL   C360 1924   6.770   0.722   7.512  0.4721 -0.2519 -0.2805
    3MOL   C361 1925   6.862   0.622   7.583 -0.0163 -0.2076  0.8359
    3MOL   O362 1926   6.996   0.676   7.601  0.2219  0.3871  0.2710
    3MOL   C363 1927   7.094   0.598   7.641  0.6877 -0.1888  0.0602
    3MOL   O364 1928   7.070   0.478   7.664  0.4052  0.2622 -0.1227
    3MOL   C365 1929   7.234   0.659   7.647 -0.8456  0.7575  0.2605
    3MOL   C366 1930   7.272   0.777   7.582  0.7850 -0.0306  0.1219
    3MOL   C367 1931   7.401   0.826   7.601 -0.5472  0.2594  0.6596
    3MOL   C368 1932   7.495   0.763   7.683 -0.2545 -0.0822 -0.1118
    3MOL   C369 1933   7.638   0.799   7.689 -0.3308 -0.9154 -0.3033
    3MOL   O370 1934   7.717   0.755   7.776  0.1742  0.1813  0.0207
    3MOL   O371 1935   7.667   0.905   7.613  0.0464 -0.2011  0.0216
    3MOL   C372 1936   7.454   0.646   7.751  0.7514  0.7483 -0.6914
    3MOL   C373 1937   7.326   0.588   7.728 -0.1042 -0.2680 -0.6326
    3MOL   H374 1938   6.839   0.626   7.320  1.4030 -0.5248  2.6117
    3MOL   H375 1939   6.933   0.756   7.367  0.2131 -0.1846  0.3757
    3MOL   H376 1940   6.802   0.839   7.177 -2.3030  0.9657 -0.8460
    3MOL   H377 1941   6.650   0.821   7.267  0.7820 -2.8154  0.6282
    3MOL   H378 1942   6.879   0.986   7.338 -0.3919 -0.6847 -3.1033
    3MOL   H379 1943   6.758   1.115   7.163  0.4456 -1.1618 -0.1050
    3MOL   H380 1944   6.600   1.076   7.234 -0.5593  1.7707 -1.7974
    3MOL   H381 1945   6.743   1.079   7.522 -0.3624  1.0423 -1.4388
    3MOL   H382 1946   6.609   0.968   7.478 -0.3108  2.8440 -0.3361
    3MOL   H383 1947   6.739   0.864   7.680 -1.8127 -0.7434 -1.0611
    3MOL   H384 1948   6.886   0.898   7.587  0.1755  0.3255  0.0210
    3MOL   H385 1949   6.670   0.681   7.509 -0.9340  3.1011 -1.7044
    3MOL   H386 1950   6.801   0.608   7.672 -0.1080 -3.1471  0.3398
    3MOL   H387 1951   6.859   0.531   7.524  0.6431 -1.2214  2.3529
    3MOL   H388 1952   7.208   0.833   7.515  2.6601  2.5648  0.4412
    3MOL   H389 1953   7.436   0.906   7.537 -2.0804 -0.5393 -1.2293
    3MOL   H390 1954   7.517   0.596   7.823  0.1331  0.4846 -0.3266
    3MOL   H391 1955   7.306   0.495   7.779 -0.9504 -0.1997 -0.8408
    3MOL   C392 1956   7.510   1.166   7.967  1.1864 -0.8935  0.1980
    3MOL   C393 1957   7.580   1.123   7.835 -0.3619 -0.6982  0.1960
    3MOL   C394 1958   7.728   1.108   7.841  0.0015  0.6990 -0.4107
    3MOL   C395 1959   7.789   1.093   7.701 -0.4718  0.8492  0.1539
    3MOL   O396 1960   7.804   0.962   7.653 -0.3534  0.0710  0.3613
    3MOL   C397 1961   7.799   1.225   7.920 -0.0071 -0.2403  0.0823
    3MOL   C398 1962   7.727   1.250   0.010  0.2763 -0.3892  0.3282
    3MOL   C399 1963   7.580   1.292   8.027  0.6999  0.3379  0.8064
    3MOL   C400 1964   7.512   1.328   0.131 -0.6115 -0.5350 -0.3088
    3MOL   O401 1965   7.370   1.344   0.131  0.0347  0.0637  0.6101
    3MOL   C402 1966   7.313   1.452   0.070  0.0292 -0.6721  0.1638
    3MOL   O403 1967   7.374   1.562   0.053  0.0351 -0.3413 -0.4461
    3MOL   C404 1968   7.166   1.452   0.056 -0.3287 -0.0750 -0.1715
    3MOL   C405 1969   7.098   1.573   0.032  0.4650 -0.2324  0.4144
    3MOL   C406 1970   6.956   1.573   0.017 -0.4246  0.2742  0.0647
    3MOL   C407 1971   6.882   1.450   0.026 -0.7638  0.1611  0.3140
    3MOL   C408 1972   6.732   1.447   0.005  0.0683  0.3422 -0.0285
    3MOL   O409 1973   6.670   1.347   0.019  0.1896  0.3297 -0.5515
    3MOL   O410 1974   6.686   1.566   7.994  0.1610  0.0025  0.1564
    3MOL   C411 1975   6.952   1.333   0.047  0.3325  0.0844  1.3258
    3MOL   C412 1976   7.087   1.332   0.067 -0.0172  1.0583 -0.4931
    3MOL   H413 1977   7.403   1.172   7.951  1.2741 -0.4074 -0.2048
    3MOL   H414 1978   7.518   1.089   0.009 -0.3537 -1.4908 -0.2277
    3MOL   H415 1979   7.532   1.035   7.792 -1.2640 -0.7634  1.3113
    3MOL   H416 1980   7.555   1.200   7.762  1.0030 -2.0750 -1.7771
    3MOL   H417 1981   7.761   1.012   7.879 -1.6134  0.4777  0.4453
    3MOL   H418 1982   7.742   1.156   7.625 -0.8121  0.3006 -0.0888
    3MOL   H419 1983   7.893   1.124   7.710  0.2766 -1.5356  0.0532
    3MOL   H420 1984   7.900   1.200   7.953 -0.2350 -1.5594 -0.1841
    3MOL   H421 1985   7.810   1.318   7.864 -2.5685 -1.4264 -2.4965
    3MOL   H422 1986   7.784   1.328   0.060 -0.2752  0.5050 -0.4220
    3MOL   H423 1987   7.736   1.159   0.068 -2.2583 -0.0924  1.2168
    3MOL   H424 1988   7.573   1.378   7.960  0.9393  0.8822  1.4846
    3MOL   H425 1989   7.528   1.242   0.196  1.8313  1.7757  2.2639
    3MOL   H426 1990   7.558   1.416   0.176 -0.2765  0.2062 -2.0376
    3MOL   H427 1991   7.156   1.661   0.007  2.9636 -1.8927  0.2586
    3MOL   H428 1992   6.906   1.668   0.005 -0.4480  0.2251 -0.2298
    3MOL   H429 1993   6.890   1.245   0.038  0.5549 -0.1516  2.0965
    3MOL   H430 1994   7.145   1.241   0.072  1.4286  1.9646 -0.5324
    3MOL   C431 1995   6.193   1.631   0.324  0.1324 -0.3630 -0.4018
    3MOL   C432 1996   6.310   1.687   0.239 -0.4162 -0.3203  0.6328
    3MOL   C433 1997   6.369   1.589   0.141 -0.1555 -0.0836 -0.9855
    3MOL   C434 1998   6.507   1.651   0.080  0.0861  0.1191  0.3396
    3MOL   O435 1999   6.532   1.581   7.997  0.0876  0.5625 -0.1992
    3MOL   C436 2000   6.410   1.460   0.213  0.7066 -0.5730 -0.0856
    3MOL   C437 2001   6.300   1.396   0.296 -0.0410  0.0903 -0.1090
    3MOL   C438 2002   6.241   1.502   0.397 -0.0081  0.2556  0.1200
    3MOL   C439 2003   6.136   1.442   0.490  0.4849 -0.6708  0.3277
    3MOL   O440 2004   6.137   1.509   0.616  0.0203 -0.6051  0.4591
    3MOL   C441 2005   6.176   1.449   0.729  0.8446  0.0724  1.0910
    3MOL   O442 2006   6.218   1.333   0.736 -0.6002 -0.6666 -0.5865
    3MOL   C443 2007   6.146   1.532   0.845  0.3374  0.5800 -0.0903
    3MOL   C444 2008   6.186   1.484   0.974  1.0373  0.0055  0.7067
    3MOL   C445 2009   6.136   1.549   1.090  0.2957 -0.2911 -0.0892
    3MOL   C446 2010   6.051   1.662   1.084  0.0528  0.3755 -0.3058
    3MOL   C447 2011   5.988   1.719   1.205 -0.1112 -0.2152 -0.0220
    3MOL   O448 2012   6.024   1.694   1.318 -0.8734 -0.0411 -0.1167
    3MOL   O449 2013   5.901   1.813   1.183  0.0212  0.2847 -0.0957
    3MOL   C450 2014   6.026   1.717   0.956  0.5250 -0.2142  0.5618
    3MOL   C451 2015   6.079   1.656   0.842  0.2523  0.0455  0.2608
    3MOL   H452 2016   6.140   1.689   0.398 -0.2845  1.3331 -1.9918
    3MOL   H453 2017   6.117   1.612   0.247  0.4805 -2.3631 -0.2919
    3MOL   H454 2018   6.285   1.775   0.180 -1.4189 -2.4495 -2.2179
    3MOL   H455 2019   6.385   1.718   0.312  3.0093 -1.0634 -2.3721
    3MOL   H456 2020   6.295   1.569   0.063 -0.4587  2.0870 -1.2941
    3MOL   H457 2021   6.482   1.753   0.051  0.8858  0.0412 -0.6260
    3MOL   H458 2022   6.595   1.656   0.145 -0.4619 -0.9762  1.1835
    3MOL   H459 2023   6.436   1.393   0.130 -0.6384 -1.9772  0.5999
    3MOL   H460 2024   6.495   1.485   0.276  0.5525 -0.8486  0.2351
    3MOL   H461 2025   6.327   1.307   0.352 -2.5268 -1.6262 -1.5646
    3MOL   H462 2026   6.219   1.365   0.231 -2.1665 -0.6214  2.7697
    3MOL   H463 2027   6.322   1.516   0.468 -0.5984 -2.4490  1.3696
    3MOL   H464 2028   6.036   1.446   0.447  0.2652 -0.8491  0.8241
    3MOL   H465 2029   6.156   1.335   0.499 -1.3104 -1.0886 -0.4494
    3MOL   H466 2030   6.242   1.393   0.984  5.1926  2.3435 -0.0771
    3MOL   H467 2031   6.153   1.499   1.184 -1.8440  2.1775  1.6680
    3MOL   H468 2032   5.969   1.809   0.945  0.4997 -0.5401 -2.2439
    3MOL   H469 2033   6.060   1.698   0.744  1.2721  2.1434  0.9372
    3MOL   C470 2034   5.784   2.060   1.722 -0.6909 -0.3798 -0.1849
    3MOL   C471 2035   5.834   1.984   1.600 -0.0633 -0.5476 -0.3169
    3MOL   C472 2036   5.790   2.052   1.467 -0.3700 -0.6677  0.3223
    3MOL   C473 2037   5.862   1.998   1.340  0.2156  0.1331 -0.3338
    3MOL   O474 2038   5.833   1.870   1.318 -0.3058  0.5162  0.5193
    3MOL   C475 2039   5.638   2.030   1.462  0.2096  0.8343  0.2950
    3MOL   C476 2040   5.567   2.083   1.586  0.0351 -0.2912  0.3475
    3MOL   C477 2041   5.633   2.051   1.724  0.1517  0.1672 -0.4914
    3MOL   C478 2042   5.586   2.130   1.851 -0.1256 -0.6912  0.6283
    3MOL   O479 2043   5.569   2.266   1.812 -0.5666  0.5186 -0.3753
    3MOL   C480 2044   5.452   2.336   1.805  0.4696 -0.2736 -0.7989
    3MOL   O481 2045   5.339   2.286   1.846 -0.3448  0.7365 -0.2953
    3MOL   C482 2046   5.473   2.461   1.722  0.0349 -0.2544 -0.3321
    3MOL   C483 2047   5.356   2.536   1.678  0.0705  0.3893  0.1294
    3MOL   C484 2048   5.371   2.642   1.587 -0.1408  0.0786  0.1427
    3MOL   C485 2049   5.496   2.677   1.537  0.3161  0.0718 -0.3184
    3MOL   C486 2050   5.506   2.796   1.452 -0.0074  0.4021 -0.1534
    3MOL   O487 2051   5.405   2.868   1.421  0.1647  0.1367 -0.2709
    3MOL   O488 2052   5.628   2.815   1.401 -0.0044  0.5121  0.3452
    3MOL   C489 2053   5.607   2.600   1.578 -0.1683 -0.1521  0.3242
    3MOL   C490 2054   5.601   2.494   1.670  0.5092  0.1707 -0.0197
    3MOL   H491 2055   5.831   2.026   1.814  1.0042  0.9553 -0.5472
    3MOL   H492 2056   5.817   2.164   1.725  0.2157 -0.5540 -2.9407
    3MOL   H493 2057   5.942   1.985   1.615 -0.1652 -0.2748  0.4200
    3MOL   H494 2058   5.797   1.884   1.620  0.3574 -0.6220  0.0957
    3MOL   H495 2059   5.801   2.161   1.465 -0.2787 -0.6865 -0.1055
    3MOL   H496 2060   5.824   2.064   1.262  1.3238 -0.3410 -1.2868
    3MOL   H497 2061   5.971   2.005   1.338  0.4426 -2.8477 -1.5870
    3MOL   H498 2062   5.598   2.081   1.375  0.1201  1.5767  0.7655
    3MOL   H499 2063   5.624   1.923   1.450  1.6570  0.5590  0.9770
    3MOL   H500 2064   5.467   2.039   1.587 -0.2689  0.3904  1.3310
    3MOL   H501 2065   5.567   2.191   1.568 -0.0739  0.0317  2.1809
    3MOL   H502 2066   5.613   1.946   1.747 -2.6556  0.9095  0.6522
    3MOL   H503 2067   5.486   2.100   1.882  0.0729 -0.9974  0.9706
    3MOL   H504 2068   5.647   2.119   1.941  0.8680 -0.5253 -0.0204
    3MOL   H505 2069   5.256   2.507   1.707  0.2786 -1.6246 -1.1197
    3MOL   H506 2070   5.279   2.686   1.551  0.2733  0.7693 -0.0758
    3MOL   H507 2071   5.697   2.614   1.519 -0.3270 -0.6099 -0.0298
    3MOL   H508 2072   5.689   2.436   1.693  0.4636 -0.0395 -0.3730
    3MOL   C509 2073   5.914   2.841   0.910  0.1861 -0.1888  0.8390
    3MOL   C510 2074   5.773   2.814   0.964 -0.2683 -0.2368 -0.4058
    3MOL   C511 2075   5.769   2.856   1.115  0.5436  0.0870 -0.8489
    3MOL   C512 2076   5.627   2.844   1.171  0.0561 -0.1793  0.1626
    3MOL   O513 2077   5.637   2.913   1.292 -0.3155  0.0296 -0.4381
    3MOL   C514 2078   5.868   2.783   1.192 -0.0392  1.0070  0.2409
    3MOL   C515 2079   6.008   2.797   1.141  0.7168 -0.0431 -0.5033
    3MOL   C516 2080   6.023   2.775   0.993  0.4277  0.3537  0.1855
    3MOL   C517 2081   6.164   2.811   0.924 -0.3007  0.1522 -0.3616
    3MOL   O518 2082   6.254   2.729   0.995  0.2837 -0.3458 -0.7625
    3MOL   C519 2083   6.299   2.615   0.939  0.3329 -0.9292 -0.4731
    3MOL   O520 2084   6.270   2.577   0.831  0.0262  0.6682  0.2976
    3MOL   C521 2085   6.378   2.529   1.030  0.3525 -0.4432  0.4651
    3MOL   C522 2086   6.420   2.574   1.158  0.7353  0.5417 -0.5580
    3MOL   C523 2087   6.489   2.485   1.241 -0.2061 -0.2731  0.0972
    3MOL   C524 2088   6.538   2.363   1.192  0.2566  0.3029  0.1987
    3MOL   C525 2089   6.605   2.264   1.277 -0.3360 -0.4659 -0.1853
    3MOL   O526 2090   6.584   2.264   1.401  0.3806  0.2739 -0.0272
    3MOL   O527 2091   6.695   2.178   1.217  0.1739 -0.0407  0.6335
    3MOL   C528 2092   6.511   2.332   1.057  0.9248  0.0267 -0.0509
    3MOL   C529 2093   6.433   2.416   0.977 -0.1613 -0.4742 -0.1710
    3MOL   H530 2094   5.914   2.819   0.803  0.2529 -1.4053  1.0882
    3MOL   H531 2095   5.937   2.948   0.908 -0.8009  0.0583  2.2710
    3MOL   H532 2096   5.698   2.873   0.913 -0.0721  1.7899  1.5959
    3MOL   H533 2097   5.734   2.713   0.953 -0.5232 -0.3107  1.0819
    3MOL   H534 2098   5.793   2.962   1.119  0.2180  0.1195  0.3179
    3MOL   H535 2099   5.553   2.902   1.116  1.9864  1.3123 -0.9147
    3MOL   H536 2100   5.593   2.741   1.178 -1.7777  0.4703  1.0924
    3MOL   H537 2101   5.868   2.819   1.294 -0.3534  1.5906  0.0390
    3MOL   H538 2102   5.841   2.677   1.195  0.1518  0.7863 -3.3843
    3MOL   H539 2103   6.085   2.739   1.192 -0.2726 -0.7332  0.2338
    3MOL   H540 2104   6.035   2.900   1.166  2.1928 -0.3905 -0.6405
    3MOL   H541 2105   6.014   2.667   0.984 -1.8812  0.2696  3.0768
    3MOL   H542 2106   6.180   2.784   0.820  0.9854  2.5754 -0.8225
    3MOL   H543 2107   6.179   2.919   0.931 -0.0183  0.2178 -1.8866
    3MOL   H544 2108   6.372   2.667   1.185 -0.7582 -0.2536 -0.4579
    3MOL   H545 2109   6.511   2.515   1.342  0.2001 -1.4704  0.3722
    3MOL   H546 2110   6.546   2.241   1.011 -1.0103 -1.1082  0.6799
    3MOL   H547 2111   6.403   2.384   0.879  0.2300  0.4274 -0.5987
    3MOL   C548 2112   7.035   1.667   1.277 -0.4051 -0.5767 -0.4327
    3MOL   C549 2113   6.928   1.763   1.218 -0.3347  1.1821 -0.0819
    3MOL   C550 2114   6.887   1.878   1.309  0.3040  0.3325  0.7571
    3MOL   C551 2115   6.777   1.967   1.249  0.9981  0.3566 -0.0704
    3MOL   O552 2116   6.779   2.097   1.306  0.6549  0.2589 -0.2016
    3MOL   C553 2117   6.843   1.825   1.448  0.2608 -0.2527 -0.5400
    3MOL   C554 2118   6.945   1.730   1.511 -0.7256  0.1757  0.1591
    3MOL   C555 2119   6.989   1.613   1.418 -0.7628  0.3457 -0.1278
    3MOL   C556 2120   7.100   1.535   1.480  0.5138 -0.7550 -0.1258
    3MOL   O557 2121   7.069   1.477   1.603 -0.5096  0.2310 -0.1731
    3MOL   C558 2122   6.991   1.368   1.616 -0.0704  0.4312 -0.6430
    3MOL   O559 2123   6.978   1.280   1.532  0.3658  0.0065 -0.4350
    3MOL   C560 2124   6.916   1.359   1.743  0.4654  0.2987  0.2040
    3MOL   C561 2125   6.896   1.477   1.826  0.2368 -0.0932 -0.1310
    3MOL   C562 2126   6.817   1.472   1.939  0.0770  0.3124  0.2013
    3MOL   C563 2127   6.756   1.344   1.973  0.5640 -0.0380  0.1965
    3MOL   C564 2128   6.681   1.333   2.104 -0.2646  0.3381 -0.1294
    3MOL   O565 2129   6.653   1.222   2.155 -0.3297 -0.1301  0.3277
    3MOL   O566 2130   6.636   1.457   2.158 -0.0021  0.2564 -0.3169
    3MOL   C567 2131   6.771   1.226   1.894  0.7878 -0.5356  0.6435
    3MOL   C568 2132   6.856   1.231   1.782 -0.4513 -0.3287 -0.4009
    3MOL   H569 2133   7.065   1.592   1.204  0.0902  0.4829 -1.3264
    3MOL   H570 2134   7.124   1.727   1.296  0.8058 -1.6734 -2.4885
    3MOL   H571 2135   6.958   1.795   1.118  1.2583  2.0632  0.6591
    3MOL   H572 2136   6.843   1.695   1.202  2.1763 -2.8805  2.9147
    3MOL   H573 2137   6.981   1.932   1.321 -0.0179  1.2257 -0.5868
    3MOL   H574 2138   6.785   1.972   1.141  1.1130  0.6742 -0.0490
    3MOL   H575 2139   6.677   1.927   1.266  0.9285 -0.2721 -1.9098
    3MOL   H576 2140   6.816   1.910   1.510  1.4685  0.1317 -0.5327
    3MOL   H577 2141   6.760   1.755   1.436 -1.0044  1.6062 -3.2369
    3MOL   H578 2142   6.916   1.689   1.608 -0.2203 -0.8040 -0.1007
    3MOL   H579 2143   7.026   1.797   1.539 -0.5119  0.5812 -1.3752
    3MOL   H580 2144   6.896   1.558   1.402 -2.1147  2.1012  1.3603
    3MOL   H581 2145   7.114   1.455   1.407 -1.5542 -3.8207  2.6870
    3MOL   H582 2146   7.195   1.589   1.483 -0.5559  1.2381 -0.7802
    3MOL   H583 2147   6.942   1.570   1.794  1.6735 -1.0121 -0.7651
    3MOL   H584 2148   6.816   1.560   2.002  1.3144 -1.2460  2.5088
    3MOL   H585 2149   6.732   1.129   1.919  0.6128 -0.9587 -1.1948
    3MOL   H586 2150   6.880   1.145   1.721  2.9264 -0.6790  1.2835
    3MOL   C587 2151   6.425   1.236   2.629 -0.2080  0.3536  0.1599
    3MOL   C588 2152   6.509   1.268   2.506  0.6962 -0.2328  0.0950
    3MOL   C589 2153   6.577   1.406   2.526  0.4984  0.3984  0.3991
    3MOL   C590 2154   6.653   1.436   2.397 -0.5705 -0.3594 -0.0033
    3MOL   O591 2155   6.559   1.441   2.286 -0.3296  0.4448 -0.2897
    3MOL   C592 2156   6.474   1.513   2.563 -0.1401  0.4872 -0.0371
    3MOL   C593 2157   6.388   1.482   2.684 -0.4321  0.4578 -0.2548
    3MOL   C594 2158   6.320   1.344   2.663  0.2951 -0.6201  0.1144
    3MOL   C595 2159   6.224   1.298   2.777 -0.3272 -0.4181  0.5706
    3MOL   O596 2160   6.127   1.395   2.806 -0.0923 -0.4633 -0.3025
    3MOL   C597 2161   6.025   1.410   2.725 -0.8895 -0.3347  0.4886
    3MOL   O598 2162   5.995   1.324   2.643 -0.3533  0.0214  0.3691
    3MOL   C599 2163   5.954   1.542   2.728  0.0473  0.0800 -0.6174
    3MOL   C600 2164   5.999   1.648   2.812  0.1388 -0.2789 -0.1970
    3MOL   C601 2165   5.940   1.772   2.812  0.7293  0.3521  0.2013
    3MOL   C602 2166   5.826   1.795   2.732  0.0707 -0.4812  0.2230
    3MOL   C603 2167   5.755   1.925   2.742 -0.5821  0.1931 -0.0436
    3MOL   O604 2168   5.716   1.988   2.644 -0.0112  0.4031  0.4476
    3MOL   O605 2169   5.746   1.974   2.876 -0.4481  0.0768  0.4361
    3MOL   C606 2170   5.770   1.693   2.652  0.0801  0.4081 -0.0866
    3MOL   C607 2171   5.834   1.564   2.657 -0.2774  0.0167 -0.1026
    3MOL   H608 2172   6.383   1.138   2.608  0.2522  0.1804  0.0322
    3MOL   H609 2173   6.496   1.227   2.711 -0.2521 -0.3668  0.1229
    3MOL   H610 2174   6.575   1.185   2.481  1.0263 -0.2329  0.9524
    3MOL   H611 2175   6.435   1.277   2.427 -0.1814  0.5613  0.9823
    3MOL   H612 2176   6.639   1.397   2.615 -0.0956 -0.7222  0.7071
    3MOL   H613 2177   6.717   1.524   2.401 -2.5880  1.1148  0.6786
    3MOL   H614 2178   6.714   1.348   2.376  0.2190  0.1535  0.1361
    3MOL   H615 2179   6.527   1.606   2.584 -0.5797  0.3853  1.5397
    3MOL   H616 2180   6.405   1.536   2.482 -1.8973 -0.3848  1.1837
    3MOL   H617 2181   6.314   1.562   2.689 -0.4803  0.4438 -0.7184
    3MOL   H618 2182   6.447   1.465   2.775 -1.4329 -0.1508  0.2959
    3MOL   H619 2183   6.254   1.355   2.577  0.7826  1.2997 -0.0237
    3MOL   H620 2184   6.174   1.205   2.751 -1.9287  0.7812 -0.7457
    3MOL   H621 2185   6.284   1.282   2.867 -1.1956 -0.0121  1.2270
    3MOL   H622 2186   6.080   1.628   2.880  0.0644  1.3008  0.3908
    3MOL   H623 2187   5.980   1.844   2.882  0.1332  0.3503  0.5418
    3MOL   H624 2188   5.682   1.706   2.591  0.2110 -1.1039 -0.6118
    3MOL   H625 2189   5.789   1.490   2.593 -2.0953  2.5283 -1.8680
    3MOL   C626 2190   5.330   1.963   3.210 -0.2599  0.4779  0.0695
    3MOL   C627 2191   5.357   2.031   3.080 -0.3182  0.1941 -0.0933
    3MOL   C628 2192   5.506   2.035   3.053  0.2722 -0.6088  0.4670
    3MOL   C629 2193   5.536   2.100   2.922  0.0207  0.0064  0.1389
    3MOL   O630 2194   5.675   2.116   2.885  0.2118  0.0066  0.1130
    3MOL   C631 2195   5.585   2.108   3.169 -0.2344  0.5152 -0.2228
    3MOL   C632 2196   5.561   2.022   3.292  0.1748  0.3562  0.5338
    3MOL   C633 2197   5.415   2.021   3.324  0.4260 -0.7391  0.2527
    3MOL   C634 2198   5.394   1.946   3.462  0.1350 -0.3843  0.3557
    3MOL   O635 2199   5.444   2.012   3.577 -0.0962 -0.2728 -0.5488
    3MOL   C636 2200   5.377   2.109   3.644 -0.2927 -0.0632  0.3992
    3MOL   O637 2201   5.255   2.136   3.628  0.1728 -0.2476 -0.4239
    3MOL   C638 2202   5.465   2.178   3.732  0.0515  0.2063  0.1072
    3MOL   C639 2203   5.419   2.289   3.800 -0.3599 -0.2253  0.6403
    3MOL   C640 2204   5.507   2.369   3.873 -0.4621  0.0042 -0.5260
    3MOL   C641 2205   5.644   2.339   3.884 -0.0368  0.2765  0.7836
    3MOL   C642 2206   5.734   2.439   3.942 -0.5868 -0.0929 -0.4783
    3MOL   O643 2207   5.696   2.550   3.982  0.0933 -0.1315 -0.3032
    3MOL   O644 2208   5.864   2.392   3.963 -0.2061  0.2213 -0.1093
    3MOL   C645 2209   5.683   2.213   3.835 -0.0354 -0.5408 -0.3624
    3MOL   C646 2210   5.596   2.132   3.757 -0.1727  0.0030  0.1549
    3MOL   H647 2211   5.222   1.966   3.226 -0.1628 -1.2249  1.1587
    3MOL   H648 2212   5.362   1.860   3.204 -4.1760 -1.0090  2.6721
    3MOL   H649 2213   5.312   1.976   2.997  0.4468 -1.1213  0.3485
    3MOL   H650 2214   5.310   2.129   3.082 -0.5660  0.1100 -1.3417
    3MOL   H651 2215   5.538   1.932   3.040  0.8702 -0.2592 -0.9136
    3MOL   H652 2216   5.484   2.038   2.849  0.6990  0.5625 -0.8284
    3MOL   H653 2217   5.487   2.197   2.915 -0.1321 -0.1210 -0.6075
    3MOL   H654 2218   5.688   2.099   3.134  0.0132  1.5613  0.2049
    3MOL   H655 2219   5.560   2.214   3.175  1.9117  1.0077  0.6468
    3MOL   H656 2220   5.606   2.062   3.383 -2.9247 -0.8233  2.6770
    3MOL   H657 2221   5.608   1.927   3.270  0.7670  0.9337 -0.7714
    3MOL   H658 2222   5.383   2.123   3.345  1.3636 -0.9135  2.6339
    3MOL   H659 2223   5.285   1.939   3.470  0.1037 -0.9864 -0.5121
    3MOL   H660 2224   5.427   1.842   3.474  1.6069 -0.2259 -2.0332
    3MOL   H661 2225   5.317   2.324   3.795  0.4792  2.1460 -0.4871
    3MOL   H662 2226   5.465   2.459   3.916 -1.2982 -0.4466 -0.3844
    3MOL   H663 2227   5.784   2.178   3.849 -0.2983 -0.3124  2.3763
    3MOL   H664 2228   5.640   2.040   3.722  0.9035  0.6741 -0.2592
    3MOL   C665 2229   6.259   2.213   3.843  0.0520  0.0973 -0.2146
    3MOL   C666 2230   6.186   2.323   3.924 -0.2480  0.1152  0.3226
    3MOL   C667 2231   6.124   2.435   3.840 -0.2481  0.3017  0.3092
    3MOL   C668 2232   6.041   2.543   3.915 -0.3470 -0.5189 -0.3648
    3MOL   O669 2233   5.965   2.491   4.015  0.1033 -0.1533 -0.5911
    3MOL   C670 2234   6.234   2.499   3.743 -0.5733  0.4158 -0.3544
    3MOL   C671 2235   6.319   2.386   3.670  0.2413 -0.0026  0.3003
    3MOL   C672 2236   6.372   2.274   3.764 -0.4299 -0.0439  0.2326
    3MOL   C673 2237   6.448   2.170   3.673 -0.0348  0.1984 -0.2439
    3MOL   O674 2238   6.364   2.105   3.583  0.1951  0.5203 -0.3090
    3MOL   C675 2239   6.400   2.007   3.504  0.5633  0.5149  0.3361
    3MOL   O676 2240   6.516   1.978   3.490 -0.3118  0.4724  0.4962
    3MOL   C677 2241   6.287   1.936   3.434 -0.4050  0.0860 -0.1913
    3MOL   C678 2242   6.160   2.000   3.425  0.0773 -0.3178  0.1364
    3MOL   C679 2243   6.059   1.934   3.362 -0.8807  0.5955  0.5674
    3MOL   C680 2244   6.077   1.809   3.301  0.1333  0.5716 -0.1474
    3MOL   C681 2245   5.972   1.753   3.214 -0.0980 -0.1329 -0.4224
    3MOL   O682 2246   5.863   1.805   3.219 -0.0443  0.3758  0.2335
    3MOL   O683 2247   6.003   1.650   3.147  0.0924  0.1999  0.5525
    3MOL   C684 2248   6.194   1.738   3.324  0.6957  0.9104  0.3440
    3MOL   C685 2249   6.305   1.804   3.386 -0.3515  0.1919  0.2657
    3MOL   H686 2250   6.285   2.136   3.916 -1.9392 -0.9061 -0.5297
    3MOL   H687 2251   6.192   2.144   3.792 -0.9321 -0.5677  1.9334
    3MOL   H688 2252   6.106   2.274   3.980 -1.0431  1.4403  0.3724
    3MOL   H689 2253   6.244   2.371   4.003 -0.7310  1.8153 -0.3271
    3MOL   H690 2254   6.048   2.381   3.785  1.4929 -1.5101 -0.3668
    3MOL   H691 2255   6.110   2.608   3.969 -1.8714  0.7966  0.0570
    3MOL   H692 2256   5.987   2.601   3.840  2.4943 -0.4815 -2.4565
    3MOL   H693 2257   6.183   2.560   3.669  0.4458  0.3650 -1.1028
    3MOL   H694 2258   6.308   2.566   3.787  0.7263  0.3603 -2.3829
    3MOL   H695 2259   6.399   2.442   3.623 -0.4687  1.1552  0.4259
    3MOL   H696 2260   6.250   2.354   3.591 -2.6325  3.5523  1.2132
    3MOL   H697 2261   6.446   2.323   3.827 -0.8575  2.5485 -1.1803
    3MOL   H698 2262   6.527   2.220   3.618  1.1884 -0.5846  0.7629
    3MOL   H699 2263   6.511   2.097   3.724  1.1153  1.9721  0.9409
    3MOL   H700 2264   6.139   2.095   3.471  0.3862  0.6709 -1.7160
    3MOL   H701 2265   5.961   1.980   3.361 -2.5710 -2.7867 -0.8086
    3MOL   H702 2266   6.213   1.640   3.284  1.9732  2.3312 -2.6829
    3MOL   H703 2267   6.398   1.750   3.386 -0.3261  0.1606  3.3313
    3MOL   C704 2268   5.616   1.338   2.845 -0.6384 -0.1604 -1.4229
    3MOL   C705 2269   5.664   1.431   2.957  0.3949  0.4880 -0.0305
    3MOL   C706 2270   5.772   1.372   3.045  0.2199  0.0541  0.3760
    3MOL   C707 2271   5.832   1.481   3.142 -0.1809  0.6784  0.3785
    3MOL   O708 2272   5.892   1.585   3.069  0.1720  0.5060 -0.0112
    3MOL   C709 2273   5.717   1.246   3.117 -0.1168  0.4218 -0.4178
    3MOL   C710 2274   5.658   1.145   3.004  0.0612 -0.2129 -0.6673
    3MOL   C711 2275   5.565   1.209   2.891 -0.4009  0.5455 -0.2304
    3MOL   C712 2276   5.551   1.114   2.771  0.0565 -0.1751 -0.2340
    3MOL   O713 2277   5.448   1.164   2.699 -0.4675  0.0265 -0.0064
    3MOL   C714 2278   5.433   1.124   2.575 -1.0873 -0.3687  0.1445
    3MOL   O715 2279   5.529   1.077   2.515 -0.0442  0.1143 -0.1879
    3MOL   C716 2280   5.295   1.148   2.522 -0.0194 -0.1462 -0.0288
    3MOL   C717 2281   5.259   1.152   2.383  0.1104 -0.2470  0.0870
    3MOL   C718 2282   5.128   1.177   2.343 -0.3699  0.8723 -0.3399
    3MOL   C719 2283   5.026   1.195   2.436 -0.1875 -0.2679  0.0435
    3MOL   C720 2284   4.895   1.225   2.383  0.2323 -0.1166 -0.0824
    3MOL   O721 2285   4.870   1.229   2.262  0.1548  0.2098 -0.3958
    3MOL   O722 2286   4.804   1.237   2.482  0.1586  0.4431  0.2813
    3MOL   C723 2287   5.062   1.197   2.572 -0.4353 -0.1595  0.5381
    3MOL   C724 2288   5.191   1.172   2.619 -1.2097  0.3912 -0.1972
    3MOL   H725 2289   5.528   1.380   2.796 -2.3693  0.8402  2.3621
    3MOL   H726 2290   5.695   1.341   2.770 -1.6771 -0.0783 -2.5307
    3MOL   H727 2291   5.691   1.519   2.899 -1.6903  2.0567  1.2807
    3MOL   H728 2292   5.574   1.459   3.013  0.5805  0.0315  0.4952
    3MOL   H729 2293   5.851   1.351   2.972 -0.5223 -1.3526 -0.0265
    3MOL   H730 2294   5.750   1.503   3.210 -1.7117 -1.2585 -0.7370
    3MOL   H731 2295   5.911   1.434   3.200  1.4715  0.9652 -1.5718
    3MOL   H732 2296   5.803   1.206   3.171 -0.5083  1.6245  1.1012
    3MOL   H733 2297   5.630   1.285   3.168 -0.6792 -0.4435 -0.7011
    3MOL   H734 2298   5.612   1.077   3.075  1.9950  1.3054  2.1156
    3MOL   H735 2299   5.749   1.106   2.958  0.6375  0.6291 -0.2557
    3MOL   H736 2300   5.467   1.220   2.936  0.2741  1.5151  1.0694
    3MOL   H737 2301   5.644   1.105   2.714 -0.8479 -1.2122 -1.5846
    3MOL   H738 2302   5.532   1.009   2.792 -2.1543 -0.0221 -1.3562
    3MOL   H739 2303   5.335   1.132   2.309 -0.8783  0.9848 -1.2776
    3MOL   H740 2304   5.111   1.169   2.237 -3.8592 -1.0569  0.2839
    3MOL   H741 2305   4.993   1.227   2.650  1.7979  3.3423  1.2790
    3MOL   H742 2306   5.204   1.169   2.726 -3.0978 -0.1755  0.0359
    3MOL   C743 2307   4.532   1.390   2.857  0.3330  0.1291 -0.1079
    3MOL   C744 2308   4.541   1.396   2.705  0.2127  0.3278 -0.5348
    3MOL   C745 2309   4.677   1.443   2.659  0.0793 -0.1495  0.0911
    3MOL   C746 2310   4.685   1.451   2.499 -0.2918  0.3197 -0.4290
    3MOL   O747 2311   4.681   1.317   2.445  0.6889 -0.6885  0.6941
    3MOL   C748 2312   4.724   1.566   2.725  0.7194  0.1780 -0.3927
    3MOL   C749 2313   4.710   1.560   2.881  0.8600  0.4889  0.0018
    3MOL   C750 2314   4.567   1.521   2.928 -0.3881 -0.7739  0.1977
    3MOL   C751 2315   4.552   1.507   3.081  0.1905 -0.1169 -0.4448
    3MOL   O752 2316   4.601   1.624   3.123  0.0855 -0.3085 -0.0722
    3MOL   C753 2317   4.588   1.666   3.251 -0.0654  0.3301 -0.1651
    3MOL   O754 2318   4.510   1.606   3.329 -0.0051  0.2345  0.0222
    3MOL   C755 2319   4.690   1.774   3.281  0.6025  0.5632  0.0430
    3MOL   C756 2320   4.672   1.834   3.405  0.7645  0.6200  0.7958
    3MOL   C757 2321   4.759   1.933   3.448 -0.0004 -0.9225  0.3651
    3MOL   C758 2322   4.881   1.969   3.380  1.1785 -0.3237 -0.3924
    3MOL   C759 2323   4.990   2.058   3.443  0.8202 -0.3008 -0.0022
    3MOL   O760 2324   5.083   2.100   3.375 -0.0583 -0.1765 -1.0445
    3MOL   O761 2325   4.981   2.079   3.578 -0.1264 -0.5049  0.3052
    3MOL   C762 2326   4.897   1.901   3.256 -0.5302  0.5644  0.1573
    3MOL   C763 2327   4.803   1.810   3.204 -1.0612  0.4078 -0.3716
    3MOL   H764 2328   4.429   1.361   2.875 -0.5271  3.0122 -0.1279
    3MOL   H765 2329   4.591   1.307   2.896 -0.8677  0.4186  2.4227
    3MOL   H766 2330   4.529   1.295   2.666  2.7770  0.4098 -1.6675
    3MOL   H767 2331   4.464   1.460   2.660 -1.2675 -0.6799  0.5257
    3MOL   H768 2332   4.744   1.361   2.685 -2.1344 -2.8763 -2.3934
    3MOL   H769 2333   4.602   1.510   2.461  0.1502  0.3943 -1.2907
    3MOL   H770 2334   4.775   1.510   2.479 -0.3265  0.7180  0.5473
    3MOL   H771 2335   4.825   1.595   2.694  0.8807  0.1717  0.1306
    3MOL   H772 2336   4.659   1.649   2.695 -2.9258 -1.3183  2.9246
    3MOL   H773 2337   4.732   1.663   2.908  2.5086  0.4939 -1.2398
    3MOL   H774 2338   4.791   1.507   2.931 -1.2194 -1.1667  1.7090
    3MOL   H775 2339   4.507   1.608   2.903  0.4815 -0.3009 -0.2943
    3MOL   H776 2340   4.444   1.498   3.095  0.3972  0.7768  1.8580
    3MOL   H777 2341   4.606   1.420   3.118 -1.7328 -1.3856 -0.5396
    3MOL   H778 2342   4.592   1.812   3.474 -0.2565 -1.4972 -1.0111
    3MOL   H779 2343   4.746   1.976   3.546  1.7404 -1.8013  1.0041
    3MOL   H780 2344   4.990   1.916   3.202 -1.2295 -2.2390 -1.9186
    3MOL   H781 2345   4.820   1.759   3.110 -1.4716 -0.3999 -0.0208
    3MOL   H782 2346   5.058   2.131   3.598  1.4299 -1.7237 -2.2540
    4MOL     C1 2347   6.909   2.052   2.590 -0.1474 -0.2794  0.7088
    4MOL     C2 2348   6.912   2.054   2.431 -0.5035  0.2413  0.0798
    4MOL     C3 2349   6.779   2.049   2.355  0.4176  0.9111  0.0349
    4MOL     C4 2350   6.806   2.025   2.207 -0.8007 -0.0721  0.4326
    4MOL     O5 2351   6.696   2.076   2.138 -0.5250 -0.1688  0.1849
    4MOL     C6 2352   6.680   1.946   2.415  0.1933 -0.5379  1.3620
    4MOL     C7 2353   6.675   1.945   2.567 -0.4543 -0.8409  0.2016
    4MOL     C8 2354   6.816   1.937   2.626 -0.7326 -0.2508 -0.7585
    4MOL     C9 2355   6.830   1.909   2.778 -0.3855  0.3950 -0.3423
    4MOL    O10 2356   6.807   1.774   2.817 -0.3242  0.5023 -0.4354
    4MOL    C11 2357   6.895   1.675   2.784 -0.0729  0.1060  0.0557
    4MOL    O12 2358   7.007   1.694   2.734  0.2843  0.7726  0.1226
    4MOL    C13 2359   6.846   1.537   2.823  0.0337 -0.2317  0.7040
    4MOL    C14 2360   6.912   1.427   2.761 -0.1789 -0.4542 -0.1946
    4MOL    C15 2361   6.860   1.300   2.792  0.3520 -0.1604  0.0468
    4MOL    C16 2362   6.751   1.278   2.878 -0.4794  0.1286  0.4398
    4MOL    C17 2363   6.715   1.140   2.914 -0.2094 -0.5107 -0.5185
    4MOL    O18 2364   6.610   1.103   2.968  0.7739  0.4498  0.9809
    4MOL    O19 2365   6.802   1.046   2.873 -0.2739  0.0674 -0.2855
    4MOL    C20 2366   6.678   1.384   2.926 -0.5542 -0.1726  0.5052
    4MOL    C21 2367   6.730   1.513   2.898  0.1014 -0.6591 -0.4983
    4MOL    H22 2368   7.009   2.048   2.634 -0.2373 -0.8906  0.8577
    4MOL    H23 2369   6.863   2.143   2.630 -0.0287  1.0852 -2.1689
    4MOL    H24 2370   6.956   2.140   2.381  1.4484  0.2080  1.6837
    4MOL    H25 2371   6.972   1.966   2.408 -2.6778 -0.6063 -2.6558
    4MOL    H26 2372   6.736   2.148   2.366 -0.4519  0.4894  0.4597
    4MOL    H27 2373   6.893   2.079   2.169 -1.2680 -0.3944 -1.1207
    4MOL    H28 2374   6.818   1.917   2.199 -1.0755 -0.0839  0.1738
    4MOL    H29 2375   6.581   1.971   2.379  1.5282  1.7080 -0.9419
    4MOL    H30 2376   6.704   1.847   2.375 -0.6895 -0.9155  1.7560
    4MOL    H31 2377   6.613   1.860   2.597  0.0001 -2.0413 -2.1848
    4MOL    H32 2378   6.627   2.035   2.607 -2.2725 -1.4725 -0.5034
    4MOL    H33 2379   6.863   1.856   2.570  1.3960  2.3610 -2.8984
    4MOL    H34 2380   6.926   1.934   2.821 -0.1133  1.8586 -1.7263
    4MOL    H35 2381   6.759   1.973   2.830 -0.8888  1.2348 -2.0123
    4MOL    H36 2382   6.997   1.435   2.695 -2.0277  0.5639 -2.4830
    4MOL    H37 2383   6.908   1.215   2.746 -1.5942 -1.2770  0.0083
    4MOL    H38 2384   6.590   1.358   2.983  0.2099 -2.3307  0.7310
    4MOL    H39 2385   6.685   1.601   2.942  0.7617 -0.3629 -0.4172
    4MOL    H40 2386   6.634   2.007   2.156 -2.4158  1.5645  0.4724
    4MOL    C41 2387   6.646   0.503   2.784 -0.0762  0.0673  0.1175
    4MOL    C42 2388   6.697   0.643   2.809  0.1082 -0.2033 -0.6015
    4MOL    C43 2389   6.663   0.736   2.696  0.3422 -0.6503  0.1552
    4MOL    C44 2390   6.737   0.874   2.723 -0.0864 -0.3470 -1.0179
    4MOL    O45 2391   6.733   0.918   2.860  0.2379 -0.0211  0.2831
    4MOL    C46 2392   6.687   0.674   2.553 -0.3679 -0.1544 -0.3564
    4MOL    C47 2393   6.638   0.529   2.538  0.2766 -0.2152 -0.2098
    4MOL    C48 2394   6.694   0.442   2.648 -0.4967  0.0520  1.0826
    4MOL    C49 2395   6.657   0.294   2.627  0.0176 -0.3614  0.2010
    4MOL    O50 2396   6.518   0.286   2.608 -0.0747  0.2072  0.1073
    4MOL    C51 2397   6.462   0.207   2.519  0.2077  0.1643  1.5507
    4MOL    O52 2398   6.523   0.126   2.450 -0.1013  0.3198  0.3207
    4MOL    C53 2399   6.318   0.225   2.491  0.1164 -0.2513  0.6352
    4MOL    C54 2400   6.259   0.168   2.379  0.3398 -0.1860 -0.2275
    4MOL    C55 2401   6.119   0.199   2.359  0.3516 -1.2797 -0.4458
    4MOL    C56 2402   6.049   0.290   2.440  0.0373  0.1203  0.7441
    4MOL    C57 2403   5.909   0.335   2.398  0.3737  0.1330 -0.0395
    4MOL    O58 2404   5.839   0.402   2.482  0.3602  0.3834  0.6251
    4MOL    O59 2405   5.869   0.289   2.274  0.2777 -0.2507 -0.0007
    4MOL    C60 2406   6.112   0.342   2.555 -0.1992 -0.1232  0.4150
    4MOL    C61 2407   6.248   0.306   2.586 -0.3605  0.0372  0.1987
    4MOL    H62 2408   6.686   0.438   2.862  1.6695  2.0518  0.9235
    4MOL    H63 2409   6.539   0.491   2.793 -0.1766  1.0379  0.2625
    4MOL    H64 2410   6.667   0.673   2.910 -0.5998 -4.6348  0.6552
    4MOL    H65 2411   6.805   0.634   2.811  0.3034  1.8859 -0.3665
    4MOL    H66 2412   6.556   0.754   2.712  0.3775 -0.6407  0.3795
    4MOL    H67 2413   6.841   0.877   2.691  0.5101  0.8489  0.9563
    4MOL    H68 2414   6.699   0.946   2.651 -0.7106  0.1445 -0.2040
    4MOL    H69 2415   6.645   0.737   2.474  1.0869  1.1291 -0.1272
    4MOL    H70 2416   6.795   0.678   2.539 -0.0828  0.8764  1.9417
    4MOL    H71 2417   6.670   0.491   2.441 -0.4124  0.6855 -0.7904
    4MOL    H72 2418   6.531   0.548   2.531  0.6109  1.4589 -0.9336
    4MOL    H73 2419   6.803   0.446   2.643 -0.4915 -0.8819  0.1515
    4MOL    H74 2420   6.713   0.252   2.544 -0.4434 -1.0178  0.2183
    4MOL    H75 2421   6.701   0.231   2.704  2.6729  2.2897  0.9360
    4MOL    H76 2422   6.311   0.101   2.312 -1.1949 -0.2647 -1.3662
    4MOL    H77 2423   6.081   0.164   2.264  1.1784 -0.9623 -0.9022
    4MOL    H78 2424   6.051   0.408   2.614  0.3593  0.0549  0.7908
    4MOL    H79 2425   6.290   0.339   2.679 -0.4135 -3.4876  1.5559
    4MOL    C80 2426   5.521   0.711   2.361  0.2948  0.1059  0.3301
    4MOL    C81 2427   5.638   0.622   2.321  0.0481 -0.0906  0.5804
    4MOL    C82 2428   5.614   0.549   2.185  0.1595  0.5380 -0.4428
    4MOL    C83 2429   5.734   0.452   2.148  0.3112 -0.2761 -0.1351
    4MOL    O84 2430   5.727   0.337   2.232 -0.0761  1.0904 -0.0933
    4MOL    C85 2431   5.479   0.471   2.187  0.3118  0.7893 -0.5713
    4MOL    C86 2432   5.363   0.554   2.249 -0.0021  0.3003  0.5546
    4MOL    C87 2433   5.403   0.618   2.381  0.1105 -0.6364 -0.2648
    4MOL    C88 2434   5.284   0.703   2.444  0.4937 -0.2197  0.3380
    4MOL    O89 2435   5.307   0.720   2.582  0.3089  0.1574 -0.3832
    4MOL    C90 2436   5.221   0.801   2.656 -0.5893 -0.2318  0.2216
    4MOL    O91 2437   5.117   0.851   2.618  0.2370 -0.2183  0.9802
    4MOL    C92 2438   5.278   0.829   2.793  0.4614 -0.2610 -0.3957
    4MOL    C93 2439   5.217   0.923   2.874  0.8677  0.3002  0.1716
    4MOL    C94 2440   5.258   0.948   3.004  0.3222  0.0091  0.7993
    4MOL    C95 2441   5.366   0.878   3.054 -0.5211 -0.1495 -0.7350
    4MOL    C96 2442   5.405   0.914   3.190  0.5145  0.3650 -0.8622
    4MOL    O97 2443   5.380   1.021   3.245 -0.9058  0.6815  0.5439
    4MOL    O98 2444   5.447   0.798   3.261 -0.6631  0.2173  0.1733
    4MOL    C99 2445   5.436   0.776   2.982 -0.1957  0.4426  0.5903
    4MOL   C100 2446   5.387   0.758   2.853 -0.6059 -0.5608  0.0635
    4MOL   H101 2447   5.552   0.765   2.450  0.3922  1.1616 -0.3351
    4MOL   H102 2448   5.501   0.789   2.288  1.2479 -0.7124 -0.8380
    4MOL   H103 2449   5.720   0.692   2.307  0.1489 -0.4360 -0.6652
    4MOL   H104 2450   5.654   0.544   2.395  0.5075 -2.7479 -2.2240
    4MOL   H105 2451   5.617   0.614   2.097 -2.0340  0.4027 -0.6323
    4MOL   H106 2452   5.728   0.404   2.050  1.4087 -1.5395  0.4011
    4MOL   H107 2453   5.831   0.501   2.158  0.8020 -0.8089 -1.9705
    4MOL   H108 2454   5.457   0.432   2.087  1.6960 -0.5413 -0.3850
    4MOL   H109 2455   5.481   0.375   2.239  1.0298  0.4175 -1.2752
    4MOL   H110 2456   5.284   0.481   2.263  0.1473 -0.1889 -1.0646
    4MOL   H111 2457   5.325   0.627   2.178 -0.1341 -0.3773 -0.0807
    4MOL   H112 2458   5.435   0.547   2.457  0.1792 -1.3437 -0.9471
    4MOL   H113 2459   5.282   0.799   2.393  1.9752 -0.6115 -0.4760
    4MOL   H114 2460   5.183   0.664   2.429  0.6963 -0.6887  0.1587
    4MOL   H115 2461   5.135   0.983   2.837  0.3224  0.0527  0.9655
    4MOL   H116 2462   5.213   1.025   3.065 -0.1734 -0.7200  1.3684
    4MOL   H117 2463   5.523   0.729   3.024  0.7888  0.3410 -1.5261
    4MOL   H118 2464   5.432   0.676   2.798 -0.2274  0.2410 -0.8384
    4MOL   C119 2465   5.140   0.496   3.620  0.0966  0.0356  1.2297
    4MOL   C120 2466   5.191   0.640   3.600 -0.1577 -0.2957  0.6665
    4MOL   C121 2467   5.310   0.650   3.514  0.1742 -0.1810 -0.9317
    4MOL   C122 2468   5.355   0.797   3.483  1.5258 -0.2688 -0.1641
    4MOL   O123 2469   5.470   0.812   3.408  0.0826 -0.1471 -0.1816
    4MOL   C124 2470   5.422   0.568   3.584  0.1869 -0.1959 -0.4997
    4MOL   C125 2471   5.375   0.414   3.598 -0.8215 -0.4867 -0.0953
    4MOL   C126 2472   5.241   0.397   3.673  0.3988  0.0060  0.0444
    4MOL   C127 2473   5.201   0.257   3.671  0.0154  0.3877  0.0921
    4MOL   O128 2474   5.066   0.251   3.713  0.4071 -0.5735 -0.0808
    4MOL   C129 2475   5.030   0.171   3.809  0.6632 -0.4268  0.4479
    4MOL   O130 2476   5.108   0.087   3.865  0.6376 -0.1275  0.9323
    4MOL   C131 2477   4.889   0.183   3.840  0.2350 -0.5084  0.0607
    4MOL   C132 2478   4.829   0.102   3.936  0.2934 -0.0579 -0.6362
    4MOL   C133 2479   4.691   0.115   3.973 -0.0020 -0.6491  0.1008
    4MOL   C134 2480   4.612   0.215   3.923 -1.0589 -0.0714 -0.4882
    4MOL   C135 2481   4.468   0.236   3.960  0.2473  0.7558  0.6007
    4MOL   O136 2482   4.397   0.327   3.921 -1.2116 -0.2553  0.6125
    4MOL   O137 2483   4.406   0.148   4.041  0.6099  0.1897 -1.1762
    4MOL   C138 2484   4.668   0.299   3.828  0.2956  0.2893  0.0423
    4MOL   C139 2485   4.808   0.290   3.791  0.2900 -0.7003 -0.1604
    4MOL   H140 2486   5.049   0.493   3.679 -0.6334 -1.0818  0.0748
    4MOL   H141 2487   5.118   0.471   3.517  2.8705  1.3248  0.2785
    4MOL   H142 2488   5.108   0.700   3.565  0.8488  0.3730 -0.6164
    4MOL   H143 2489   5.221   0.677   3.698  3.1966 -0.5702 -0.1969
    4MOL   H144 2490   5.277   0.604   3.421  0.2518 -1.0880 -0.5154
    4MOL   H145 2491   5.283   0.862   3.433  3.1126  1.2529 -0.5109
    4MOL   H146 2492   5.366   0.845   3.580 -2.3541  1.3843 -0.4426
    4MOL   H147 2493   5.511   0.579   3.521 -0.0792 -1.9290 -1.2160
    4MOL   H148 2494   5.453   0.613   3.678 -0.0627 -0.0018 -0.5109
    4MOL   H149 2495   5.448   0.362   3.659  0.3451  1.3379  0.0957
    4MOL   H150 2496   5.372   0.385   3.493 -0.3557  0.9573 -0.5139
    4MOL   H151 2497   5.254   0.430   3.776  0.9742  0.8034 -0.2818
    4MOL   H152 2498   5.220   0.216   3.572  1.9395 -3.2567  1.8792
    4MOL   H153 2499   5.260   0.202   3.744  0.6792  0.5067 -0.3550
    4MOL   H154 2500   4.885   0.021   3.978  1.1180  1.1758  0.6574
    4MOL   H155 2501   4.645   0.055   4.050  0.4755  0.1789  1.0358
    4MOL   H156 2502   4.610   0.378   3.784  0.6407  1.3852  1.4984
    4MOL   H157 2503   4.850   0.355   3.715 -0.2136  0.0836  0.2293
    4MOL   C158 2504   3.782   0.148   3.995 -0.9057  0.5059 -0.5501
    4MOL   C159 2505   3.925   0.122   3.945  0.9559 -0.3824  0.2202
    4MOL   C160 2506   4.029   0.177   4.043  0.4927  0.8594 -0.3843
    4MOL   C161 2507   4.171   0.135   4.006  0.3495 -0.5634 -0.0634
    4MOL   O162 2508   4.265   0.194   4.093 -0.2328  0.2315 -0.1957
    4MOL   C163 2509   4.005   0.324   4.046  1.0016 -0.0851  0.0488
    4MOL   C164 2510   3.863   0.373   4.077 -0.0026 -0.3444  0.8944
    4MOL   C165 2511   3.756   0.299   3.995  0.4400 -0.0390 -0.0537
    4MOL   C166 2512   3.613   0.340   4.027  0.9328  0.8507  0.0812
    4MOL   O167 2513   3.578   0.455   3.962  1.0266  0.7968 -0.5212
    4MOL   C168 2514   3.453   0.493   3.953  0.1361  0.2162 -0.1387
    4MOL   O169 2515   3.361   0.455   4.024 -0.1407  0.7123 -0.3707
    4MOL   C170 2516   3.435   0.598   3.851  0.1417 -0.0647  0.3690
    4MOL   C171 2517   3.553   0.647   3.784  0.1979  0.4002 -0.2065
    4MOL   C172 2518   3.539   0.758   3.700  0.1040 -0.3882  0.7608
    4MOL   C173 2519   3.412   0.818   3.677 -0.4635 -0.3093 -0.2153
    4MOL   C174 2520   3.412   0.929   3.574  0.1584 -0.2385 -0.4898
    4MOL   O175 2521   3.508   0.968   3.513 -0.9051  0.4985 -0.0536
    4MOL   O176 2522   3.291   0.982   3.563  0.5860 -0.1699  0.0027
    4MOL   C177 2523   3.298   0.777   3.753  0.3704  0.4590 -0.7154
    4MOL   C178 2524   3.315   0.670   3.838 -0.2165  0.0188 -0.3377
    4MOL   H179 2525   3.704   0.093   3.943 -1.0371  0.1529  0.0158
    4MOL   H180 2526   3.757   0.111   4.095  0.7184 -1.5613 -0.8719
    4MOL   H181 2527   3.946   0.019   3.914  1.0178  0.2051 -1.7876
    4MOL   H182 2528   3.941   0.153   3.841 -0.5820  0.9514  0.3697
    4MOL   H183 2529   4.005   0.133   4.140 -0.7438 -1.5215 -1.7110
    4MOL   H184 2530   4.189   0.028   4.007 -1.5374 -0.9458 -2.3570
    4MOL   H185 2531   4.190   0.171   3.905 -3.0162  0.2670 -0.4551
    4MOL   H186 2532   4.070   0.363   4.125  2.3662 -2.8485  0.3810
    4MOL   H187 2533   4.043   0.368   3.954  0.5742 -1.1562 -0.6572
    4MOL   H188 2534   3.849   0.480   4.057 -2.5194 -1.2226 -2.3996
    4MOL   H189 2535   3.851   0.341   4.181 -1.0458 -1.4740  0.4397
    4MOL   H190 2536   3.777   0.324   3.891 -2.1282 -1.3554 -0.9506
    4MOL   H191 2537   3.547   0.258   4.001  1.0670  0.5985  0.5322
    4MOL   H192 2538   3.604   0.348   4.136  1.1360  0.6134  0.1153
    4MOL   H193 2539   3.652   0.605   3.788 -0.5467 -1.5692 -1.6138
    4MOL   H194 2540   3.629   0.794   3.651  0.0699  0.1045  1.0529
    4MOL   H195 2541   3.207   0.832   3.735  1.1457  1.8906 -0.3796
    4MOL   H196 2542   3.235   0.628   3.898  0.3480 -0.5319  0.0356
    4MOL   C197 2543   3.031   1.166   3.065 -0.1046  0.1109 -0.7631
    4MOL   C198 2544   3.105   1.064   3.138  0.4891  0.0304 -1.1404
    4MOL   C199 2545   3.170   1.133   3.259  0.2380 -0.5329  0.8715
    4MOL   C200 2546   3.239   1.029   3.346  0.3466  0.1641  0.2114
    4MOL   O201 2547   3.278   1.087   3.463  0.0390 -0.0137 -0.3554
    4MOL   C202 2548   3.278   1.232   3.209 -0.6989 -0.2365  0.6133
    4MOL   C203 2549   3.209   1.343   3.122  0.4239  0.0183 -0.5093
    4MOL   C204 2550   3.121   1.284   3.015 -0.2964 -0.2965  0.0446
    4MOL   C205 2551   3.032   1.396   2.947 -0.2444  0.3692 -0.1508
    4MOL   O206 2552   3.101   1.478   2.855  0.1608 -0.0678 -0.3242
    4MOL   C207 2553   3.120   1.447   2.726  0.5972 -0.4459  0.5870
    4MOL   O208 2554   3.073   1.345   2.676  0.5672  0.2699 -0.0446
    4MOL   C209 2555   3.183   1.548   2.630  0.0297 -0.6750  0.2019
    4MOL   C210 2556   3.209   1.521   2.493  0.1709  0.7062 -0.3467
    4MOL   C211 2557   3.281   1.613   2.423 -0.5685  0.4046 -0.1917
    4MOL   C212 2558   3.333   1.732   2.478 -0.2119  0.4561 -0.3601
    4MOL   C213 2559   3.425   1.818   2.392  0.1493 -0.1999 -0.2931
    4MOL   O214 2560   3.494   1.911   2.439 -0.6759 -0.7487 -0.1695
    4MOL   O215 2561   3.426   1.786   2.257 -0.0513 -0.1923 -0.1418
    4MOL   C216 2562   3.297   1.765   2.610  0.0745 -0.7120  0.2539
    4MOL   C217 2563   3.220   1.676   2.684 -0.3965  0.7990 -0.3043
    4MOL   H218 2564   2.960   1.133   2.989 -0.0694  0.8829 -1.1336
    4MOL   H219 2565   2.953   1.213   3.124  0.4965 -0.0306  0.1491
    4MOL   H220 2566   3.033   0.989   3.171 -1.3546  1.3544 -1.9999
    4MOL   H221 2567   3.170   1.009   3.070 -0.6807 -0.8322 -1.5845
    4MOL   H222 2568   3.098   1.190   3.317 -0.5840 -2.0378  1.3465
    4MOL   H223 2569   3.163   0.952   3.358 -1.9207  1.6290 -3.5928
    4MOL   H224 2570   3.322   0.987   3.289  0.8367 -1.9011  2.3943
    4MOL   H225 2571   3.333   1.283   3.288  0.4460 -0.3166 -0.1241
    4MOL   H226 2572   3.353   1.174   3.157 -1.9068 -0.4212 -0.9853
    4MOL   H227 2573   3.269   1.424   3.083 -0.3954 -1.2587 -4.6885
    4MOL   H228 2574   3.137   1.396   3.186 -1.1371 -2.5490 -0.0463
    4MOL   H229 2575   3.189   1.237   2.945  0.8194  0.3771  0.6548
    4MOL   H230 2576   2.940   1.357   2.902 -0.2749  0.6563 -0.3406
    4MOL   H231 2577   3.004   1.463   3.028  1.1382 -0.6916  1.2239
    4MOL   H232 2578   3.170   1.423   2.468  1.2050  0.2122 -0.0479
    4MOL   H233 2579   3.300   1.585   2.321 -1.4551  1.5513 -0.6928
    4MOL   H234 2580   3.333   1.851   2.666 -1.8206  0.3953 -0.2030
    4MOL   H235 2581   3.204   1.703   2.787 -0.1985 -2.5733  0.6680
    4MOL   C236 2582   3.609   2.298   2.062  0.3108  0.1125 -0.9171
    4MOL   C237 2583   3.522   2.194   2.134 -0.1985  0.6037  0.0202
    4MOL   C238 2584   3.493   2.078   2.025  0.0687  0.3522 -0.5393
    4MOL   C239 2585   3.429   1.961   2.106 -0.1091 -0.1172 -0.3379
    4MOL   O240 2586   3.516   1.871   2.165 -0.2663  0.1909  0.4563
    4MOL   C241 2587   3.402   2.121   1.911 -0.4165 -0.3178  0.3610
    4MOL   C242 2588   3.471   2.247   1.849 -0.0577 -0.8903  0.2549
    4MOL   C243 2589   3.531   2.351   1.942 -0.3973 -0.1532  0.9982
    4MOL   C244 2590   3.625   2.447   1.862 -0.4934  0.0496  0.4220
    4MOL   O245 2591   3.633   2.567   1.940  0.2744  0.7229 -0.0039
    4MOL   C246 2592   3.554   2.676   1.920  0.3352  0.2671  0.2223
    4MOL   O247 2593   3.468   2.682   1.834 -0.1909 -0.2441 -0.2669
    4MOL   C248 2594   3.601   2.791   2.002  0.1800 -0.0234  0.2402
    4MOL   C249 2595   3.530   2.914   2.000  0.4821  0.4653  0.1202
    4MOL   C250 2596   3.571   3.017   2.083  0.0631 -0.2684 -0.0079
    4MOL   C251 2597   3.680   3.009   2.165 -0.1562 -0.1554 -0.2100
    4MOL   C252 2598   3.725   3.134   2.238 -0.6451 -0.2052  0.4424
    4MOL   O253 2599   3.648   3.232   2.259 -0.5492  0.5629 -0.3823
    4MOL   O254 2600   3.851   3.131   2.275 -0.5413  0.3432  0.0729
    4MOL   C255 2601   3.754   2.889   2.170 -0.1333 -0.2510  0.5103
    4MOL   C256 2602   3.715   2.775   2.088  0.0741  0.2428 -0.2641
    4MOL   H257 2603   3.627   2.385   2.125  0.0285 -0.6151  0.1837
    4MOL   H258 2604   3.699   2.251   2.023 -1.3742 -3.3426 -0.8496
    4MOL   H259 2605   3.575   2.158   2.223 -1.3259  0.9065  0.8206
    4MOL   H260 2606   3.432   2.232   2.182 -1.4392 -1.0518 -0.9386
    4MOL   H261 2607   3.588   2.057   1.977  0.7313 -0.3386  1.0350
    4MOL   H262 2608   3.353   2.000   2.174 -1.2474 -0.1095 -1.5993
    4MOL   H263 2609   3.369   1.902   2.036 -0.0391 -0.7444  0.1337
    4MOL   H264 2610   3.374   2.035   1.851  0.1240  0.5727 -1.2279
    4MOL   H265 2611   3.305   2.160   1.942  0.2373 -0.1183  2.2148
    4MOL   H266 2612   3.396   2.284   1.779  1.5766  1.0786 -0.4860
    4MOL   H267 2613   3.546   2.210   1.780 -0.0494 -0.0340 -0.2049
    4MOL   H268 2614   3.455   2.415   1.986 -1.8509 -0.7079 -0.6410
    4MOL   H269 2615   3.721   2.396   1.856 -0.5749 -0.1103  0.4591
    4MOL   H270 2616   3.582   2.468   1.764 -4.1595  0.1166  1.9527
    4MOL   H271 2617   3.448   2.928   1.931  0.3789 -2.4524 -0.3894
    4MOL   H272 2618   3.529   3.115   2.066  0.1484 -0.3247 -0.5617
    4MOL   H273 2619   3.836   2.886   2.240  1.9366 -0.0501 -1.8508
    4MOL   H274 2620   3.761   2.678   2.101  0.9631  0.7945  0.8081
    4MOL   C275 2621   4.228   3.528   2.471  0.3339  0.3709 -0.4997
    4MOL   C276 2622   4.147   3.413   2.414  0.0239  0.2314  0.5140
    4MOL   C277 2623   4.040   3.456   2.306  0.3487 -0.2507  0.1463
    4MOL   C278 2624   3.980   3.336   2.244 -0.1230 -0.4722  0.3355
    4MOL   O279 2625   3.903   3.259   2.338 -0.0425 -0.0131 -0.3224
    4MOL   C280 2626   3.944   3.549   2.378  0.0179 -0.8924  0.3035
    4MOL   C281 2627   4.015   3.674   2.439  1.0235 -0.7272 -0.1635
    4MOL   C282 2628   4.137   3.637   2.529  0.0371 -0.3530 -0.7248
    4MOL   C283 2629   4.223   3.755   2.571 -0.5837  0.2216  0.6374
    4MOL   O284 2630   4.299   3.711   2.681 -0.4467  0.5404  0.4800
    4MOL   C285 2631   4.419   3.757   2.701  0.6462 -0.5343  0.2999
    4MOL   O286 2632   4.465   3.834   2.619  0.3192  0.1908  0.3938
    4MOL   C287 2633   4.485   3.716   2.829  0.0480  0.3162  0.3622
    4MOL   C288 2634   4.419   3.645   2.924 -0.0910 -0.1177 -0.0400
    4MOL   C289 2635   4.483   3.609   3.045 -0.3130 -0.6068  0.3126
    4MOL   C290 2636   4.625   3.636   3.063  0.9160 -0.5850  0.4164
    4MOL   C291 2637   4.702   3.596   3.180 -0.2012 -0.3658  0.3281
    4MOL   O292 2638   4.822   3.565   3.185  0.2774  0.0728 -0.0878
    4MOL   O293 2639   4.612   3.603   3.292  0.7024  0.1266  0.0864
    4MOL   C294 2640   4.692   3.716   2.966  0.6491  0.4090 -0.5267
    4MOL   C295 2641   4.613   3.761   2.859  0.4728  0.5114  0.2767
    4MOL   H296 2642   4.300   3.495   2.545  0.1377 -0.4932 -0.6927
    4MOL   H297 2643   4.292   3.562   2.389  2.5778 -0.8071  0.7398
    4MOL   H298 2644   4.218   3.344   2.368 -1.3952 -0.3757 -0.8025
    4MOL   H299 2645   4.095   3.355   2.490 -1.1596  1.4222  0.6345
    4MOL   H300 2646   4.092   3.511   2.228 -1.7472  0.3198 -0.8778
    4MOL   H301 2647   3.921   3.372   2.159 -0.4170  1.7721  1.4556
    4MOL   H302 2648   4.057   3.268   2.208 -0.7713 -0.9592 -0.1566
    4MOL   H303 2649   3.858   3.586   2.321  0.5391  1.7267  1.1554
    4MOL   H304 2650   3.898   3.494   2.460  1.2351  0.8785  2.2222
    4MOL   H305 2651   3.942   3.734   2.493  1.5311  0.0085 -0.2989
    4MOL   H306 2652   4.048   3.733   2.354  1.1630 -1.3782 -0.5694
    4MOL   H307 2653   4.091   3.605   2.622 -0.2437 -0.9644 -1.0748
    4MOL   H308 2654   4.276   3.805   2.489  0.0158  1.2955  1.6729
    4MOL   H309 2655   4.161   3.830   2.619  1.5733  2.5165 -0.0908
    4MOL   H310 2656   4.314   3.626   2.907 -0.3770  0.3054  1.2139
    4MOL   H311 2657   4.425   3.560   3.122 -1.3803 -0.3352 -0.3119
    4MOL   H312 2658   4.792   3.746   2.991 -0.5067  2.4333  1.8815
    4MOL   H313 2659   4.662   3.812   2.778  2.8450 -2.8157 -0.5067
    4MOL   C314 2660   4.441   3.227   3.670 -0.3381  0.0933  0.4216
    4MOL   C315 2661   4.569   3.283   3.598 -0.0289 -0.0787 -0.2221
    4MOL   C316 2662   4.554   3.424   3.531 -0.1196  0.0931 -0.2404
    4MOL   C317 2663   4.691   3.467   3.476  0.3729 -0.0858  0.5655
    4MOL   O318 2664   4.682   3.601   3.430  0.6310 -0.3725 -0.3367
    4MOL   C319 2665   4.437   3.410   3.425 -0.5935 -0.6362 -0.3766
    4MOL   C320 2666   4.314   3.366   3.506  0.4209  0.8880 -0.7354
    4MOL   C321 2667   4.329   3.222   3.564 -0.5055  0.0183 -0.3217
    4MOL   C322 2668   4.204   3.184   3.638  0.0059  0.7436  0.2356
    4MOL   O323 2669   4.097   3.188   3.537  0.2995 -0.7771 -0.0122
    4MOL   C324 2670   4.080   3.076   3.456 -0.0190  0.1223 -0.5886
    4MOL   O325 2671   4.158   2.979   3.460 -0.5000 -0.0548  0.4686
    4MOL   C326 2672   3.964   3.087   3.365 -0.8016  0.2871  0.5487
    4MOL   C327 2673   3.945   2.977   3.275 -0.5699  0.2197  1.2507
    4MOL   C328 2674   3.844   2.986   3.182  0.3663 -0.5153 -1.0408
    4MOL   C329 2675   3.758   3.098   3.178 -1.0368 -0.1454 -0.5898
    4MOL   C330 2676   3.666   3.109   3.064  0.1554 -0.5062  0.0974
    4MOL   O331 2677   3.666   3.033   2.968 -0.1102 -0.3225  0.2562
    4MOL   O332 2678   3.592   3.216   3.071 -0.1507  0.4180 -0.1002
    4MOL   C333 2679   3.773   3.203   3.272 -0.8008  0.2975 -0.4376
    4MOL   C334 2680   3.877   3.196   3.369  0.2139  0.4856 -0.5450
    4MOL   H335 2681   4.442   3.129   3.719 -2.0132  0.5948  1.5114
    4MOL   H336 2682   4.411   3.279   3.761 -4.5477  1.0924 -1.4056
    4MOL   H337 2683   4.645   3.310   3.671 -1.0716  2.8130 -0.1646
    4MOL   H338 2684   4.608   3.213   3.524  1.5059  0.0544  0.4224
    4MOL   H339 2685   4.524   3.484   3.617 -0.9152 -2.3382  1.2325
    4MOL   H340 2686   4.762   3.472   3.559  0.1735 -0.4167  0.7577
    4MOL   H341 2687   4.732   3.404   3.398  1.3916  0.0939  0.9468
    4MOL   H342 2688   4.417   3.499   3.366 -1.1844 -0.9744 -0.6913
    4MOL   H343 2689   4.461   3.330   3.355  1.3491  0.0977 -0.5809
    4MOL   H344 2690   4.228   3.365   3.438  0.5883 -1.0343 -0.9595
    4MOL   H345 2691   4.303   3.427   3.595  0.2101  2.0423 -1.5505
    4MOL   H346 2692   4.360   3.155   3.484  2.5071  0.7129  0.2016
    4MOL   H347 2693   4.216   3.091   3.692 -0.1244 -0.0331 -1.0525
    4MOL   H348 2694   4.192   3.256   3.719 -0.3599  0.9231  0.0271
    4MOL   H349 2695   4.010   2.891   3.264 -1.3486  0.0759 -2.8929
    4MOL   H350 2696   3.837   2.907   3.108  1.4820  0.0720 -1.7892
    4MOL   H351 2697   3.708   3.287   3.256  1.4513  1.9407 -1.0879
    4MOL   H352 2698   3.883   3.282   3.433  0.8366 -2.0769  3.0393
    4MOL   C353 2699   3.348   2.934   2.722 -0.1121  0.3720 -0.3377
    4MOL   C354 2700   3.395   3.075   2.759 -0.2968 -0.9098 -0.1951
    4MOL   C355 2701   3.336   3.106   2.900  0.9491  0.6975  0.1016
    4MOL   C356 2702   3.389   3.244   2.944  0.1895  0.6573 -0.0203
    4MOL   O357 2703   3.526   3.263   2.942 -0.4773  0.1668  0.0360
    4MOL   C358 2704   3.175   3.110   2.890 -1.1172 -0.1799  0.6404
    4MOL   C359 2705   3.130   2.969   2.847  0.0034  0.7379 -0.5505
    4MOL   C360 2706   3.192   2.922   2.714 -0.5576 -0.1302 -0.2114
    4MOL   C361 2707   3.167   2.779   2.680 -0.5302  0.0588 -0.0158
    4MOL   O362 2708   3.029   2.752   2.693 -0.0862 -0.4252 -0.6012
    4MOL   C363 2709   2.973   2.680   2.595 -0.2240 -0.3702  0.0977
    4MOL   O364 2710   3.040   2.629   2.509 -0.1080 -0.0761 -0.1212
    4MOL   C365 2711   2.820   2.668   2.617  0.2758 -0.1369 -0.2504
    4MOL   C366 2712   2.739   2.605   2.520  0.0072  0.5122 -0.0364
    4MOL   C367 2713   2.595   2.599   2.538  0.0380  0.4827  0.0557
    4MOL   C368 2714   2.536   2.643   2.658  0.3333 -0.1315  0.3362
    4MOL   C369 2715   2.387   2.630   2.673 -0.6526 -0.0647 -0.4656
    4MOL   O370 2716   2.314   2.582   2.583 -0.4166 -0.2879  0.3676
    4MOL   O371 2717   2.343   2.663   2.796 -0.8093  0.1517 -0.0545
    4MOL   C372 2718   2.616   2.709   2.757  0.4747  0.8576  0.3868
    4MOL   C373 2719   2.754   2.729   2.730 -0.7179  0.1829  0.2218
    4MOL   H374 2720   3.390   2.897   2.628  4.1938  0.4935  1.3883
    4MOL   H375 2721   3.389   2.863   2.794 -0.1236  0.5720 -0.1319
    4MOL   H376 2722   3.503   3.087   2.766 -0.4814 -0.3291  2.3611
    4MOL   H377 2723   3.357   3.147   2.687 -1.4659  0.9432  2.2078
    4MOL   H378 2724   3.358   3.021   2.966 -0.2881  1.8872  2.0995
    4MOL   H379 2725   3.345   3.319   2.879 -0.4782 -0.2888 -0.6709
    4MOL   H380 2726   3.357   3.272   3.044  0.4695  2.1492 -0.3387
    4MOL   H381 2727   3.136   3.134   2.989 -0.6971 -1.1697  1.0557
    4MOL   H382 2728   3.143   3.187   2.820  1.7183  0.5000  0.0097
    4MOL   H383 2729   3.022   2.964   2.833  0.2109  0.9102 -2.3513
    4MOL   H384 2730   3.157   2.897   2.924  0.9525  1.7874  0.1051
    4MOL   H385 2731   3.154   2.987   2.635  1.9048  0.5700 -0.8479
    4MOL   H386 2732   3.210   2.768   2.580  1.2578 -0.4560  0.7874
    4MOL   H387 2733   3.223   2.717   2.750 -0.0418  1.1501  0.5741
    4MOL   H388 2734   2.789   2.577   2.428 -1.6955 -2.7191 -0.0494
    4MOL   H389 2735   2.534   2.555   2.461  0.4981 -1.0119  0.5152
    4MOL   H390 2736   2.566   2.745   2.846 -2.0004  3.2089 -1.8667
    4MOL   H391 2737   2.808   2.786   2.804  1.0570 -0.0622 -0.8758
    4MOL   C392 2738   1.778   2.383   2.854  0.2538  0.4954 -0.1918
    4MOL   C393 2739   1.932   2.393   2.876  0.3708 -0.0064 -0.3608
    4MOL   C394 2740   1.992   2.524   2.825 -0.4035 -0.2295  0.2024
    4MOL   C395 2741   2.147   2.527   2.841  0.4406 -0.0780  0.2533
    4MOL   O396 2742   2.193   2.655   2.812 -0.0489  0.4624  0.7782
    4MOL   C397 2743   1.948   2.558   2.683  0.1106  0.6037  0.0560
    4MOL   C398 2744   1.795   2.536   2.662  0.4577  0.1799 -0.1127
    4MOL   C399 2745   1.741   2.401   2.707  0.0508  0.1453 -0.2775
    4MOL   C400 2746   1.590   2.389   2.677 -1.3920  0.1668 -0.4735
    4MOL   O401 2747   1.533   2.263   2.694 -0.0995 -0.4086  0.4100
    4MOL   C402 2748   1.410   2.237   2.643 -0.3582  0.6330 -0.1609
    4MOL   O403 2749   1.356   2.319   2.568  0.4411 -0.5207 -0.6372
    4MOL   C404 2750   1.358   2.103   2.690  0.0834  0.0649  0.2187
    4MOL   C405 2751   1.433   2.029   2.779  0.3664 -0.3723 -0.4228
    4MOL   C406 2752   1.373   1.919   2.845  0.6112 -0.2706 -0.1190
    4MOL   C407 2753   1.235   1.894   2.830 -0.4741  0.6306  0.0193
    4MOL   C408 2754   1.170   1.779   2.902 -0.4478 -0.4000  0.0309
    4MOL   O409 2755   1.063   1.735   2.864  0.8596 -0.2768 -0.2398
    4MOL   O410 2756   1.240   1.726   3.010  0.0099  0.1789 -0.5705
    4MOL   C411 2757   1.167   1.963   2.729 -0.3719 -0.1027 -0.2794
    4MOL   C412 2758   1.226   2.066   2.659  0.3464  0.2275  0.5367
    4MOL   H413 2759   1.743   2.282   2.874  0.4788  0.5149  0.3066
    4MOL   H414 2760   1.720   2.457   2.909  1.1667 -1.7449  3.9955
    4MOL   H415 2761   1.960   2.378   2.980  1.2640 -0.9965 -0.7376
    4MOL   H416 2762   1.968   2.312   2.813  0.0573 -0.7214  0.3684
    4MOL   H417 2763   1.957   2.603   2.892 -0.4692  0.5352 -0.7242
    4MOL   H418 2764   2.185   2.507   2.942 -2.0807  0.5579  1.3852
    4MOL   H419 2765   2.186   2.451   2.773  1.8815  1.0068 -0.1493
    4MOL   H420 2766   1.970   2.660   2.654 -1.2523  1.3511  1.5788
    4MOL   H421 2767   1.993   2.478   2.624 -0.3503 -0.4827  1.1337
    4MOL   H422 2768   1.776   2.550   2.555  0.3103  1.0111  0.0169
    4MOL   H423 2769   1.731   2.603   2.719 -1.1099 -0.8452 -0.6350
    4MOL   H424 2770   1.780   2.320   2.644  1.0141  0.4895 -0.1425
    4MOL   H425 2771   1.534   2.455   2.743  0.8680  0.7134  0.9663
    4MOL   H426 2772   1.578   2.424   2.574  1.1097  1.9432 -0.2036
    4MOL   H427 2773   1.535   2.056   2.803 -0.2420  1.5480  0.0908
    4MOL   H428 2774   1.430   1.871   2.923  1.4316  1.0654  0.1195
    4MOL   H429 2775   1.064   1.939   2.709 -0.7028  0.2566  0.9113
    4MOL   H430 2776   1.163   2.130   2.598  1.3076  0.5022 -0.1757
    4MOL   C431 2777   0.932   1.273   3.207  0.3103  0.1143 -0.1366
    4MOL   C432 2778   1.007   1.376   3.119 -0.2168 -0.3610 -0.5314
    4MOL   C433 2779   1.161   1.388   3.152 -0.5536 -0.5414 -0.2154
    4MOL   C434 2780   1.227   1.494   3.059  0.3419  0.3195 -0.0810
    4MOL   O435 2781   1.165   1.618   3.085  0.5777 -0.0956 -0.5298
    4MOL   C436 2782   1.187   1.422   3.295  0.3893  0.0988  0.0028
    4MOL   C437 2783   1.114   1.325   3.389 -0.3179  0.2152 -0.1179
    4MOL   C438 2784   0.958   1.309   3.356 -0.8067  0.6033 -0.9187
    4MOL   C439 2785   0.909   1.199   3.452  0.1987 -0.4672  0.1739
    4MOL   O440 2786   0.766   1.194   3.451  0.4952  0.2242  0.6755
    4MOL   C441 2787   0.698   1.096   3.386  0.0733  0.0177 -0.2437
    4MOL   O442 2788   0.754   0.996   3.335  0.4044 -0.2793  0.1643
    4MOL   C443 2789   0.550   1.119   3.389 -1.0061  0.1435 -0.4852
    4MOL   C444 2790   0.463   1.023   3.334 -0.0635 -0.0046 -0.1869
    4MOL   C445 2791   0.324   1.036   3.332 -0.5736  0.4168  0.4763
    4MOL   C446 2792   0.276   1.163   3.386 -0.2566 -0.2199 -0.6212
    4MOL   C447 2793   0.130   1.194   3.367  0.5006 -0.5136 -0.6602
    4MOL   O448 2794   0.067   1.143   3.278  0.6089  0.1480 -0.1770
    4MOL   O449 2795   0.097   1.304   3.443  0.6220  0.1415  0.1602
    4MOL   C450 2796   0.363   1.257   3.450 -0.0346 -0.2689  0.0128
    4MOL   C451 2797   0.503   1.236   3.454  0.0429  0.7996  0.3897
    4MOL   H452 2798   0.826   1.265   3.184  0.2807 -1.1316  0.3998
    4MOL   H453 2799   0.992   1.184   3.190  0.8994  0.0385  2.1827
    4MOL   H454 2800   0.976   1.344   3.020  1.6866 -2.5635 -0.4694
    4MOL   H455 2801   0.959   1.471   3.141 -0.3268 -0.4824 -0.2469
    4MOL   H456 2802   1.210   1.295   3.124  1.0924  0.3177 -0.2154
    4MOL   H457 2803   1.332   1.519   3.075  0.5598 -1.1197  0.7893
    4MOL   H458 2804   1.218   1.459   2.956  2.0423 -1.7536  0.4623
    4MOL   H459 2805   1.293   1.416   3.318  0.9832  2.6115 -1.8962
    4MOL   H460 2806   1.136   1.516   3.317  0.1237 -0.6099  2.6355
    4MOL   H461 2807   1.115   1.356   3.494 -0.3368  1.6561 -0.5361
    4MOL   H462 2808   1.156   1.225   3.395  2.1366  1.1496 -1.2696
    4MOL   H463 2809   0.906   1.401   3.383 -2.2371 -0.9074  1.7706
    4MOL   H464 2810   0.955   1.101   3.434  0.4870 -0.1506 -0.8657
    4MOL   H465 2811   0.935   1.236   3.551  2.0586 -1.5193  0.1071
    4MOL   H466 2812   0.519   0.949   3.279  0.1274 -0.8514  1.1306
    4MOL   H467 2813   0.255   0.964   3.291  0.6087 -0.4230 -0.0498
    4MOL   H468 2814   0.332   1.348   3.498 -0.3307  0.0608 -0.7947
    4MOL   H469 2815   0.567   1.306   3.506  1.7208 -0.5064  0.1041
    4MOL   C470 2816   7.700   1.306   3.093 -0.0110 -0.1710  0.0349
    4MOL   C471 2817   7.823   1.297   3.196  0.2877 -0.3193 -0.8322
    4MOL   C472 2818   7.791   1.366   3.328 -0.2292 -0.1906  0.2953
    4MOL   C473 2819   7.894   1.334   3.439 -0.3639 -0.4030  0.3519
    4MOL   O474 2820   8.017   1.380   3.388  0.0150  0.2179  0.0095
    4MOL   C475 2821   7.744   1.516   3.311  0.1335 -0.1363 -0.1671
    4MOL   C476 2822   7.627   1.526   3.213 -0.3045 -0.2606  0.0151
    4MOL   C477 2823   7.662   1.454   3.076  0.4198 -0.1743 -0.3085
    4MOL   C478 2824   7.553   1.471   2.965  0.1043 -0.9386  0.3458
    4MOL   O479 2825   7.519   1.614   2.952 -0.2505 -0.5406 -0.0537
    4MOL   C480 2826   7.587   1.694   2.870  0.1859  0.0111  0.3916
    4MOL   O481 2827   7.695   1.659   2.819 -0.1756 -0.3516  0.1751
    4MOL   C482 2828   7.529   1.829   2.857 -0.1386 -0.3859  0.0207
    4MOL   C483 2829   7.607   1.929   2.789 -0.0810 -0.6058 -0.0231
    4MOL   C484 2830   7.551   2.061   2.768 -0.2834  0.5710  0.5057
    4MOL   C485 2831   7.413   2.088   2.799 -0.2246 -0.2944  0.0832
    4MOL   C486 2832   7.346   2.216   2.760  0.0253 -0.4444  0.5622
    4MOL   O487 2833   7.225   2.236   2.773  0.8025 -0.5939  0.8122
    4MOL   O488 2834   7.436   2.313   2.726  0.3726  0.2983 -0.1793
    4MOL   C489 2835   7.338   1.983   2.853  0.0039  0.0982  0.3096
    4MOL   C490 2836   7.390   1.855   2.879  0.0380 -0.3002  0.1763
    4MOL   H491 2837   7.742   1.263   3.002  1.6079  0.4856  0.4617
    4MOL   H492 2838   7.616   1.246   3.127  0.3934  0.2353  1.7798
    4MOL   H493 2839   7.844   1.191   3.205 -1.5206 -0.6093  0.1634
    4MOL   H494 2840   7.917   1.336   3.156 -0.5383  0.5174 -2.0053
    4MOL   H495 2841   7.700   1.321   3.368 -0.5084 -0.4436 -0.6171
    4MOL   H496 2842   7.859   1.372   3.535  1.6073  0.8223  0.6010
    4MOL   H497 2843   7.895   1.226   3.454  0.3148 -0.2896  1.1644
    4MOL   H498 2844   7.725   1.554   3.411  1.4217  0.3133 -0.0793
    4MOL   H499 2845   7.820   1.581   3.267  0.5983 -1.4260 -1.3156
    4MOL   H500 2846   7.606   1.633   3.203  0.7239  0.1036  1.6423
    4MOL   H501 2847   7.537   1.475   3.248  0.9401 -1.4588  1.5481
    4MOL   H502 2848   7.750   1.504   3.034  0.7270 -2.1731 -2.1657
    4MOL   H503 2849   7.584   1.434   2.867 -1.2408 -0.3431 -0.3133
    4MOL   H504 2850   7.466   1.415   2.999 -1.0196  0.3386 -0.3633
    4MOL   H505 2851   7.706   1.900   2.758  0.5562  0.9542  0.5312
    4MOL   H506 2852   7.620   2.132   2.725  0.0750 -0.9253 -1.4451
    4MOL   H507 2853   7.232   1.998   2.868 -0.4898 -1.5661 -1.2107
    4MOL   H508 2854   7.316   1.780   2.902 -1.2518  0.9097 -0.0026
    4MOL   C509 2855   7.124   2.796   2.822 -0.0291  0.4560 -0.3038
    4MOL   C510 2856   7.194   2.655   2.790  0.3563  0.0275  0.6757
    4MOL   C511 2857   7.331   2.652   2.850  0.5723 -0.4123  0.1537
    4MOL   C512 2858   7.404   2.514   2.838 -0.8142 -0.1379 -0.0385
    4MOL   O513 2859   7.380   2.451   2.715 -0.0122 -0.1215 -0.7141
    4MOL   C514 2860   7.420   2.762   2.788  0.3032 -0.5492 -0.2662
    4MOL   C515 2861   7.359   2.898   2.808  0.6081 -0.4665  0.2793
    4MOL   C516 2862   7.206   2.917   2.772 -0.1603 -0.3677  0.2032
    4MOL   C517 2863   7.154   3.053   2.826 -0.0573  1.1761 -0.4003
    4MOL   O518 2864   7.160   3.058   2.970  0.4079  0.3706  0.4305
    4MOL   C519 2865   7.206   3.167   3.039  0.0605  0.6109 -1.2314
    4MOL   O520 2866   7.246   3.269   2.986 -0.3044 -0.5294  0.4320
    4MOL   C521 2867   7.191   3.150   3.184  0.4317 -0.1241 -0.4995
    4MOL   C522 2868   7.146   3.024   3.239 -0.4826  0.2664 -0.5041
    4MOL   C523 2869   7.145   3.003   3.379 -0.0966  0.6354  0.6624
    4MOL   C524 2870   7.205   3.096   3.464  0.6363  0.2435  0.2669
    4MOL   C525 2871   7.235   3.059   3.609 -0.2877 -0.5935  0.0860
    4MOL   O526 2872   7.285   3.132   3.689 -0.7482 -0.3737  0.2307
    4MOL   O527 2873   7.203   2.928   3.627 -0.2066  0.1099 -0.1771
    4MOL   C528 2874   7.238   3.222   3.417 -0.7224  1.1596 -0.3709
    4MOL   C529 2875   7.236   3.247   3.277 -0.3718  0.0194 -0.8618
    4MOL   H530 2876   7.030   2.804   2.769 -1.3308  1.4828  2.0782
    4MOL   H531 2877   7.106   2.804   2.929  0.3998 -1.3173 -0.0761
    4MOL   H532 2878   7.137   2.575   2.838  1.1826  0.1878  1.9382
    4MOL   H533 2879   7.204   2.638   2.683 -0.2965 -0.8979  0.7521
    4MOL   H534 2880   7.316   2.681   2.954  0.4694 -0.8741  0.2719
    4MOL   H535 2881   7.511   2.527   2.849 -0.6866 -0.1679 -1.1587
    4MOL   H536 2882   7.358   2.450   2.913 -1.0587  0.7088  0.5391
    4MOL   H537 2883   7.519   2.746   2.831  0.2130 -1.3518 -0.3512
    4MOL   H538 2884   7.440   2.740   2.683  0.1320 -2.4288  0.0672
    4MOL   H539 2885   7.410   2.975   2.749 -3.0648  1.4423 -0.5755
    4MOL   H540 2886   7.371   2.922   2.913  1.3140  0.8853 -0.0947
    4MOL   H541 2887   7.198   2.935   2.665  1.4328  0.4262  0.1973
    4MOL   H542 2888   7.207   3.140   2.787  0.6343  1.3463  0.9152
    4MOL   H543 2889   7.047   3.063   2.806  0.0713  0.4057 -1.5929
    4MOL   H544 2890   7.105   2.948   3.174 -2.1057  2.8144 -2.5484
    4MOL   H545 2891   7.135   2.900   3.411  1.9026  0.1108 -0.3125
    4MOL   H546 2892   7.273   3.292   3.491 -0.3594  0.1116  0.4554
    4MOL   H547 2893   7.266   3.343   3.238  1.7760 -0.0550  0.4994
    4MOL   C548 2894   7.343   2.387   3.757 -0.2164  0.1554  0.1040
    4MOL   C549 2895   7.399   2.532   3.765 -0.9737 -0.1139 -0.6087
    4MOL   C550 2896   7.293   2.641   3.741 -1.2057 -0.6392 -0.1475
    4MOL   C551 2897   7.348   2.787   3.746  0.3413 -0.5019  0.5862
    4MOL   O552 2898   7.239   2.876   3.767  0.2426  0.1880 -0.3885
    4MOL   C553 2899   7.218   2.616   3.612  0.5173  0.7352  0.2520
    4MOL   C554 2900   7.154   2.475   3.612  0.5193 -0.2538  0.3383
    4MOL   C555 2901   7.269   2.363   3.628 -0.7983 -0.3434  0.0406
    4MOL   C556 2902   7.216   2.219   3.627  0.1124  0.1230 -0.0101
    4MOL   O557 2903   7.084   2.206   3.693 -1.0514 -0.5454  0.1236
    4MOL   C558 2904   7.033   2.084   3.719  0.1465  0.5298  0.2487
    4MOL   O559 2905   7.077   1.973   3.699 -0.5831 -0.4756 -0.4966
    4MOL   C560 2906   6.904   2.102   3.794 -0.1933  0.3807 -0.1956
    4MOL   C561 2907   6.819   1.993   3.811  0.1655  0.6615 -0.3413
    4MOL   C562 2908   6.700   2.006   3.886  0.0198  0.7098  0.2065
    4MOL   C563 2909   6.675   2.125   3.958 -0.8172  0.1311  0.7761
    4MOL   C564 2910   6.563   2.144   4.049 -0.7906 -0.4161  0.1342
    4MOL   O565 2911   6.502   2.247   4.059  0.1178  0.0871  0.2858
    4MOL   O566 2912   6.532   2.032   4.116  0.0613 -0.2502 -0.0815
    4MOL   C567 2913   6.758   2.237   3.929 -0.2735 -0.3709 -0.4528
    4MOL   C568 2914   6.867   2.223   3.846  0.1779 -0.4662 -0.2945
    4MOL   H569 2915   7.422   2.313   3.772 -0.3139 -0.0362 -0.3359
    4MOL   H570 2916   7.275   2.383   3.842 -1.4050  1.0999 -0.7925
    4MOL   H571 2917   7.435   2.533   3.868  3.7691 -1.5285 -2.1521
    4MOL   H572 2918   7.482   2.545   3.696 -1.0787  0.7758 -0.5692
    4MOL   H573 2919   7.222   2.619   3.821  0.1019 -1.9250  0.6953
    4MOL   H574 2920   7.426   2.802   3.821 -0.4857  2.1719  0.9761
    4MOL   H575 2921   7.402   2.809   3.654  1.7662  0.6686  1.6632
    4MOL   H576 2922   7.140   2.692   3.611 -0.2031 -0.0082 -1.2345
    4MOL   H577 2923   7.284   2.636   3.528  1.1105 -1.5254  0.1463
    4MOL   H578 2924   7.118   2.472   3.510 -0.4471 -5.2772  0.6947
    4MOL   H579 2925   7.078   2.472   3.690 -1.3409 -0.8579 -1.4497
    4MOL   H580 2926   7.344   2.379   3.550 -0.5553  0.4977  0.4418
    4MOL   H581 2927   7.190   2.183   3.527 -1.5343 -0.1382  0.4851
    4MOL   H582 2928   7.289   2.152   3.671 -0.0942 -1.2284 -1.7135
    4MOL   H583 2929   6.849   1.897   3.770 -1.6300  0.0826 -0.3175
    4MOL   H584 2930   6.638   1.918   3.894  0.7890  0.1302 -0.1234
    4MOL   H585 2931   6.745   2.335   3.974 -0.6065  0.3521 -2.0708
    4MOL   H586 2932   6.919   2.315   3.827  2.4322 -1.8119 -0.8061
    4MOL   C587 2933   6.036   2.003   4.373  0.2377 -0.1284 -0.2005
    4MOL   C588 2934   6.177   1.990   4.319 -0.1479 -0.4642  0.1397
    4MOL   C589 2935   6.182   2.011   4.166  0.1450 -0.3638 -0.3010
    4MOL   C590 2936   6.326   1.967   4.125 -0.2048 -0.4230  0.0626
    4MOL   O591 2937   6.408   2.047   4.188 -0.5415 -0.3026 -0.2940
    4MOL   C592 2938   6.080   1.926   4.094  0.0606 -0.4645  0.6769
    4MOL   C593 2939   5.941   1.942   4.147 -0.1422  0.0068 -0.1834
    4MOL   C594 2940   5.948   1.908   4.297 -0.2162 -0.3478  0.0667
    4MOL   C595 2941   5.807   1.905   4.362 -0.5641 -0.1344  0.0893
    4MOL   O596 2942   5.728   2.021   4.339  0.3997 -0.8434  0.1159
    4MOL   C597 2943   5.699   2.105   4.440 -0.1319 -0.7003 -0.4626
    4MOL   O598 2944   5.715   2.080   4.562 -0.2574  0.2070  0.4714
    4MOL   C599 2945   5.638   2.231   4.394  0.2697 -0.2977  0.1770
    4MOL   C600 2946   5.641   2.343   4.479 -0.3298 -0.3465 -0.3901
    4MOL   C601 2947   5.596   2.467   4.436 -0.0733  0.1135 -0.0072
    4MOL   C602 2948   5.539   2.480   4.308  0.1624  0.9321  0.4836
    4MOL   C603 2949   5.498   2.615   4.271  0.1403  0.1114  0.3319
    4MOL   O604 2950   5.493   2.655   4.152  0.0752  0.1412 -0.1394
    4MOL   O605 2951   5.468   2.695   4.384 -0.0792 -0.4168  0.2896
    4MOL   C606 2952   5.530   2.369   4.224 -0.3160 -0.1118 -0.4491
    4MOL   C607 2953   5.592   2.252   4.260 -0.1570  0.2123 -0.3991
    4MOL   H608 2954   6.053   1.976   4.477  0.7693  1.6320  0.1815
    4MOL   H609 2955   6.004   2.107   4.374 -0.5126 -0.3267 -2.1339
    4MOL   H610 2956   6.244   2.061   4.368  0.6404 -0.7611 -0.4911
    4MOL   H611 2957   6.232   1.899   4.344  1.5645  0.8918  1.4802
    4MOL   H612 2958   6.163   2.116   4.141 -1.0973 -0.7709 -1.1013
    4MOL   H613 2959   6.347   1.861   4.142 -0.6136 -0.6322 -0.7209
    4MOL   H614 2960   6.339   1.972   4.017  0.7310 -1.6018  0.1055
    4MOL   H615 2961   6.091   1.945   3.987  2.1790 -2.3115  0.5387
    4MOL   H616 2962   6.117   1.825   4.111 -0.1027 -0.5500  0.5330
    4MOL   H617 2963   5.892   1.859   4.096  0.5157 -0.6724  0.2800
    4MOL   H618 2964   5.901   2.040   4.122  1.1680 -0.2488 -3.4891
    4MOL   H619 2965   5.984   1.806   4.313  1.0975 -0.0123 -0.6606
    4MOL   H620 2966   5.748   1.822   4.323  0.0438 -0.0940 -0.9227
    4MOL   H621 2967   5.823   1.889   4.469 -0.3254  0.8648  0.2071
    4MOL   H622 2968   5.680   2.339   4.579  1.4959  0.7975 -1.0206
    4MOL   H623 2969   5.632   2.547   4.500 -0.8754  1.5238 -1.2921
    4MOL   H624 2970   5.494   2.374   4.123  1.7863  0.8765 -1.1784
    4MOL   H625 2971   5.596   2.170   4.191  2.9868  1.8055 -2.2235
    4MOL   C626 2972   5.577   3.009   4.747 -0.1673  0.0772 -0.1449
    4MOL   C627 2973   5.535   2.996   4.606  0.4332  0.1351  0.5868
    4MOL   C628 2974   5.632   2.925   4.511  0.0220  0.2229 -0.0293
    4MOL   C629 2975   5.583   2.909   4.365  0.2492  1.3972  0.7714
    4MOL   O630 2976   5.454   2.848   4.358 -0.0983 -0.2023  0.2329
    4MOL   C631 2977   5.769   3.002   4.517 -0.3297  0.2528 -0.3485
    4MOL   C632 2978   5.816   3.007   4.666 -0.0478  0.1746  0.3002
    4MOL   C633 2979   5.707   3.078   4.758 -0.5828 -0.3227 -0.7044
    4MOL   C634 2980   5.748   3.093   4.900 -0.8281  0.5994  0.1902
    4MOL   O635 2981   5.653   3.158   4.977 -0.5568 -0.4877 -0.8272
    4MOL   C636 2982   5.674   3.185   5.103  0.0047  0.1700 -0.0067
    4MOL   O637 2983   5.783   3.173   5.159  0.3919  0.1222  0.1204
    4MOL   C638 2984   5.540   3.216   5.167 -0.3421 -0.3760  0.0445
    4MOL   C639 2985   5.415   3.216   5.105  0.1217 -0.5737 -0.6788
    4MOL   C640 2986   5.294   3.247   5.179  0.0237 -0.1345 -0.1113
    4MOL   C641 2987   5.293   3.255   5.318  0.5675  0.2547 -0.3370
    4MOL   C642 2988   5.165   3.260   5.397 -0.0048  0.0323 -0.0981
    4MOL   O643 2989   5.049   3.225   5.354  0.5769  0.0379  0.0662
    4MOL   O644 2990   5.185   3.300   5.522 -0.5634 -0.1632 -0.4612
    4MOL   C645 2991   5.425   3.259   5.379  0.0681  0.0012  0.2583
    4MOL   C646 2992   5.541   3.236   5.305  0.3945 -0.2717 -0.4284
    4MOL   H647 2993   5.495   3.059   4.798 -0.8731 -1.4368  0.2327
    4MOL   H648 2994   5.590   2.910   4.791 -3.8450 -0.6548 -0.5573
    4MOL   H649 2995   5.442   2.940   4.608 -1.0990  2.6232  3.6108
    4MOL   H650 2996   5.503   3.090   4.561 -0.3553 -0.4594 -0.0940
    4MOL   H651 2997   5.648   2.821   4.540 -0.2430 -0.3354 -1.8134
    4MOL   H652 2998   5.571   3.009   4.323 -2.6314  0.9555  0.4095
    4MOL   H653 2999   5.658   2.854   4.309 -1.8067 -0.5307 -0.1830
    4MOL   H654 3000   5.830   2.948   4.445 -0.5686 -2.0276  1.1152
    4MOL   H655 3001   5.764   3.097   4.463 -2.0896  0.3133 -0.1156
    4MOL   H656 3002   5.907   3.066   4.673 -1.1464  1.9652  0.1618
    4MOL   H657 3003   5.839   2.906   4.699 -1.8031 -0.9019 -1.6371
    4MOL   H658 3004   5.700   3.181   4.723 -1.1737  0.1307  0.7310
    4MOL   H659 3005   5.773   3.007   4.961 -0.4041  1.5756  1.4099
    4MOL   H660 3006   5.837   3.155   4.910  1.0882 -2.2944  1.6034
    4MOL   H661 3007   5.400   3.205   4.999  0.3791  0.6772 -0.8538
    4MOL   H662 3008   5.196   3.248   5.134 -1.0453  0.8632  2.1969
    4MOL   H663 3009   5.442   3.273   5.485 -0.7220 -0.4570  0.4475
    4MOL   H664 3010   5.636   3.223   5.355  1.1575  1.4853 -1.3907
    4MOL   C665 3011   4.616   3.437   5.758 -0.4215 -0.8823  0.1630
    4MOL   C666 3012   4.751   3.469   5.685 -0.3294  0.4414 -0.6833
    4MOL   C667 3013   4.865   3.357   5.689 -0.1492 -0.2753  0.4317
    4MOL   C668 3014   5.001   3.398   5.631  0.2751  0.3263 -0.7082
    4MOL   O669 3015   5.071   3.280   5.614  0.3896 -0.7580  0.2299
    4MOL   C670 3016   4.885   3.301   5.831 -0.7382  0.1371 -0.1900
    4MOL   C671 3017   4.755   3.264   5.904 -0.1773  0.6567 -0.5357
    4MOL   C672 3018   4.649   3.384   5.896 -0.4668 -0.7064 -0.1655
    4MOL   C673 3019   4.510   3.346   5.963 -0.8662  0.3143  0.0761
    4MOL   O674 3020   4.523   3.334   6.100  0.0281  0.1866  0.9379
    4MOL   C675 3021   4.433   3.265   6.170  1.2261 -0.0720 -0.0849
    4MOL   O676 3022   4.349   3.193   6.118  0.1658  0.2744  0.4304
    4MOL   C677 3023   4.437   3.293   6.322 -0.0789 -0.5729  0.5108
    4MOL   C678 3024   4.524   3.387   6.376 -0.1042  0.2999 -0.1620
    4MOL   C679 3025   4.529   3.414   6.516  0.4777 -0.4530 -0.6875
    4MOL   C680 3026   4.455   3.339   6.606 -0.3487 -0.0961  0.6142
    4MOL   C681 3027   4.460   3.359   6.754 -0.4346  0.1813  0.2028
    4MOL   O682 3028   4.383   3.316   6.840 -0.5196  0.1172 -0.2629
    4MOL   O683 3029   4.557   3.445   6.780  0.0162  0.0116 -0.2522
    4MOL   C684 3030   4.360   3.242   6.555 -0.1695 -0.9510 -0.0869
    4MOL   C685 3031   4.354   3.224   6.416 -0.4915  0.3023  0.0851
    4MOL   H686 3032   4.559   3.531   5.756  3.1429  1.4074  1.2657
    4MOL   H687 3033   4.564   3.364   5.696 -0.7094  0.4865 -1.2646
    4MOL   H688 3034   4.726   3.486   5.580  2.9570 -0.6890 -1.7145
    4MOL   H689 3035   4.803   3.556   5.723  0.0034 -0.3409  0.7076
    4MOL   H690 3036   4.826   3.282   5.620 -0.2994  0.6545 -0.4914
    4MOL   H691 3037   4.976   3.440   5.534 -0.3127 -0.2802 -0.8238
    4MOL   H692 3038   5.056   3.465   5.698 -1.1449 -1.9527  2.9164
    4MOL   H693 3039   4.955   3.217   5.833 -0.1379  0.6387  2.9679
    4MOL   H694 3040   4.933   3.378   5.891  0.2789  0.2776 -1.1789
    4MOL   H695 3041   4.780   3.244   6.008  1.8881  0.9323 -0.9560
    4MOL   H696 3042   4.710   3.172   5.866  0.9629 -0.3729  0.5906
    4MOL   H697 3043   4.690   3.470   5.948 -1.2769 -1.2864  1.4774
    4MOL   H698 3044   4.438   3.427   5.950 -0.4581  0.7653  0.6067
    4MOL   H699 3045   4.468   3.258   5.914  0.2203  0.6967 -1.5435
    4MOL   H700 3046   4.586   3.449   6.313 -1.8929  1.0818 -1.1818
    4MOL   H701 3047   4.605   3.483   6.548  0.4883 -0.7059 -0.1531
    4MOL   H702 3048   4.311   3.175   6.624 -1.0090  0.8094  1.0394
    4MOL   H703 3049   4.278   3.159   6.376 -2.3894  2.0322  0.7779
    4MOL   C704 3050   4.618   3.570   7.375 -0.1279 -0.2075 -0.8204
    4MOL   C705 3051   4.638   3.562   7.223 -0.0556  0.1509 -0.1675
    4MOL   C706 3052   4.510   3.591   7.145  0.1471 -0.0728  0.0446
    4MOL   C707 3053   4.537   3.583   6.986 -0.2140  0.3472 -0.3668
    4MOL   O708 3054   4.583   3.454   6.937  0.0688  0.8096  0.4762
    4MOL   C709 3055   4.405   3.491   7.183  0.5748  0.2330 -0.1099
    4MOL   C710 3056   4.382   3.487   7.335 -0.4283 -0.6585  0.3084
    4MOL   C711 3057   4.507   3.464   7.417 -0.2471  0.5571 -0.5066
    4MOL   C712 3058   4.490   3.468   7.567  0.2860  0.0037  0.8131
    4MOL   O713 3059   4.604   3.456   7.651  1.0858 -0.2770 -0.2658
    4MOL   C714 3060   4.594   3.389   7.759 -0.1320 -0.3097  0.3290
    4MOL   O715 3061   4.491   3.336   7.800  0.0898 -0.3687 -0.0502
    4MOL   C716 3062   4.720   3.389   7.835 -0.0018 -0.0203 -0.4039
    4MOL   C717 3063   4.716   3.321   7.959 -0.8195  0.1784 -0.1316
    4MOL   C718 3064   4.823   3.333   0.016  0.6276  0.9896  0.0395
    4MOL   C719 3065   4.937   3.413   8.022 -0.2492 -0.3443  0.0029
    4MOL   C720 3066   5.033   3.449   0.096  0.1713 -0.5764 -0.6141
    4MOL   O721 3067   5.149   3.483   0.069  0.0471 -0.3526  0.0246
    4MOL   O722 3068   4.978   3.437   0.216 -0.1008  0.0840 -0.1111
    4MOL   C723 3069   4.943   3.468   7.893 -0.0293  0.4203  0.1962
    4MOL   C724 3070   4.838   3.456   7.804 -0.0445 -0.3040  0.1764
    4MOL   H725 3071   4.709   3.562   7.435  1.5278 -1.2314 -3.3650
    4MOL   H726 3072   4.598   3.673   7.405  4.2388  0.7974 -0.9822
    4MOL   H727 3073   4.701   3.649   7.202 -0.6780  0.5409 -0.4294
    4MOL   H728 3074   4.686   3.472   7.186 -2.7644 -1.3696 -0.0763
    4MOL   H729 3075   4.482   3.692   7.174  0.5482  0.6759 -2.0716
    4MOL   H730 3076   4.445   3.604   6.932 -1.4122  0.2481  1.5926
    4MOL   H731 3077   4.616   3.651   6.954 -0.9181  0.8444 -1.0690
    4MOL   H732 3078   4.306   3.519   7.149  0.2149  0.7658  1.3195
    4MOL   H733 3079   4.438   3.397   7.138  1.0230  0.7403 -0.8352
    4MOL   H734 3080   4.303   3.415   7.354 -1.0849 -0.2787 -0.9400
    4MOL   H735 3081   4.344   3.584   7.367  0.9767 -0.4660  1.4579
    4MOL   H736 3082   4.555   3.368   7.396  1.6450  1.4606 -0.4286
    4MOL   H737 3083   4.442   3.561   7.597  1.7114  1.3130 -0.9222
    4MOL   H738 3084   4.414   3.391   7.583 -0.7834  1.0962  1.0363
    4MOL   H739 3085   4.634   3.261   7.994 -0.4751 -0.3983 -0.2954
    4MOL   H740 3086   4.823   3.284   0.112 -2.8051  0.3596 -0.2242
    4MOL   H741 3087   5.033   3.522   7.866  1.3592 -1.4447  1.0144
    4MOL   H742 3088   4.850   3.506   7.709  1.1855 -0.9030  0.0023
    4MOL   C743 3089   5.326   3.682   0.607 -0.1755 -0.6528 -0.1535
    4MOL   C744 3090   5.262   3.629   0.481  0.1040  0.5690 -0.6660
    4MOL   C745 3091   5.108   3.640   0.499 -0.2351  0.0666  0.2443
    4MOL   C746 3092   5.032   3.616   0.368  0.3603 -0.2888 -0.7839
    4MOL   O747 3093   5.067   3.485   0.332  0.5550 -0.1179 -0.3766
    4MOL   C748 3094   5.057   3.560   0.621  0.6472  0.3507  0.1013
    4MOL   C749 3095   5.140   3.592   0.745  0.4814  0.1962  0.5188
    4MOL   C750 3096   5.293   3.595   0.730  0.9168 -0.3505  0.5269
    4MOL   C751 3097   5.367   3.633   0.858  0.3880 -0.2927 -0.4175
    4MOL   O752 3098   5.505   3.600   0.839 -0.2490 -0.1799 -0.5858
    4MOL   C753 3099   5.589   3.702   0.842  0.1013  0.1935 -0.6080
    4MOL   O754 3100   5.553   3.825   0.843 -0.0222  0.0916 -0.5275
    4MOL   C755 3101   5.735   3.656   0.841  0.8929 -0.0783 -0.2135
    4MOL   C756 3102   5.765   3.525   0.780  0.1196 -0.6835 -0.2204
    4MOL   C757 3103   5.902   3.483   0.786  0.0796 -0.3539 -0.3069
    4MOL   C758 3104   6.004   3.558   0.851  0.0982  0.6055  0.0524
    4MOL   C759 3105   6.141   3.517   0.868 -0.0351  0.6607 -0.4711
    4MOL   O760 3106   6.224   3.568   0.944  0.3577 -0.0568  0.1435
    4MOL   O761 3107   6.182   3.412   0.786 -0.2345 -0.2812  0.2359
    4MOL   C762 3108   5.966   3.682   0.901 -0.4792 -0.0305 -0.6409
    4MOL   C763 3109   5.835   3.732   0.907 -0.2396  0.2941  0.2249
    4MOL   H764 3110   5.434   3.671   0.596  0.0386  0.8950  0.4203
    4MOL   H765 3111   5.303   3.786   0.627  0.4278 -0.1573 -1.8764
    4MOL   H766 3112   5.289   3.685   0.391  2.9579 -0.5918 -0.5866
    4MOL   H767 3113   5.291   3.528   0.456 -0.2217  0.2464  0.2288
    4MOL   H768 3114   5.089   3.746   0.516 -2.6446 -0.0222 -1.6356
    4MOL   H769 3115   4.927   3.631   0.391  1.2014  0.4272  3.0336
    4MOL   H770 3116   5.057   3.687   0.289  1.6922 -1.7439 -1.6875
    4MOL   H771 3117   4.949   3.565   0.633  0.5591 -1.3023  0.0550
    4MOL   H772 3118   5.063   3.454   0.599 -0.3871  0.4614 -0.7744
    4MOL   H773 3119   5.104   3.530   0.828  0.0834 -0.3586 -0.0665
    4MOL   H774 3120   5.114   3.689   0.786  1.5540  0.4480  0.6201
    4MOL   H775 3121   5.327   3.496   0.698  1.6603  0.4066 -1.1211
    4MOL   H776 3122   5.351   3.727   0.911 -2.3082 -1.2500  0.5198
    4MOL   H777 3123   5.327   3.566   0.934 -1.4164  0.4845 -0.6583
    4MOL   H778 3124   5.692   3.465   0.728  0.3113  0.3817 -1.7699
    4MOL   H779 3125   5.921   3.386   0.744  0.4573 -0.8729  1.0195
    4MOL   H780 3126   6.042   3.746   0.944 -1.4396  0.6075  0.1349
    4MOL   H781 3127   5.811   3.834   0.934 -0.1459  1.2442 -3.1364
    4MOL   H782 3128   6.275   3.397   0.788  0.0928  1.3034 -1.7673
    5MOL     C1 3129   4.518   5.858   4.600  0.1001 -0.3173  0.2068
    5MOL     C2 3130   4.622   5.951   4.662  0.0216  0.0272 -0.1653
    5MOL     C3 3131   4.572   6.069   4.742  0.3954 -0.2041 -0.1231
    5MOL     C4 3132   4.686   6.158   4.790 -0.1732 -0.2377 -0.2855
    5MOL     O5 3133   4.632   6.249   4.875  0.0748  0.0027  0.0888
    5MOL     C6 3134   4.478   6.140   4.644 -0.1893  0.8798 -0.7175
    5MOL     C7 3135   4.368   6.062   4.591  0.6733 -0.3308  0.4209
    5MOL     C8 3136   4.415   5.938   4.510  0.1809 -0.1472  0.6191
    5MOL     C9 3137   4.296   5.848   4.470 -0.8032  0.0178  0.0499
    5MOL    O10 3138   4.215   5.903   4.364 -1.4777  0.0965  0.0108
    5MOL    C11 3139   4.077   5.872   4.360  0.4384  0.0187 -0.5405
    5MOL    O12 3140   4.031   5.781   4.428 -0.4114  0.8920 -0.5847
    5MOL    C13 3141   4.001   5.960   4.266 -0.0102  0.2709 -0.4121
    5MOL    C14 3142   4.059   6.074   4.205 -0.0474 -0.1502 -0.0721
    5MOL    C15 3143   3.990   6.156   4.110 -0.3690  0.4452 -0.4617
    5MOL    C16 3144   3.858   6.120   4.078  0.3808  0.4472 -1.0108
    5MOL    C17 3145   3.777   6.207   3.981  0.4452 -0.0613  0.0933
    5MOL    O18 3146   3.657   6.191   3.963  0.1990  0.0651  0.2038
    5MOL    O19 3147   3.859   6.295   3.929 -0.4053  0.3317 -0.4931
    5MOL    C20 3148   3.802   6.006   4.132 -0.0359 -0.7903  0.1152
    5MOL    C21 3149   3.868   5.924   4.232  0.4395 -0.1345 -0.2920
    5MOL    H22 3150   4.579   5.793   4.538 -2.2685 -0.5663 -1.9354
    5MOL    H23 3151   4.476   5.796   4.680  2.2088 -2.5097 -0.3242
    5MOL    H24 3152   4.695   5.899   4.724 -0.1559 -0.4984 -0.3948
    5MOL    H25 3153   4.689   5.989   4.585  0.4739 -1.2033 -0.3891
    5MOL    H26 3154   4.517   6.031   4.829  0.6258 -0.7439 -0.2102
    5MOL    H27 3155   4.769   6.104   4.835 -0.0892  0.1765  0.0698
    5MOL    H28 3156   4.731   6.212   4.707 -1.7924  1.4895 -0.0900
    5MOL    H29 3157   4.438   6.224   4.701 -1.5373 -0.9844  1.1681
    5MOL    H30 3158   4.530   6.186   4.560  0.8647 -0.7522 -0.9876
    5MOL    H31 3159   4.296   6.118   4.531  0.1921 -1.3869 -0.0176
    5MOL    H32 3160   4.316   6.036   4.683 -1.6827 -0.3431 -0.8570
    5MOL    H33 3161   4.461   5.971   4.417  0.1396  1.6484  1.2072
    5MOL    H34 3162   4.341   5.759   4.427 -0.5989 -0.1653  0.6442
    5MOL    H35 3163   4.238   5.812   4.555  1.3990  0.9057  1.9482
    5MOL    H36 3164   4.159   6.109   4.229 -1.4407  3.8885  0.3452
    5MOL    H37 3165   4.039   6.249   4.081 -1.1848  0.4178 -1.9445
    5MOL    H38 3166   3.697   5.987   4.113 -0.1395 -0.0538 -0.0837
    5MOL    H39 3167   3.827   5.832   4.270 -0.5476 -0.3319 -1.7745
    5MOL    H40 3168   4.688   6.325   4.888 -1.4021  1.0553  0.4474
    5MOL    C41 3169   4.192   6.541   3.736  0.4738 -0.0206 -0.0786
    5MOL    C42 3170   4.089   6.437   3.774 -0.1544  0.8729  0.4673
    5MOL    C43 3171   3.992   6.426   3.662  0.5397  0.3252  0.1181
    5MOL    C44 3172   3.876   6.319   3.692 -0.4988 -0.8485  0.6168
    5MOL    O45 3173   3.804   6.363   3.807  0.3533  0.0472 -0.6900
    5MOL    C46 3174   3.927   6.560   3.635 -0.7208 -1.1427  0.2251
    5MOL    C47 3175   4.020   6.677   3.606  0.3755 -0.1125 -0.0920
    5MOL    C48 3176   4.125   6.688   3.724  0.2658  0.4005  0.3130
    5MOL    C49 3177   4.220   6.805   3.708  0.4810 -0.7788  0.9299
    5MOL    O50 3178   4.307   6.792   3.815 -0.3506  0.6256 -0.5596
    5MOL    C51 3179   4.376   6.898   3.860 -0.9021  0.1286 -0.4163
    5MOL    O52 3180   4.372   7.016   3.829  0.1433 -0.4943  0.4406
    5MOL    C53 3181   4.482   6.845   3.949 -0.3279 -0.2859  0.0652
    5MOL    C54 3182   4.545   6.932   4.046  0.0172 -0.0751  0.6836
    5MOL    C55 3183   4.663   6.896   4.114 -0.0074  0.0856 -0.5324
    5MOL    C56 3184   4.720   6.766   4.102  0.0226  0.8108  0.2967
    5MOL    C57 3185   4.852   6.736   4.160 -0.7753  0.4090  0.4316
    5MOL    O58 3186   4.904   6.628   4.142  0.2104 -0.4503  0.2437
    5MOL    O59 3187   4.902   6.826   4.240  0.0436 -0.1880 -0.5369
    5MOL    C60 3188   4.652   6.675   4.015  0.1033  0.3894 -0.0068
    5MOL    C61 3189   4.532   6.713   3.955 -0.0571 -0.1008 -0.0245
    5MOL    H62 3190   4.260   6.535   3.821 -1.2918 -0.3420  1.3436
    5MOL    H63 3191   4.257   6.515   3.652  1.0936 -2.4671  1.1129
    5MOL    H64 3192   4.139   6.340   3.777  1.0102  1.3613 -1.8755
    5MOL    H65 3193   4.049   6.461   3.872  0.8033 -0.3206  1.1604
    5MOL    H66 3194   4.052   6.391   3.578 -2.6541  0.3609 -2.2864
    5MOL    H67 3195   3.798   6.306   3.618 -0.3159  0.0003  0.2717
    5MOL    H68 3196   3.917   6.222   3.719 -1.9216 -1.2048  1.5674
    5MOL    H69 3197   3.857   6.548   3.553 -2.1004 -2.0190  1.4882
    5MOL    H70 3198   3.863   6.586   3.720 -0.5964  0.7353 -0.2339
    5MOL    H71 3199   3.961   6.768   3.589  1.2640  0.0724 -2.3298
    5MOL    H72 3200   4.070   6.657   3.511  0.1317 -3.0425  0.3368
    5MOL    H73 3201   4.060   6.705   3.809  0.6035  0.8070  0.4914
    5MOL    H74 3202   4.276   6.801   3.615  1.7722 -0.5674  1.6723
    5MOL    H75 3203   4.162   6.897   3.711 -0.2572 -1.1965 -0.4303
    5MOL    H76 3204   4.520   7.037   4.049  0.7869  0.1880 -1.5014
    5MOL    H77 3205   4.715   6.973   4.168  0.0189  0.6256 -1.3367
    5MOL    H78 3206   4.689   6.574   4.010  2.9967  1.3187  1.4403
    5MOL    H79 3207   4.475   6.641   3.899 -0.4660  2.1174 -2.5540
    5MOL    C80 3208   5.338   6.855   4.583 -0.0355  0.5744 -0.1571
    5MOL    C81 3209   5.234   6.891   4.481  0.2467  0.3006  0.7972
    5MOL    C82 3210   5.243   6.813   4.351 -0.2702 -0.0879  0.1012
    5MOL    C83 3211   5.137   6.853   4.244  0.5613 -0.2481 -0.7592
    5MOL    O84 3212   5.029   6.792   4.303  0.0191  0.2713  0.1384
    5MOL    C85 3213   5.385   6.810   4.294  0.1042 -0.4990  0.0229
    5MOL    C86 3214   5.485   6.767   4.403 -1.1229  0.2465  0.8329
    5MOL    C87 3215   5.476   6.858   4.531  0.4224 -0.8395  0.9251
    5MOL    C88 3216   5.596   6.825   4.624  0.7921 -0.1833 -0.1445
    5MOL    O89 3217   5.617   6.682   4.638 -0.3907 -0.4525 -0.0143
    5MOL    C90 3218   5.565   6.611   4.740  0.6814  0.1230 -0.2643
    5MOL    O91 3219   5.497   6.662   4.830 -0.1586 -0.5309  0.4725
    5MOL    C92 3220   5.567   6.465   4.713  0.5904  0.4222  0.8207
    5MOL    C93 3221   5.650   6.411   4.618  0.1875  0.1207 -0.1197
    5MOL    C94 3222   5.645   6.273   4.588 -0.5343 -0.2226  0.1698
    5MOL    C95 3223   5.558   6.185   4.652  0.2540  0.4540 -0.0249
    5MOL    C96 3224   5.549   6.038   4.627  0.4581 -0.3765  0.3043
    5MOL    O97 3225   5.601   5.983   4.530  0.1112  0.0031  0.1586
    5MOL    O98 3226   5.488   5.974   4.727  0.1616 -0.1796  0.6002
    5MOL    C99 3227   5.469   6.240   4.748 -0.5088 -1.3360 -0.3141
    5MOL   C100 3228   5.467   6.379   4.774 -0.1836  0.2157  0.5904
    5MOL   H101 3229   5.325   6.927   4.664 -1.8634 -0.7906  0.8039
    5MOL   H102 3230   5.323   6.754   4.621 -3.3299  0.3271 -1.8820
    5MOL   H103 3231   5.136   6.905   4.525  0.1267  1.2487  0.2514
    5MOL   H104 3232   5.252   6.993   4.447  2.2915 -0.0317  0.8224
    5MOL   H105 3233   5.221   6.710   4.378 -0.9927  0.3252  1.1281
    5MOL   H106 3234   5.125   6.960   4.227 -1.7100 -0.1659  1.0546
    5MOL   H107 3235   5.153   6.795   4.154 -2.9876 -1.4514 -0.6756
    5MOL   H108 3236   5.390   6.734   4.215 -0.4883  0.9776 -1.4750
    5MOL   H109 3237   5.411   6.903   4.244 -2.9182  1.5501  2.1872
    5MOL   H110 3238   5.587   6.764   4.365 -1.0600 -1.0348  1.0662
    5MOL   H111 3239   5.475   6.662   4.431  0.7017 -0.2400 -0.2718
    5MOL   H112 3240   5.504   6.958   4.496 -0.5056 -2.2605 -4.2853
    5MOL   H113 3241   5.687   6.858   4.573  1.2566 -0.0410  0.7582
    5MOL   H114 3242   5.593   6.880   4.719  0.5016 -0.0531 -0.2271
    5MOL   H115 3243   5.721   6.478   4.572  1.5757 -0.6453  0.8569
    5MOL   H116 3244   5.712   6.237   4.511  0.4050  0.1126  0.8194
    5MOL   H117 3245   5.392   6.185   4.800  1.1970 -1.6763  1.9332
    5MOL   H118 3246   5.401   6.421   4.847 -0.2118  2.0233 -0.4396
    5MOL   C119 3247   5.146   5.877   4.984 -0.3740  0.3558 -0.1261
    5MOL   C120 3248   5.251   5.808   4.903 -0.2017 -0.1899 -0.0665
    5MOL   C121 3249   5.244   5.845   4.751 -0.2065 -0.0292  0.0115
    5MOL   C122 3250   5.354   5.801   4.657 -0.6491 -1.0149  0.6612
    5MOL   O123 3251   5.485   5.829   4.699 -0.0933  0.3652  0.9482
    5MOL   C124 3252   5.103   5.797   4.699  0.0164  0.0918  0.1471
    5MOL   C125 3253   4.988   5.858   4.788 -0.1477  0.1693 -0.2000
    5MOL   C126 3254   5.004   5.834   4.941  0.7855 -0.0994 -0.2670
    5MOL   C127 3255   4.891   5.920   5.002  0.5878  0.3897 -0.1800
    5MOL   O128 3256   4.871   5.907   5.139 -0.4151 -0.0127 -0.5524
    5MOL   C129 3257   4.750   5.887   5.185  0.0816  0.2415  0.9903
    5MOL   O130 3258   4.650   5.858   5.113  0.3967  0.3633 -0.4094
    5MOL   C131 3259   4.743   5.893   5.338  0.3082 -0.3700  0.0551
    5MOL   C132 3260   4.850   5.913   5.424 -0.2087  0.0087 -0.1508
    5MOL   C133 3261   4.845   5.910   5.565  0.4430  0.0161  0.3062
    5MOL   C134 3262   4.715   5.889   5.622 -0.3844  0.1398 -0.2312
    5MOL   C135 3263   4.699   5.887   5.769  0.5691  0.0897  0.3209
    5MOL   O136 3264   4.793   5.911   5.845 -0.3856  0.1765 -0.9762
    5MOL   O137 3265   4.573   5.862   5.817  0.4819  0.2934 -0.4720
    5MOL   C138 3266   4.606   5.871   5.534  0.0031  0.6024  0.1541
    5MOL   C139 3267   4.614   5.871   5.395  0.0101  0.5394  0.7017
    5MOL   H140 3268   5.171   5.855   5.088  0.7224  1.5597 -0.1079
    5MOL   H141 3269   5.152   5.985   4.971  0.9098  0.1819 -1.1924
    5MOL   H142 3270   5.342   5.845   4.951 -0.5371 -0.5977  0.8840
    5MOL   H143 3271   5.249   5.699   4.912  2.3259 -0.1682  1.2261
    5MOL   H144 3272   5.242   5.953   4.738  1.6872 -0.1393 -1.3933
    5MOL   H145 3273   5.369   5.695   4.639  0.7052 -1.0064  1.6163
    5MOL   H146 3274   5.325   5.851   4.565 -0.1839  0.3869  1.2579
    5MOL   H147 3275   5.091   5.827   4.595  1.2421  0.7991  0.1968
    5MOL   H148 3276   5.105   5.688   4.689  2.1459  0.1818 -0.7240
    5MOL   H149 3277   4.891   5.814   4.768  0.6245 -1.2935 -0.8589
    5MOL   H150 3278   4.989   5.964   4.764  1.0347  0.8962  2.8046
    5MOL   H151 3279   4.992   5.729   4.969  1.6292 -0.2279 -0.3776
    5MOL   H152 3280   4.927   6.020   4.977 -3.8354  1.7581 -1.4530
    5MOL   H153 3281   4.803   5.904   4.940  1.8294  0.4345 -2.0121
    5MOL   H154 3282   4.946   5.925   5.375  0.2015  0.7585  0.8297
    5MOL   H155 3283   4.935   5.917   5.625  1.0356  0.2939 -0.5994
    5MOL   H156 3284   4.508   5.870   5.580 -0.5819 -0.9277 -1.0504
    5MOL   H157 3285   4.520   5.863   5.342  0.7163  1.7309 -0.7790
    5MOL   C158 3286   4.683   6.125   6.322  0.2093 -0.2903 -0.4018
    5MOL   C159 3287   4.672   6.077   6.180 -0.1202  0.6461 -0.1389
    5MOL   C160 3288   4.521   6.063   6.130  0.7314 -0.3966 -0.2393
    5MOL   C161 3289   4.511   6.013   5.988  0.2570  0.5074 -0.1476
    5MOL   O162 3290   4.561   5.885   5.967 -0.3920 -0.0163 -0.5467
    5MOL   C163 3291   4.434   5.984   6.230  0.2467  0.7430  0.4500
    5MOL   C164 3292   4.459   6.030   6.373  1.1410  0.0067 -0.1842
    5MOL   C165 3293   4.607   6.026   6.421 -0.1667 -0.3920  0.1465
    5MOL   C166 3294   4.611   6.079   6.573 -0.2535 -0.0694 -0.2489
    5MOL   O167 3295   4.748   6.058   6.608  0.2290  0.5163  0.1615
    5MOL   C168 3296   4.800   6.101   6.727  0.0940  0.2234 -0.0215
    5MOL   O169 3297   4.738   6.172   6.809 -0.2291 -0.1417  0.2191
    5MOL   C170 3298   4.939   6.060   6.760  0.3420 -0.4597  0.0335
    5MOL   C171 3299   5.010   6.000   6.659  0.3326 -0.0917  0.5964
    5MOL   C172 3300   5.139   5.944   6.689  0.2316 -0.1009 -0.3858
    5MOL   C173 3301   5.194   5.952   6.822 -0.0704 -1.0272  0.7364
    5MOL   C174 3302   5.330   5.883   6.857  0.3964 -0.2285 -0.0833
    5MOL   O175 3303   5.400   5.823   6.771 -0.2072  0.3413  0.1411
    5MOL   O176 3304   5.367   5.892   6.989 -0.2549  0.5275  0.5286
    5MOL   C177 3305   5.118   6.020   6.921  0.7570 -0.1396 -0.5164
    5MOL   C178 3306   4.990   6.069   6.892 -0.0390  0.4206 -0.0302
    5MOL   H179 3307   4.790   6.125   6.346 -0.2647 -2.0861  1.8969
    5MOL   H180 3308   4.647   6.227   6.328 -0.1414 -0.3220 -1.7721
    5MOL   H181 3309   4.728   6.139   6.110 -2.3919  3.2650  0.2874
    5MOL   H182 3310   4.722   5.980   6.185 -0.6083  0.4685  1.8357
    5MOL   H183 3311   4.479   6.163   6.138  0.1530 -0.6248 -0.4290
    5MOL   H184 3312   4.406   6.004   5.960  0.1243 -0.0999  0.5415
    5MOL   H185 3313   4.567   6.080   5.923  1.4311  0.3051  0.6388
    5MOL   H186 3314   4.331   5.989   6.195  0.8942  3.1538 -1.2150
    5MOL   H187 3315   4.465   5.880   6.222 -1.7959  0.2579 -1.4940
    5MOL   H188 3316   4.411   5.967   6.447 -0.4046  0.0388 -1.1328
    5MOL   H189 3317   4.417   6.128   6.397  0.6536 -0.1179 -0.5156
    5MOL   H190 3318   4.641   5.923   6.420 -1.8016 -0.9879  1.9729
    5MOL   H191 3319   4.581   6.183   6.583 -2.4972 -0.7545  0.4512
    5MOL   H192 3320   4.544   6.014   6.630 -0.0507 -1.3279 -1.4091
    5MOL   H193 3321   4.967   5.999   6.560  2.8391 -0.4673 -0.5226
    5MOL   H194 3322   5.208   5.917   6.610 -1.4721 -2.2478 -1.1910
    5MOL   H195 3323   5.159   6.037   7.020 -1.5623  0.5951  0.3760
    5MOL   H196 3324   4.933   6.110   6.974  0.7679 -0.1544  0.8297
    5MOL   C197 3325   5.655   5.418   7.267 -0.0791  0.0966 -0.3671
    5MOL   C198 3326   5.534   5.466   7.187  0.1699  0.2726 -0.8103
    5MOL   C199 3327   5.557   5.616   7.151 -0.5613  0.5857 -0.7210
    5MOL   C200 3328   5.445   5.686   7.071 -0.0589  0.5912  0.3265
    5MOL   O201 3329   5.485   5.816   7.016  0.0712 -0.0374 -0.4105
    5MOL   C202 3330   5.591   5.705   7.277 -0.0906  0.0949 -0.7948
    5MOL   C203 3331   5.698   5.650   7.374  0.1716  0.4707 -0.3739
    5MOL   C204 3332   5.678   5.499   7.401 -0.7010  0.0662  0.3153
    5MOL   C205 3333   5.792   5.444   7.495  0.0896 -0.3535 -0.1337
    5MOL   O206 3334   5.797   5.515   7.618 -0.0195 -0.4783  0.1809
    5MOL   C207 3335   5.794   5.450   7.738 -0.3533  0.2959 -0.4591
    5MOL   O208 3336   5.799   5.326   7.758 -0.4923  0.3012 -0.1999
    5MOL   C209 3337   5.780   5.543   7.850 -0.1071  0.4285 -0.7394
    5MOL   C210 3338   5.773   5.486   7.983 -0.0309  0.1516  0.7753
    5MOL   C211 3339   5.771   5.570   0.062  0.5358  0.3214  0.2887
    5MOL   C212 3340   5.774   5.708   0.039  0.1437  0.0426 -0.2070
    5MOL   C213 3341   5.776   5.817   0.149  0.4431  0.4172  0.7762
    5MOL   O214 3342   5.790   5.937   0.138  0.7374 -0.5334 -0.1979
    5MOL   O215 3343   5.760   5.763   0.264  0.1589 -0.0885 -0.4532
    5MOL   C216 3344   5.767   5.763   7.940 -0.4381  0.2450 -0.3527
    5MOL   C217 3345   5.776   5.682   7.829  0.1819  0.1970 -0.0357
    5MOL   H218 3346   5.638   5.311   7.282 -1.3593  0.4827  1.1187
    5MOL   H219 3347   5.744   5.420   7.206 -0.1123  0.6546 -0.4019
    5MOL   H220 3348   5.512   5.410   7.095  3.3408 -1.7712 -0.3929
    5MOL   H221 3349   5.440   5.446   7.240 -0.7394 -0.8305 -2.7700
    5MOL   H222 3350   5.645   5.613   7.086 -0.5276  0.9747 -0.6940
    5MOL   H223 3351   5.410   5.630   6.984 -0.0723  2.0310 -0.6108
    5MOL   H224 3352   5.354   5.686   7.131  0.0679  1.6740  0.5147
    5MOL   H225 3353   5.604   5.813   7.265 -0.3293 -0.0877 -2.7904
    5MOL   H226 3354   5.503   5.710   7.341  2.7657  2.1942  3.2185
    5MOL   H227 3355   5.696   5.707   7.467 -2.1403  0.0205 -0.1295
    5MOL   H228 3356   5.801   5.666   7.342  0.1525  3.3381  0.8638
    5MOL   H229 3357   5.583   5.488   7.452  0.2106  0.6170  2.1863
    5MOL   H230 3358   5.786   5.338   7.517  2.1645 -0.4507  0.1188
    5MOL   H231 3359   5.893   5.458   7.455 -0.3886 -0.4864 -1.4052
    5MOL   H232 3360   5.768   5.379   7.988  1.6274  0.0738  1.1587
    5MOL   H233 3361   5.767   5.527   0.161 -0.5545 -1.6576 -0.5949
    5MOL   H234 3362   5.767   5.871   7.936  1.3439  0.1968 -1.8538
    5MOL   H235 3363   5.774   5.727   7.730  0.2912  1.8866  0.7145
    5MOL   C236 3364   5.640   5.974   0.781 -0.1994  0.4223 -0.0310
    5MOL   C237 3365   5.657   5.888   0.649  0.0929  0.0298  0.3785
    5MOL   C238 3366   5.588   5.961   0.537 -0.8420 -0.3629  0.2194
    5MOL   C239 3367   5.602   5.881   0.403  0.0478 -0.4145 -0.8386
    5MOL   O240 3368   5.743   5.868   0.376 -0.2098 -0.1252  0.3237
    5MOL   C241 3369   5.442   5.988   0.563  0.0248  0.0273 -0.7521
    5MOL   C242 3370   5.420   6.071   0.690  0.3937 -0.6063  0.0937
    5MOL   C243 3371   5.494   6.013   0.813 -0.0778  0.0564 -0.2337
    5MOL   C244 3372   5.488   6.103   0.938  0.2739 -0.3935 -0.2872
    5MOL   O245 3373   5.362   6.112   0.997 -0.1844 -0.3188  0.1510
    5MOL   C246 3374   5.321   6.220   1.058 -0.0170 -0.1634  0.2775
    5MOL   O247 3375   5.387   6.319   1.086  0.4046  0.3744  0.0577
    5MOL   C248 3376   5.176   6.209   1.087 -0.0876 -0.0705 -0.0111
    5MOL   C249 3377   5.098   6.322   1.090  0.3180 -0.2526 -0.0846
    5MOL   C250 3378   4.962   6.313   1.105  0.8359  0.7276  0.0024
    5MOL   C251 3379   4.901   6.194   1.147  0.1137  0.1368  0.4666
    5MOL   C252 3380   4.757   6.184   1.180  0.3510  0.2057  0.3647
    5MOL   O253 3381   4.702   6.073   1.213  0.1351  0.9252  0.1292
    5MOL   O254 3382   4.681   6.285   1.147 -0.0779 -0.0325 -0.1670
    5MOL   C255 3383   4.980   6.086   1.165  0.1347  1.1244  0.2654
    5MOL   C256 3384   5.122   6.090   1.132 -0.1171  0.0324  0.3945
    5MOL   H257 3385   5.696   5.930   0.864 -0.2636  0.4784  0.0410
    5MOL   H258 3386   5.710   6.056   0.763  1.1844 -0.6089  0.5588
    5MOL   H259 3387   5.760   5.864   0.622  0.1403  1.1183 -0.4393
    5MOL   H260 3388   5.609   5.789   0.649 -2.2407  1.0774 -1.7722
    5MOL   H261 3389   5.639   6.057   0.531 -1.5589 -0.0640 -1.4349
    5MOL   H262 3390   5.557   5.782   0.416 -0.9141 -0.0490 -1.3192
    5MOL   H263 3391   5.553   5.933   0.320 -0.4100 -0.5492 -0.6570
    5MOL   H264 3392   5.389   6.038   0.481  1.2903 -0.5993 -1.9577
    5MOL   H265 3393   5.392   5.892   0.574  2.7597 -1.2603  0.8358
    5MOL   H266 3394   5.313   6.071   0.712  0.8328 -0.0631  2.2813
    5MOL   H267 3395   5.447   6.175   0.674  2.1649 -0.9972  0.4241
    5MOL   H268 3396   5.452   5.915   0.836 -2.8835  1.0620 -0.8644
    5MOL   H269 3397   5.560   6.066   1.012  0.5959 -0.2840 -0.5452
    5MOL   H270 3398   5.511   6.205   0.908  0.2316 -0.3444 -0.1509
    5MOL   H271 3399   5.137   6.413   1.046  1.0863 -1.0743 -1.0953
    5MOL   H272 3400   4.917   6.410   1.096 -0.6552  0.1111  0.6440
    5MOL   H273 3401   4.946   5.989   1.200 -1.3242  1.8062  0.8022
    5MOL   H274 3402   5.179   5.999   1.140 -1.5806 -0.8245  1.4325
    5MOL   C275 3403   4.113   6.208   1.256  0.0896  0.1133  0.1969
    5MOL   C276 3404   4.250   6.269   1.219 -0.3204 -0.4270  0.1182
    5MOL   C277 3405   4.357   6.236   1.315  1.1432  0.1120  0.5741
    5MOL   C278 3406   4.496   6.294   1.289  0.0550 -0.0049 -0.4418
    5MOL   O279 3407   4.537   6.252   1.157  0.8255 -0.0508  0.1491
    5MOL   C280 3408   4.316   6.256   1.457  0.3528 -0.3545  0.5700
    5MOL   C281 3409   4.187   6.194   1.500  0.0681 -0.4677  0.5305
    5MOL   C282 3410   4.079   6.250   1.399  0.0558 -0.3097 -0.4082
    5MOL   C283 3411   3.937   6.198   1.440 -0.5547  0.1190  0.1327
    5MOL   O284 3412   3.911   6.268   1.558  0.0873 -0.7443  0.3677
    5MOL   C285 3413   3.794   6.332   1.585  0.2413 -0.3947 -0.5359
    5MOL   O286 3414   3.688   6.297   1.546 -0.0172 -0.1394 -0.0553
    5MOL   C287 3415   3.814   6.454   1.665  0.3961 -0.2437  0.4038
    5MOL   C288 3416   3.942   6.506   1.695  0.1088  0.7437 -0.1207
    5MOL   C289 3417   3.962   6.613   1.779 -0.1687  0.4909 -0.8521
    5MOL   C290 3418   3.848   6.684   1.826  0.5027 -0.1560 -0.0379
    5MOL   C291 3419   3.866   6.817   1.887  0.1383  0.1521 -0.0414
    5MOL   O292 3420   3.772   6.895   1.896 -0.1785 -0.3435  0.4268
    5MOL   O293 3421   3.986   6.830   1.937 -0.4209  0.0358 -0.4256
    5MOL   C294 3422   3.718   6.628   1.794  0.8116 -0.5227 -0.1003
    5MOL   C295 3423   3.705   6.519   1.718 -0.1932 -0.2712 -0.0305
    5MOL   H296 3424   4.045   6.251   1.184  0.6009  0.8415  0.1472
    5MOL   H297 3425   4.100   6.099   1.253  1.3861 -0.1385  2.1445
    5MOL   H298 3426   4.289   6.235   1.123  0.1370  0.8072 -0.1392
    5MOL   H299 3427   4.245   6.377   1.227  0.7446 -0.3678 -0.0199
    5MOL   H300 3428   4.364   6.128   1.303  1.5516  0.3121 -1.1063
    5MOL   H301 3429   4.495   6.402   1.274  0.9827 -0.2609 -2.5690
    5MOL   H302 3430   4.574   6.278   1.363  0.3632 -2.1337 -1.2043
    5MOL   H303 3431   4.400   6.242   1.525  0.7341 -0.0778  0.1555
    5MOL   H304 3432   4.293   6.363   1.460  0.6361 -0.2157 -1.4517
    5MOL   H305 3433   4.175   6.225   1.604  0.4224  0.8709  0.1799
    5MOL   H306 3434   4.200   6.086   1.496 -1.1160 -0.6004  0.0204
    5MOL   H307 3435   4.073   6.359   1.401 -4.1935 -0.4591  2.1847
    5MOL   H308 3436   3.862   6.219   1.364 -0.2805  3.8303  0.7496
    5MOL   H309 3437   3.934   6.090   1.443 -1.0814  0.1170 -0.4905
    5MOL   H310 3438   4.024   6.439   1.674 -1.0477 -0.5332 -0.6651
    5MOL   H311 3439   4.066   6.634   1.796  0.0410 -1.3386  0.2872
    5MOL   H312 3440   3.629   6.678   1.829  1.7961  2.4506 -1.6739
    5MOL   H313 3441   3.608   6.480   1.690 -1.0599 -0.1477  2.6739
    5MOL   C314 3442   4.428   6.899   2.141  0.5367  0.6010 -0.8754
    5MOL   C315 3443   4.286   6.953   2.118 -0.1320 -0.3328 -0.2577
    5MOL   C316 3444   4.174   6.867   2.177  0.6267  0.0200  0.0869
    5MOL   C317 3445   4.033   6.924   2.146  0.6714 -1.1456  0.2491
    5MOL   O318 3446   4.017   6.957   2.006 -0.1667  0.2526  0.1073
    5MOL   C319 3447   4.187   6.716   2.142 -0.2533  0.2012  0.2718
    5MOL   C320 3448   4.331   6.664   2.176  0.4072  0.2793  0.5568
    5MOL   C321 3449   4.437   6.749   2.103  0.0045 -0.2061 -0.4363
    5MOL   C322 3450   4.580   6.697   2.119 -0.4176  0.3795  0.0879
    5MOL   O323 3451   4.588   6.569   2.056  0.2339  0.1101 -0.3956
    5MOL   C324 3452   4.621   6.447   2.111  0.8668 -0.0743  0.3617
    5MOL   O325 3453   4.675   6.436   2.220  0.2134 -0.0314  0.1448
    5MOL   C326 3454   4.581   6.335   2.020 -0.4199 -0.4213 -0.4728
    5MOL   C327 3455   4.637   6.205   2.041  0.3963 -0.5878 -0.6720
    5MOL   C328 3456   4.590   6.093   1.968  0.4478 -0.4460 -0.4633
    5MOL   C329 3457   4.486   6.105   1.876  0.3864  0.6394  0.7181
    5MOL   C330 3458   4.454   5.990   1.796 -0.5152 -0.1633  0.5230
    5MOL   O331 3459   4.483   5.870   1.821 -0.2071 -0.4044  0.2358
    5MOL   O332 3460   4.409   6.022   1.672  0.2420 -0.0377 -0.0232
    5MOL   C333 3461   4.425   6.229   1.860 -0.0438  0.4526  0.6920
    5MOL   C334 3462   4.477   6.346   1.922 -0.0654 -0.1077  0.0911
    5MOL   H335 3463   4.494   6.954   2.074  0.9602  0.2177 -0.7745
    5MOL   H336 3464   4.464   6.904   2.244  2.1460  2.3394 -1.4951
    5MOL   H337 3465   4.281   7.055   2.157  0.4038 -0.4595  0.1346
    5MOL   H338 3466   4.275   6.953   2.009  0.1848 -0.3681 -0.2898
    5MOL   H339 3467   4.196   6.874   2.284  2.4442 -1.0719 -0.1891
    5MOL   H340 3468   3.964   6.843   2.171  0.7959 -1.6203 -0.9308
    5MOL   H341 3469   4.023   7.015   2.207  2.9328  1.0567 -2.5675
    5MOL   H342 3470   4.114   6.655   2.194 -1.4429  1.4337  0.0907
    5MOL   H343 3471   4.172   6.696   2.036  0.0830  1.3317  0.0009
    5MOL   H344 3472   4.338   6.571   2.119  2.6739  0.9812 -0.3496
    5MOL   H345 3473   4.349   6.635   2.280  0.3063 -1.4968  0.1020
    5MOL   H346 3474   4.412   6.737   1.998 -0.3434 -0.6362 -0.3085
    5MOL   H347 3475   4.646   6.760   2.059 -1.0064  2.3065  1.3972
    5MOL   H348 3476   4.611   6.683   2.223 -1.5577 -1.6915  0.1658
    5MOL   H349 3477   4.716   6.204   2.115  1.4544 -0.6518 -1.7830
    5MOL   H350 3478   4.627   5.995   1.990  0.3578 -0.4381 -0.2696
    5MOL   H351 3479   4.344   6.244   1.790  0.3547 -1.5428 -0.2073
    5MOL   H352 3480   4.419   6.433   1.897  0.6197  0.0476 -0.9823
    5MOL   C353 3481   4.842   5.772   1.504 -0.3994  0.6023  0.2301
    5MOL   C354 3482   4.741   5.874   1.457 -0.6839  0.4835  0.4481
    5MOL   C355 3483   4.601   5.830   1.503  0.5436 -0.2573  0.3652
    5MOL   C356 3484   4.501   5.938   1.468 -0.2874  0.2969  1.1205
    5MOL   O357 3485   4.401   5.909   1.570 -0.1726  0.0730  0.3752
    5MOL   C358 3486   4.557   5.694   1.434  0.1536  0.5816  0.2124
    5MOL   C359 3487   4.665   5.589   1.476 -0.4429 -0.8410 -0.4757
    5MOL   C360 3488   4.809   5.631   1.446  0.3680 -0.6602 -0.3706
    5MOL   C361 3489   4.902   5.528   1.505 -0.7056 -0.3969 -0.2205
    5MOL   O362 3490   5.035   5.558   1.465  0.3707  0.3617 -0.2496
    5MOL   C363 3491   5.126   5.462   1.442 -0.4339 -0.3798  0.3191
    5MOL   O364 3492   5.105   5.344   1.467  0.2894 -0.0500  0.4092
    5MOL   C365 3493   5.254   5.524   1.391 -0.2750  0.2619  0.2962
    5MOL   C366 3494   5.260   5.654   1.338  0.1236  0.0389  0.4544
    5MOL   C367 3495   5.367   5.708   1.267  0.1334 -0.4399  0.3453
    5MOL   C368 3496   5.486   5.632   1.261 -0.0670  0.2364  0.1390
    5MOL   C369 3497   5.602   5.681   1.184 -0.0843 -0.0305  0.1271
    5MOL   O370 3498   5.602   5.782   1.114 -0.1131 -0.3413  0.5364
    5MOL   O371 3499   5.715   5.615   1.207 -0.0331  0.1069  0.4621
    5MOL   C372 3500   5.489   5.506   1.330  0.1226 -0.5903  0.4050
    5MOL   C373 3501   5.378   5.454   1.395 -0.8424 -0.1880 -0.2868
    5MOL   H374 3502   4.935   5.814   1.465 -1.8073  5.1158  1.4600
    5MOL   H375 3503   4.848   5.763   1.612  1.5624  2.0327  0.2553
    5MOL   H376 3504   4.782   5.969   1.492 -0.0881  0.8792 -1.2842
    5MOL   H377 3505   4.746   5.876   1.348 -0.4123 -0.0147  0.4455
    5MOL   H378 3506   4.618   5.819   1.610 -0.7318 -0.5591  0.5376
    5MOL   H379 3507   4.553   6.031   1.494  2.2285 -0.2938 -1.4876
    5MOL   H380 3508   4.460   5.948   1.368  3.6384  1.0701 -0.5047
    5MOL   H381 3509   4.459   5.656   1.462 -0.0116 -0.3405 -1.5818
    5MOL   H382 3510   4.554   5.707   1.326 -1.1737 -2.1719 -0.1243
    5MOL   H383 3511   4.642   5.493   1.429 -0.2294 -1.4808  0.6976
    5MOL   H384 3512   4.661   5.553   1.579 -0.2338 -1.5630 -0.7154
    5MOL   H385 3513   4.820   5.630   1.338  1.7864  1.1039 -0.2743
    5MOL   H386 3514   4.897   5.530   1.614 -0.9167  0.5862 -0.2373
    5MOL   H387 3515   4.874   5.430   1.468 -1.4596 -0.0830 -0.4883
    5MOL   H388 3516   5.168   5.711   1.333 -0.9358 -1.6444  0.3159
    5MOL   H389 3517   5.359   5.803   1.216  1.6509 -0.6610 -0.3380
    5MOL   H390 3518   5.586   5.459   1.336 -0.8865 -2.7446  0.3448
    5MOL   H391 3519   5.382   5.367   1.458 -1.0422  1.5346  2.2136
    5MOL   C392 3520   6.042   5.805   0.753 -0.4497 -0.9395 -0.7500
    5MOL   C393 3521   5.935   5.771   0.854  0.3235  0.2207 -0.3773
    5MOL   C394 3522   5.972   5.648   0.945  0.3200  0.6381  0.7477
    5MOL   C395 3523   5.866   5.588   1.032 -0.1006 -0.5380 -0.9043
    5MOL   O396 3524   5.832   5.669   1.130 -0.1854  0.2099  0.2303
    5MOL   C397 3525   6.015   5.524   0.849 -0.2829  0.2511  1.1142
    5MOL   C398 3526   6.103   5.560   0.735  0.0816 -0.0811 -0.2279
    5MOL   C399 3527   6.069   5.688   0.658 -0.1433  0.5893 -0.4343
    5MOL   C400 3528   6.169   5.729   0.547 -0.2289 -0.3607 -0.5931
    5MOL   O401 3529   6.154   5.629   0.446 -0.5354  0.6507  0.0997
    5MOL   C402 3530   6.257   5.544   0.433 -0.4514 -0.1711  0.0395
    5MOL   O403 3531   6.356   5.534   0.506  0.5494 -1.1187  0.0588
    5MOL   C404 3532   6.246   5.456   0.313  0.5835  0.6451  0.0008
    5MOL   C405 3533   6.333   5.350   0.297 -0.6087  0.8672 -0.8946
    5MOL   C406 3534   6.337   5.279   0.172 -0.0390 -0.6293  0.1756
    5MOL   C407 3535   6.244   5.313   0.070  0.6359  0.7385 -0.2281
    5MOL   C408 3536   6.260   5.239   7.982  0.2553  0.2314  0.8315
    5MOL   O409 3537   6.358   5.173   7.953  0.0612  0.1651  0.1267
    5MOL   O410 3538   6.149   5.245   7.910  0.8157  0.2762  0.1549
    5MOL   C411 3539   6.148   5.412   0.095  0.2380 -0.3867 -0.7072
    5MOL   C412 3540   6.154   5.485   0.213  0.1103  0.6182  0.4049
    5MOL   H413 3541   6.008   5.892   0.697  1.8438  0.9034  0.6068
    5MOL   H414 3542   6.131   5.838   0.807 -2.1891  2.6748  0.0305
    5MOL   H415 3543   5.920   5.861   0.914 -1.1232  0.4929 -1.1391
    5MOL   H416 3544   5.842   5.752   0.800  1.4171  0.8884 -2.5498
    5MOL   H417 3545   6.058   5.680   1.005  1.1995  0.4432 -0.3899
    5MOL   H418 3546   5.771   5.568   0.981 -2.1185  0.7802  2.2240
    5MOL   H419 3547   5.897   5.495   1.079 -2.3440 -0.3011  1.1162
    5MOL   H420 3548   6.051   5.435   0.901 -1.5578 -0.9773 -0.1081
    5MOL   H421 3549   5.919   5.495   0.808  0.8275 -2.9060  0.5910
    5MOL   H422 3550   6.096   5.469   0.675  0.8784  0.7185 -1.5442
    5MOL   H423 3551   6.202   5.567   0.779  0.1566 -0.0519 -0.3994
    5MOL   H424 3552   5.974   5.674   0.606  0.0868  0.4340 -0.8089
    5MOL   H425 3553   6.126   5.818   0.501  0.1342  0.7389  1.1540
    5MOL   H426 3554   6.270   5.752   0.580  0.7268 -0.9125 -2.9684
    5MOL   H427 3555   6.408   5.332   0.373  1.2070  3.1881 -2.0690
    5MOL   H428 3556   6.406   5.196   0.168  0.4408 -0.1737 -1.4161
    5MOL   H429 3557   6.072   5.435   0.022  0.2563 -1.6115 -1.1243
    5MOL   H430 3558   6.076   5.560   0.219 -0.2928  0.2596 -0.2976
    5MOL   C431 3559   5.951   5.047   7.408 -0.3377 -0.8369 -0.6263
    5MOL   C432 3560   5.980   5.109   7.542 -0.5120 -0.2864 -0.2821
    5MOL   C433 3561   6.063   5.017   7.633  0.9098 -0.0891  0.4100
    5MOL   C434 3562   6.070   5.081   7.774 -0.3383 -0.4505 -0.0818
    5MOL   O435 3563   6.158   5.198   7.770  0.1331 -0.3501  0.2632
    5MOL   C436 3564   6.005   4.877   7.639  0.6235  0.4301 -0.5885
    5MOL   C437 3565   5.978   4.818   7.497  0.4162 -0.0710 -0.7317
    5MOL   C438 3566   5.891   4.913   7.416  0.1447  0.9105 -0.3428
    5MOL   C439 3567   5.872   4.858   7.276 -0.4928  0.0958  0.1300
    5MOL   O440 3568   5.776   4.932   7.217  0.3675 -0.0493 -0.1032
    5MOL   C441 3569   5.687   4.872   7.138 -0.3509 -0.1078  0.1885
    5MOL   O442 3570   5.662   4.750   7.142  0.2205  0.4136 -0.2421
    5MOL   C443 3571   5.619   4.967   7.051 -0.0709 -0.1442 -1.0204
    5MOL   C444 3572   5.499   4.923   6.990 -0.0258  0.4160 -0.0463
    5MOL   C445 3573   5.420   5.014   6.916  0.5330  0.0852 -0.7256
    5MOL   C446 3574   5.465   5.151   6.901 -0.2088  0.1866  0.5787
    5MOL   C447 3575   5.390   5.251   6.825  0.8484 -0.1188 -0.0594
    5MOL   O448 3576   5.417   5.371   6.832  0.0640 -0.6801 -0.0511
    5MOL   O449 3577   5.283   5.202   6.757 -0.3953  0.0076  0.6636
    5MOL   C450 3578   5.590   5.188   6.950 -0.1935  0.2751  0.1561
    5MOL   C451 3579   5.666   5.098   7.018 -0.1632  0.0686 -0.2329
    5MOL   H452 3580   5.888   5.112   7.347  0.3656  1.1878  0.7504
    5MOL   H453 3581   6.046   5.038   7.355  0.0613 -0.1380 -0.0466
    5MOL   H454 3582   6.037   5.201   7.531  2.2208 -1.9707 -0.6868
    5MOL   H455 3583   5.887   5.138   7.591 -1.5473 -0.2542 -2.2210
    5MOL   H456 3584   6.162   5.010   7.589  0.1992  1.1648 -1.4623
    5MOL   H457 3585   5.971   5.113   7.805 -0.8375 -2.1595  0.1488
    5MOL   H458 3586   6.109   5.002   7.839  0.0140 -0.1022  0.1312
    5MOL   H459 3587   6.063   4.812   7.705  2.2647 -0.2425 -2.6172
    5MOL   H460 3588   5.906   4.874   7.684  0.4806 -0.1344 -0.9357
    5MOL   H461 3589   5.920   4.728   7.519  0.5092  0.2902  1.0782
    5MOL   H462 3590   6.070   4.776   7.456  0.0555 -1.8917  0.2818
    5MOL   H463 3591   5.794   4.911   7.466 -0.9124  2.7013 -2.2026
    5MOL   H464 3592   5.967   4.881   7.226  0.6755  1.0168  2.6824
    5MOL   H465 3593   5.845   4.752   7.281  1.0076 -0.2642  0.8476
    5MOL   H466 3594   5.465   4.821   7.000  0.4899  0.3952  1.6731
    5MOL   H467 3595   5.332   4.980   6.862  0.5965  0.8452 -1.3280
    5MOL   H468 3596   5.625   5.290   6.937  3.3967 -1.0087 -0.7303
    5MOL   H469 3597   5.758   5.135   7.060 -0.9394  0.4003  1.1854
    5MOL   C470 3598   5.146   5.450   6.211 -0.7114  0.3335 -0.0679
    5MOL   C471 3599   5.244   5.361   6.288 -0.6431 -0.1615 -0.7190
    5MOL   C472 3600   5.208   5.385   6.440 -0.4307 -0.8090  0.1575
    5MOL   C473 3601   5.281   5.292   6.536 -0.1815  0.3739  0.2470
    5MOL   O474 3602   5.219   5.302   6.663 -0.0208 -0.1221 -0.4924
    5MOL   C475 3603   5.223   5.532   6.480  0.1276  0.1509 -0.0349
    5MOL   C476 3604   5.135   5.627   6.392 -0.3567  0.0857  0.0102
    5MOL   C477 3605   5.151   5.601   6.244  1.3500  0.5942 -0.0188
    5MOL   C478 3606   5.044   5.670   6.162  0.1704 -0.4110 -0.0932
    5MOL   O479 3607   5.052   5.814   6.171 -0.8780  0.0344  0.2004
    5MOL   C480 3608   5.092   5.885   6.064 -0.5495 -0.8272  0.1934
    5MOL   O481 3609   5.119   5.831   5.955 -0.1600 -0.5358  0.0202
    5MOL   C482 3610   5.089   6.034   6.092  0.8487  0.1729  0.2546
    5MOL   C483 3611   5.110   6.121   5.987  0.6725 -0.4033 -0.0341
    5MOL   C484 3612   5.097   6.261   5.998  0.7335 -0.2375  0.4935
    5MOL   C485 3613   5.077   6.313   6.127  0.5745 -0.7801  0.5521
    5MOL   C486 3614   5.079   6.458   6.158 -0.6550  0.2721  0.6893
    5MOL   O487 3615   5.025   6.506   6.260 -0.0001 -0.4109 -0.3909
    5MOL   O488 3616   5.141   6.531   6.069  0.1180  0.2250  0.4043
    5MOL   C489 3617   5.040   6.226   6.230 -0.1368  0.1977 -0.1083
    5MOL   C490 3618   5.042   6.088   6.209 -0.3745  0.5947  0.1042
    5MOL   H491 3619   5.152   5.426   6.105  0.2636 -0.4778  0.1679
    5MOL   H492 3620   5.049   5.412   6.244  0.1550 -3.6011 -1.7815
    5MOL   H493 3621   5.227   5.258   6.257  2.4044 -0.5572 -1.2604
    5MOL   H494 3622   5.348   5.389   6.271  0.1310 -0.9425  2.4474
    5MOL   H495 3623   5.102   5.361   6.445 -0.9794  0.9804 -1.9235
    5MOL   H496 3624   5.283   5.189   6.502  1.4173 -0.2264  2.0777
    5MOL   H497 3625   5.386   5.322   6.534 -0.8681  2.9871  1.1917
    5MOL   H498 3626   5.208   5.541   6.587 -0.9886  0.1569 -0.1887
    5MOL   H499 3627   5.327   5.558   6.461 -0.1572  1.1348 -0.2839
    5MOL   H500 3628   5.154   5.735   6.398 -1.9236  0.3611  0.0671
    5MOL   H501 3629   5.030   5.614   6.416 -0.1815 -0.6487  0.3763
    5MOL   H502 3630   5.239   5.657   6.211  1.1700  0.9774  0.1477
    5MOL   H503 3631   5.059   5.630   6.062  0.3364  1.1067 -0.6795
    5MOL   H504 3632   4.948   5.629   6.196 -0.5212  0.3278 -1.1202
    5MOL   H505 3633   5.137   6.076   5.892  0.2347 -1.7528  0.4761
    5MOL   H506 3634   5.116   6.333   5.920  2.3968 -1.8209 -0.6019
    5MOL   H507 3635   5.010   6.275   6.322 -0.2800  1.2101 -0.6929
    5MOL   H508 3636   5.025   6.013   6.285  0.7330  1.4779  1.2198
    5MOL   C509 3637   5.461   7.037   6.117 -0.1134  1.0359  0.1205
    5MOL   C510 3638   5.445   6.886   6.152 -0.3630  0.4808  0.5048
    5MOL   C511 3639   5.298   6.849   6.149  0.1063 -0.2091  0.0577
    5MOL   C512 3640   5.269   6.698   6.173 -0.1469 -0.9234 -1.1763
    5MOL   O513 3641   5.158   6.679   6.094  0.0991 -0.0054 -0.0777
    5MOL   C514 3642   5.219   6.936   6.252  0.1346 -0.4535  0.1179
    5MOL   C515 3643   5.238   7.086   6.223  0.0735  0.8947 -0.0690
    5MOL   C516 3644   5.390   7.120   6.214  0.1807  0.0252 -0.2055
    5MOL   C517 3645   5.393   7.277   6.187  0.3755 -0.7288 -0.6753
    5MOL   O518 3646   5.403   7.351   6.308 -0.1920 -0.3294  0.1376
    5MOL   C519 3647   5.305   7.418   6.360  0.5950 -0.4601  0.2317
    5MOL   O520 3648   5.196   7.440   6.301 -0.2387  0.0595 -0.2116
    5MOL   C521 3649   5.342   7.465   6.498  0.0677  0.4479  0.8024
    5MOL   C522 3650   5.239   7.507   6.587 -1.0771 -0.5479  0.5288
    5MOL   C523 3651   5.271   7.550   6.720 -0.1144 -0.2808 -0.1881
    5MOL   C524 3652   5.403   7.533   6.771 -0.0072  0.1430 -0.8661
    5MOL   C525 3653   5.420   7.550   6.917  0.2149  0.0335 -0.5709
    5MOL   O526 3654   5.326   7.560   6.999  0.3513  0.4751  0.4028
    5MOL   O527 3655   5.557   7.546   6.957  0.0324 -0.0676  0.1715
    5MOL   C528 3656   5.505   7.491   6.683 -0.3714 -0.5439 -0.4675
    5MOL   C529 3657   5.479   7.464   6.547  0.5132  0.3824  0.9104
    5MOL   H530 3658   5.567   7.060   6.129 -0.3797  1.6934  1.2165
    5MOL   H531 3659   5.441   7.054   6.011 -0.0670  0.3829  0.0037
    5MOL   H532 3660   5.502   6.816   6.090 -2.0212 -2.6605  2.4171
    5MOL   H533 3661   5.485   6.865   6.251  0.6816 -0.4293 -0.0925
    5MOL   H534 3662   5.261   6.880   6.052  1.0401 -1.0910 -0.5921
    5MOL   H535 3663   5.350   6.642   6.127 -0.6534 -1.8811 -0.9323
    5MOL   H536 3664   5.239   6.680   6.277 -0.2096 -1.8492 -1.3495
    5MOL   H537 3665   5.117   6.899   6.239 -0.6425  1.0876  1.7939
    5MOL   H538 3666   5.254   6.902   6.350  1.0256  1.0106  0.3174
    5MOL   H539 3667   5.187   7.145   6.298 -0.3476 -0.5537  0.8044
    5MOL   H540 3668   5.206   7.110   6.121 -1.9759  0.9750  0.5713
    5MOL   H541 3669   5.426   7.102   6.315  0.1698 -1.6310 -0.4761
    5MOL   H542 3670   5.489   7.298   6.140 -0.1853 -2.1204 -2.5007
    5MOL   H543 3671   5.313   7.310   6.121  0.1943 -1.9380 -1.0770
    5MOL   H544 3672   5.138   7.509   6.551 -0.7553 -1.0505 -0.4250
    5MOL   H545 3673   5.179   7.555   6.776  0.5993  1.2336  0.8905
    5MOL   H546 3674   5.610   7.483   6.711 -0.4917 -0.5987 -0.0315
    5MOL   H547 3675   5.561   7.439   6.482  1.2863  0.1246  1.9791
    5MOL   C548 3676   5.400   7.693   7.481 -0.5236  0.5350  0.4052
    5MOL   C549 3677   5.427   7.664   7.329 -0.2695  0.4087 -0.0781
    5MOL   C550 3678   5.583   7.680   7.294  0.1347 -0.1785 -0.6472
    5MOL   C551 3679   5.606   7.673   7.143 -0.1976 -0.6895 -0.3428
    5MOL   O552 3680   5.573   7.546   7.104 -1.4646 -0.2172 -0.1174
    5MOL   C553 3681   5.643   7.808   7.347 -0.6998  1.0619  0.0136
    5MOL   C554 3682   5.618   7.816   7.505 -0.3916 -0.0464  0.4890
    5MOL   C555 3683   5.470   7.829   7.531  0.2907  0.6996  0.3370
    5MOL   C556 3684   5.436   7.876   7.672  0.4009  0.2842 -0.2555
    5MOL   O557 3685   5.296   7.885   7.688  0.9308  0.5356 -0.0074
    5MOL   C558 3686   5.254   7.879   7.812  0.4009  0.0398  0.2039
    5MOL   O559 3687   5.330   7.905   7.909 -0.2950 -0.1988 -0.9656
    5MOL   C560 3688   5.111   7.835   7.822 -0.2650 -0.0922 -0.6721
    5MOL   C561 3689   5.037   7.815   7.709  0.0706 -1.1092  0.4574
    5MOL   C562 3690   4.905   7.773   7.710  0.0154 -0.0789 -0.3463
    5MOL   C563 3691   4.843   7.731   7.831 -0.8143 -0.6156 -0.1478
    5MOL   C564 3692   4.701   7.683   7.832  0.4691 -0.1506  0.0595
    5MOL   O565 3693   4.649   7.643   7.731 -0.2750 -0.1507  0.0868
    5MOL   O566 3694   4.648   7.691   7.958  0.1531 -0.0900  0.5306
    5MOL   C567 3695   4.920   7.744   7.945  0.2838 -0.3781 -0.2472
    5MOL   C568 3696   5.053   7.803   7.944  0.4230 -0.3032  0.7262
    5MOL   H569 3697   5.293   7.698   7.504 -0.5047  0.3332  0.5316
    5MOL   H570 3698   5.442   7.608   7.534 -2.2860 -0.7045 -0.1374
    5MOL   H571 3699   5.418   7.558   7.306 -1.0732  0.3516  0.4646
    5MOL   H572 3700   5.364   7.714   7.255  0.8170  0.1473 -1.1874
    5MOL   H573 3701   5.631   7.605   7.357  1.3479  0.9631 -0.1926
    5MOL   H574 3702   5.531   7.736   7.096 -0.8005 -0.7075  0.5847
    5MOL   H575 3703   5.712   7.681   7.116 -1.0129  1.8175 -3.1366
    5MOL   H576 3704   5.750   7.812   7.331 -0.4958 -0.6021  0.9370
    5MOL   H577 3705   5.604   7.891   7.288  0.6705  0.9481 -1.0772
    5MOL   H578 3706   5.673   7.901   7.545 -0.9406  0.3305  0.4479
    5MOL   H579 3707   5.645   7.721   7.552 -0.4281 -0.1812  0.2420
    5MOL   H580 3708   5.427   7.913   7.475 -1.2721 -0.5327 -0.3729
    5MOL   H581 3709   5.487   7.818   7.749  0.3704  1.6783  0.8499
    5MOL   H582 3710   5.474   7.978   7.681  1.5805 -0.0066 -1.7552
    5MOL   H583 3711   5.074   7.820   7.608 -1.0556  0.3675  0.0874
    5MOL   H584 3712   4.843   7.773   7.621 -0.5602 -0.3064  0.0498
    5MOL   H585 3713   4.869   7.719   0.001 -0.5420 -1.2452 -0.9400
    5MOL   H586 3714   5.101   7.824   0.003  0.1782 -2.3100  1.3279
    5MOL   C587 3715   4.152   7.393   7.887 -0.6644 -0.3155  0.6598
    5MOL   C588 3716   4.286   7.462   7.882  0.6431  0.1172 -0.4744
    5MOL   C589 3717   4.374   7.422   8.003  0.1262  0.2568  0.1808
    5MOL   C590 3718   4.518   7.493   8.007  0.0686 -0.5047 -0.3725
    5MOL   O591 3719   4.510   7.631   7.974  0.5268 -0.2706  0.1749
    5MOL   C592 3720   4.296   7.461   0.094 -0.0281 -0.0182 -0.5236
    5MOL   C593 3721   4.168   7.387   0.099  0.5090 -0.4279 -0.7063
    5MOL   C594 3722   4.075   7.427   8.019 -0.3181  0.5938 -0.6638
    5MOL   C595 3723   3.938   7.356   8.023 -0.2598 -0.2231 -0.0679
    5MOL   O596 3724   3.878   7.342   0.115 -0.4602 -0.0354  0.5876
    5MOL   C597 3725   3.750   7.390   0.141 -0.2590  0.1148 -0.2282
    5MOL   O598 3726   3.668   7.421   0.053 -0.1235  0.6877 -0.1118
    5MOL   C599 3727   3.727   7.397   0.287  0.4999  0.4081  0.4854
    5MOL   C600 3728   3.836   7.382   0.379  0.9690 -0.3112  0.3651
    5MOL   C601 3729   3.811   7.377   0.514 -0.4408 -0.4432  0.9513
    5MOL   C602 3730   3.681   7.395   0.565  0.0869  0.5874  0.2766
    5MOL   C603 3731   3.656   7.390   0.712 -0.0486  0.0308  0.1772
    5MOL   O604 3732   3.550   7.413   0.764  0.2249 -0.3111  0.3945
    5MOL   O605 3733   3.757   7.333   0.776  0.3080  0.4823  0.2025
    5MOL   C606 3734   3.574   7.411   0.481 -0.0162 -1.0124  0.1775
    5MOL   C607 3735   3.597   7.418   0.340 -0.0080 -0.2062  0.2020
    5MOL   H608 3736   4.096   7.422   7.798  0.9956  0.9902  0.0356
    5MOL   H609 3737   4.161   7.285   7.877  0.3141 -0.0559 -1.4026
    5MOL   H610 3738   4.347   7.436   7.795 -0.8262  0.1460 -1.5175
    5MOL   H611 3739   4.276   7.570   7.880 -0.7797 -0.0324 -1.7678
    5MOL   H612 3740   4.397   7.315   8.011  2.0988  0.6781  0.4559
    5MOL   H613 3741   4.545   7.490   0.077  0.9415  0.5924 -0.5605
    5MOL   H614 3742   4.596   7.439   7.952 -1.7961 -2.7534 -0.9087
    5MOL   H615 3743   4.355   7.436   0.182  1.1954 -0.0409 -1.3374
    5MOL   H616 3744   4.281   7.569   0.092  0.2542  0.0502  0.6553
    5MOL   H617 3745   4.120   7.391   0.197  3.5432 -1.6747  0.9120
    5MOL   H618 3746   4.179   7.281   0.077 -1.1395 -1.0675  1.2817
    5MOL   H619 3747   4.064   7.536   8.018  2.2087  0.8892 -2.5485
    5MOL   H620 3748   3.870   7.408   7.956 -0.1473  1.9330  1.4400
    5MOL   H621 3749   3.948   7.252   7.993 -0.3911 -0.2829  0.0930
    5MOL   H622 3750   3.937   7.381   0.341  1.4466  1.3396  1.5491
    5MOL   H623 3751   3.896   7.361   0.578 -0.6570  0.7574  1.5591
    5MOL   H624 3752   3.473   7.431   0.513 -0.8779 -2.0794 -1.7622
    5MOL   H625 3753   3.517   7.430   0.269  0.0538  1.1910  0.3591
    5MOL   C626 3754   3.978   7.615   1.289 -0.9255  0.2261  0.2914
    5MOL   C627 3755   3.954   7.590   1.136  0.0493  0.3905  0.8530
    5MOL   C628 3756   3.847   7.481   1.106  0.2116 -0.0943 -0.1265
    5MOL   C629 3757   3.855   7.442   0.954 -0.0860 -0.7810  0.3893
    5MOL   O630 3758   3.749   7.356   0.917  0.5375 -0.4376 -0.3546
    5MOL   C631 3759   3.874   7.350   1.189  0.2675 -0.1185  0.3642
    5MOL   C632 3760   3.901   7.375   1.334  0.6155  0.6991 -0.5844
    5MOL   C633 3761   4.015   7.479   1.353 -0.2253  0.3340 -0.2259
    5MOL   C634 3762   4.050   7.493   1.501 -0.4345  0.3348 -0.2205
    5MOL   O635 3763   3.928   7.520   1.572 -0.1048  0.1924 -0.0318
    5MOL   C636 3764   3.927   7.624   1.663  0.2825  0.2690 -0.5033
    5MOL   O637 3765   4.027   7.688   1.695 -0.5834 -0.5674  0.3745
    5MOL   C638 3766   3.793   7.672   1.703  0.3928 -0.3501  0.0573
    5MOL   C639 3767   3.790   7.780   1.794 -0.3670  0.0798 -0.4012
    5MOL   C640 3768   3.661   7.838   1.817 -0.1357  0.7377 -0.0963
    5MOL   C641 3769   3.545   7.783   1.768  0.4843  0.2299  0.2144
    5MOL   C642 3770   3.409   7.839   1.813 -0.0159  0.8377 -0.0819
    5MOL   O643 3771   3.389   7.926   1.899 -0.6350  0.0054 -0.7242
    5MOL   O644 3772   3.305   7.783   1.750  0.1293  0.1053  0.2820
    5MOL   C645 3773   3.552   7.670   1.683 -0.3729 -0.5720  0.5655
    5MOL   C646 3774   3.678   7.616   1.642  0.2581  0.4556 -0.5932
    5MOL   H647 3775   4.046   7.699   1.306 -1.8017  1.0034  0.0436
    5MOL   H648 3776   3.890   7.651   1.343 -2.4356 -1.5991 -0.8895
    5MOL   H649 3777   3.918   7.679   1.083 -0.3868  0.2742  0.9497
    5MOL   H650 3778   4.053   7.571   1.095 -0.1586 -1.2506  1.0671
    5MOL   H651 3779   3.749   7.519   1.137 -0.9052 -2.4472 -0.6597
    5MOL   H652 3780   3.839   7.532   0.894  0.8167  0.1875  1.5430
    5MOL   H653 3781   3.954   7.403   0.929  0.1400 -0.0069  0.0532
    5MOL   H654 3782   3.788   7.284   1.182 -0.1580  0.5344 -0.7226
    5MOL   H655 3783   3.957   7.298   1.142 -1.6497 -2.1005 -0.9032
    5MOL   H656 3784   3.922   7.274   1.368 -2.1597  0.3921  0.3340
    5MOL   H657 3785   3.808   7.407   1.382  1.4005 -0.1655  1.5490
    5MOL   H658 3786   4.098   7.436   1.296 -1.0221 -1.6309  0.0488
    5MOL   H659 3787   4.091   7.401   1.542 -3.1249  0.0935  2.0472
    5MOL   H660 3788   4.127   7.566   1.523  0.4394 -1.2191  2.1070
    5MOL   H661 3789   3.879   7.816   1.845 -0.5437  0.6962 -0.5184
    5MOL   H662 3790   3.653   7.917   1.890 -2.0722  1.3949 -0.9844
    5MOL   H663 3791   3.462   7.632   1.637  0.0465 -1.1186  0.1986
    5MOL   H664 3792   3.680   7.537   1.569 -0.1235 -1.3328  1.2767
    5MOL   C665 3793   2.784   0.053   1.668 -1.4784  0.1715 -0.4714
    5MOL   C666 3794   2.908   7.975   1.669 -0.6300  0.0630  0.3085
    5MOL   C667 3795   3.054   0.008   1.659  1.1663  0.5222  0.3611
    5MOL   C668 3796   3.158   7.937   1.646 -0.5057 -0.2710 -0.0157
    5MOL   O669 3797   3.170   7.861   1.766 -0.7326  0.2895 -0.2612
    5MOL   C670 3798   3.055   0.106   1.543 -0.2750  0.5079  0.3670
    5MOL   C671 3799   2.937   0.199   1.535 -0.3819 -0.3476 -0.0199
    5MOL   C672 3800   2.793   0.128   1.531  0.2527  0.0844 -0.5811
    5MOL   C673 3801   2.680   0.227   1.512  0.0087  0.0373  0.0946
    5MOL   O674 3802   2.697   0.315   1.402  0.3178  0.3532 -0.8676
    5MOL   C675 3803   2.660   0.277   1.283 -0.2037  1.0526 -0.9896
    5MOL   O676 3804   2.601   0.167   1.255 -0.6561 -0.0922  0.1575
    5MOL   C677 3805   2.695   0.373   1.179  0.2528 -0.2860  0.1312
    5MOL   C678 3806   2.664   0.343   1.047 -0.4453  0.6990  0.5224
    5MOL   C679 3807   2.699   0.442   0.945  0.0129 -0.1251  0.0127
    5MOL   C680 3808   2.744   0.570   0.973  0.5750  0.4687 -0.5940
    5MOL   C681 3809   2.770   0.678   0.868  0.1937  0.0942  0.1034
    5MOL   O682 3810   2.793   0.796   0.893 -0.0134 -0.2317 -0.2300
    5MOL   O683 3811   2.766   0.630   0.742 -0.2173  0.2932 -0.0922
    5MOL   C684 3812   2.768   0.600   1.112  0.1205  0.4220  1.0911
    5MOL   C685 3813   2.755   0.499   1.210  0.0866 -0.0449  0.1185
    5MOL   H686 3814   2.688   0.006   1.689  0.3653 -3.3079  0.5541
    5MOL   H687 3815   2.793   0.123   1.752  0.2492  0.0660 -0.5356
    5MOL   H688 3816   2.898   7.910   1.757  2.7291 -0.1421  0.5998
    5MOL   H689 3817   2.904   7.917   1.577 -0.5984  2.8829 -1.5007
    5MOL   H690 3818   3.074   0.062   1.751  1.2953  1.2641 -0.0984
    5MOL   H691 3819   3.134   7.872   1.562 -0.5125  0.8051 -0.8523
    5MOL   H692 3820   3.246   7.999   1.626 -0.8449  0.0348 -0.5875
    5MOL   H693 3821   3.149   0.159   1.555  0.6941 -1.0816  0.0260
    5MOL   H694 3822   3.060   0.050   1.449  2.2675 -1.3293  1.5451
    5MOL   H695 3823   2.963   0.271   1.456  0.8042 -0.9959 -0.2315
    5MOL   H696 3824   2.938   0.272   1.616 -2.1821 -0.8301  0.4650
    5MOL   H697 3825   2.791   0.050   1.456  0.4245 -0.3362 -0.1457
    5MOL   H698 3826   2.583   0.176   1.507 -0.1413  0.2089  1.0553
    5MOL   H699 3827   2.674   0.299   1.593  1.1634  3.4070 -2.7332
    5MOL   H700 3828   2.610   0.253   1.021  0.8878 -0.2572  1.0139
    5MOL   H701 3829   2.678   0.422   0.841 -0.9313  0.6671  0.0425
    5MOL   H702 3830   2.805   0.696   1.146  0.8697 -0.0300  1.5723
    5MOL   H703 3831   2.794   0.520   1.308 -1.0715 -1.1985  0.8454
    5MOL   C704 3832   2.894   0.343   0.418 -0.0821  0.0440  0.2521
    5MOL   C705 3833   2.865   0.453   0.521 -0.1513  0.6854  0.6558
    5MOL   C706 3834   2.907   0.590   0.465 -0.1861  0.8464 -0.7962
    5MOL   C707 3835   2.910   0.698   0.575  0.6300  0.8241  0.0849
    5MOL   O708 3836   2.782   0.725   0.636 -0.2721 -0.1075  0.1542
    5MOL   C709 3837   3.045   0.587   0.393  0.0004  0.2233  0.2997
    5MOL   C710 3838   3.058   0.471   0.295 -0.7162 -0.5661 -0.4271
    5MOL   C711 3839   3.035   0.335   0.359  0.1245  0.0760 -0.4353
    5MOL   C712 3840   3.065   0.220   0.260  0.4199  0.1523  0.1614
    5MOL   O713 3841   3.073   0.107   0.333  0.2567  0.2076  0.1219
    5MOL   C714 3842   3.072   8.031   0.270 -0.7172 -0.1781 -0.6738
    5MOL   O715 3843   3.049   8.018   0.151 -0.0285  0.3568  0.1908
    5MOL   C716 3844   3.090   7.920   0.365 -0.4848  0.6669 -0.0907
    5MOL   C717 3845   3.121   7.795   0.307 -0.6334  0.1480  0.1614
    5MOL   C718 3846   3.154   7.690   0.393 -0.1265 -0.5826  0.3482
    5MOL   C719 3847   3.162   7.706   0.532 -0.0293  0.0254 -0.0647
    5MOL   C720 3848   3.199   7.586   0.617 -0.7774 -0.3964  0.1703
    5MOL   O721 3849   3.230   7.590   0.735  0.2253 -0.1409  0.2796
    5MOL   O722 3850   3.207   7.470   0.546  0.3537  0.0740  0.4842
    5MOL   C723 3851   3.137   7.833   0.589  0.0035 -0.2136 -0.4556
    5MOL   C724 3852   3.094   7.934   0.504 -0.0113 -0.1421 -0.4517
    5MOL   H725 3853   2.851   0.251   0.457 -0.3049 -0.5046 -1.2645
    5MOL   H726 3854   2.838   0.367   0.328 -0.6300 -1.8314  0.0776
    5MOL   H727 3855   2.761   0.470   0.549 -0.5331  0.9180 -0.8675
    5MOL   H728 3856   2.920   0.425   0.611  0.8829  0.8901  0.0974
    5MOL   H729 3857   2.824   0.616   0.399  0.4603  2.0517 -1.1471
    5MOL   H730 3858   2.977   0.673   0.658  1.3980  1.2580 -0.4003
    5MOL   H731 3859   2.956   0.793   0.548  1.9641  0.8733  2.3887
    5MOL   H732 3860   3.065   0.683   0.346  1.4806  1.8807  4.1442
    5MOL   H733 3861   3.123   0.579   0.468  2.0270  0.5816 -1.7241
    5MOL   H734 3862   3.154   0.481   0.243 -0.6911  0.0531 -0.2759
    5MOL   H735 3863   2.980   0.486   0.220 -1.5540 -0.9690  0.3586
    5MOL   H736 3864   3.113   0.324   0.433 -0.7060 -1.5354  0.2328
    5MOL   H737 3865   2.988   0.224   0.184 -0.8219  1.7384  1.4802
    5MOL   H738 3866   3.157   0.240   0.204 -1.8226  4.0472 -2.3396
    5MOL   H739 3867   3.121   7.783   0.200  0.3243  0.9513  0.0555
    5MOL   H740 3868   3.172   7.600   0.336  0.0223  1.1773 -2.5428
    5MOL   H741 3869   3.147   7.851   0.695 -1.5259 -0.9711 -0.1704
    5MOL   H742 3870   3.079   8.026   0.559  2.2181  1.5109 -2.4873
    5MOL   C743 3871   3.298   7.149   1.025  0.2017 -0.1536 -0.9074
    5MOL   C744 3872   3.249   7.240   0.913  0.3241  0.1558 -0.4375
    5MOL   C745 3873   3.217   7.173   0.776  0.0504 -0.7954 -0.1381
    5MOL   C746 3874   3.159   7.273   0.673  0.0717 -0.1678  0.5449
    5MOL   O747 3875   3.264   7.356   0.623  0.5900  0.0089 -0.9879
    5MOL   C748 3876   3.345   7.108   0.739  0.4188  0.1508 -0.0610
    5MOL   C749 3877   3.404   7.012   0.843 -0.2410 -0.4167  0.3255
    5MOL   C750 3878   3.423   7.082   0.974  0.0093 -0.2771 -0.2546
    5MOL   C751 3879   3.480   6.983   1.080 -0.2105 -0.2321 -0.1250
    5MOL   O752 3880   3.582   6.906   1.022  0.1942  0.3106  0.5331
    5MOL   C753 3881   3.710   6.947   1.039  0.2064 -0.0457  0.4191
    5MOL   O754 3882   3.751   7.031   1.112  0.0490  0.1579  0.0049
    5MOL   C755 3883   3.810   6.875   0.947 -0.0803 -0.3985  0.2680
    5MOL   C756 3884   3.790   6.753   0.883 -0.0838  0.4280 -0.8517
    5MOL   C757 3885   3.886   6.692   0.807  0.0162  0.4556  0.0551
    5MOL   C758 3886   4.017   6.747   0.795  0.8006 -0.2930 -0.5215
    5MOL   C759 3887   4.114   6.672   0.711 -1.1133 -0.1779  0.2109
    5MOL   O760 3888   4.209   6.732   0.663  0.1618 -0.2130 -0.1246
    5MOL   O761 3889   4.083   6.548   0.672 -0.0639 -0.0028 -0.7216
    5MOL   C762 3890   4.042   6.872   0.858 -0.4942 -0.2969  0.1366
    5MOL   C763 3891   3.940   6.933   0.934 -1.9461 -0.0699  0.5119
    5MOL   H764 3892   3.306   7.203   1.119  0.3771 -2.1616  0.2359
    5MOL   H765 3893   3.220   7.077   1.048 -0.4831  0.8564 -0.0374
    5MOL   H766 3894   3.161   7.300   0.937  1.2872  1.4692 -0.1048
    5MOL   H767 3895   3.325   7.315   0.891 -0.4097  1.7112  1.9796
    5MOL   H768 3896   3.145   7.092   0.790 -0.2735 -0.5747 -0.5207
    5MOL   H769 3897   3.099   7.232   0.592  3.5926  1.3806 -2.9990
    5MOL   H770 3898   3.086   7.329   0.731 -1.2062 -1.2476 -0.0066
    5MOL   H771 3899   3.343   7.058   0.642  0.4771 -1.1484  0.6028
    5MOL   H772 3900   3.421   7.184   0.722  0.7351  0.1336  1.2365
    5MOL   H773 3901   3.494   6.970   0.797  0.5559  0.7643  0.7602
    5MOL   H774 3902   3.341   6.925   0.862 -2.5527  0.8382 -1.3783
    5MOL   H775 3903   3.505   7.154   0.968 -1.5125  1.5650  0.6171
    5MOL   H776 3904   3.515   7.038   1.168  1.7253 -0.9261 -0.4524
    5MOL   H777 3905   3.410   6.903   1.103  2.2091 -1.6508  2.5118
    5MOL   H778 3906   3.700   6.695   0.897  1.5414 -2.2342 -1.2324
    5MOL   H779 3907   3.864   6.595   0.766 -3.9767  1.0513  0.5648
    5MOL   H780 3908   4.137   6.923   0.848  1.3250 -3.4248  0.8027
    5MOL   H781 3909   3.954   7.033   0.973 -0.5824  0.3317 -0.9986
    5MOL   H782 3910   4.144   6.514   0.607  0.7428  0.3211 -0.1454
    6MOL     C1 3911   3.500   3.266   7.775 -0.8032  0.2541  0.4909
    6MOL     C2 3912   3.378   3.219   7.693 -0.2395  0.3442 -0.3873
    6MOL     C3 3913   3.369   3.069   7.693 -0.6103 -0.5518 -0.3317
    6MOL     C4 3914   3.242   3.034   7.625 -0.3628  0.0999  0.4110
    6MOL     O5 3915   3.224   2.896   7.628  0.2131 -0.2796  0.0936
    6MOL     C6 3916   3.491   2.991   7.647  0.0884  0.3590  0.3711
    6MOL     C7 3917   3.619   3.051   7.706  0.0799  0.2246 -0.0632
    6MOL     C8 3918   3.627   3.205   7.708 -0.0973 -0.0112  0.6701
    6MOL     C9 3919   3.767   3.250   7.758 -0.7925 -0.2295 -0.1436
    6MOL    O10 3920   3.868   3.210   7.668 -0.4165 -0.0049  0.2770
    6MOL    C11 3921   3.997   3.235   7.683  0.7180 -0.0187  0.0453
    6MOL    O12 3922   4.055   3.311   7.763  0.4401  0.1710  0.2021
    6MOL    C13 3923   4.080   3.154   7.590 -0.1639 -0.5769 -0.8355
    6MOL    C14 3924   4.033   3.056   7.502  0.5745  0.3570 -0.4170
    6MOL    C15 3925   4.120   2.989   7.414  0.1935  0.3891 -0.1692
    6MOL    C16 3926   4.260   3.014   7.420  0.1218  0.2509 -0.0898
    6MOL    C17 3927   4.350   2.949   7.324 -0.5047  0.1782 -0.2428
    6MOL    O18 3928   4.471   2.955   7.333 -0.4329 -0.1569  0.8819
    6MOL    O19 3929   4.284   2.884   7.228 -0.1635 -0.1781 -0.7002
    6MOL    C20 3930   4.312   3.104   7.513  0.6363  0.4664  0.1281
    6MOL    C21 3931   4.219   3.172   7.596 -0.4296 -0.1920  0.0678
    6MOL    H22 3932   3.502   3.375   7.778  1.6438  0.2366  0.4570
    6MOL    H23 3933   3.497   3.242   7.881 -2.0607 -2.6803 -0.1436
    6MOL    H24 3934   3.283   3.257   7.733  1.0707 -0.7386  3.9817
    6MOL    H25 3935   3.388   3.254   7.591  0.8751 -2.3072 -1.2137
    6MOL    H26 3936   3.358   3.049   7.800  2.7731  1.6173  0.4859
    6MOL    H27 3937   3.163   3.079   7.684 -0.6258  0.1737  0.0022
    6MOL    H28 3938   3.244   3.056   7.518 -0.6552 -0.9163  0.1918
    6MOL    H29 3939   3.496   2.884   7.668  1.8038  0.2009 -0.7507
    6MOL    H30 3940   3.508   2.981   7.539 -0.9102 -0.9085  0.3155
    6MOL    H31 3941   3.701   3.005   7.651 -0.7585  1.9279 -2.8251
    6MOL    H32 3942   3.628   3.011   7.807 -1.6947 -1.5242 -0.5527
    6MOL    H33 3943   3.625   3.240   7.605  1.8617 -0.1339  0.5823
    6MOL    H34 3944   3.775   3.358   7.767  1.6592 -0.1439 -2.6967
    6MOL    H35 3945   3.777   3.216   7.861  1.9139  0.6682 -0.0701
    6MOL    H36 3946   3.926   3.040   7.504  0.4234  1.4033  0.0057
    6MOL    H37 3947   4.078   2.923   7.340  0.7451  0.1583 -0.2794
    6MOL    H38 3948   4.419   3.118   7.521  0.8613 -1.0506 -0.1201
    6MOL    H39 3949   4.261   3.238   7.671  1.2280  0.4029 -1.3688
    6MOL    H40 3950   3.182   2.865   7.707  1.3948 -1.0139  0.4479
    6MOL    C41 3951   4.363   2.753   6.632 -0.7599  0.1956  0.6201
    6MOL    C42 3952   4.376   2.839   6.754 -0.3852 -0.4246  0.5339
    6MOL    C43 3953   4.368   2.764   6.888  0.6842  0.8947 -0.3933
    6MOL    C44 3954   4.383   2.860   7.009 -0.9447 -0.3982  0.2971
    6MOL    O45 3955   4.372   2.798   7.131  0.2093 -0.0210 -0.5930
    6MOL    C46 3956   4.230   2.689   6.891 -0.1072 -0.3767  1.2446
    6MOL    C47 3957   4.225   2.590   6.771 -0.4205  0.9895  0.4428
    6MOL    C48 3958   4.243   2.654   6.634 -0.9111 -0.0762 -0.5418
    6MOL    C49 3959   4.257   2.556   6.514 -0.3566  0.7852  0.9559
    6MOL    O50 3960   4.272   2.639   6.400 -0.5629 -0.2811  0.1967
    6MOL    C51 3961   4.291   2.570   6.287 -0.1763 -0.2806 -0.1429
    6MOL    O52 3962   4.302   2.449   6.272  0.2598  0.2219  0.0537
    6MOL    C53 3963   4.296   2.675   6.178 -0.9203  0.0134 -0.2224
    6MOL    C54 3964   4.240   2.801   6.188  0.2591  0.6272  0.0761
    6MOL    C55 3965   4.230   2.891   6.079  0.7503 -0.0640 -0.8631
    6MOL    C56 3966   4.298   2.860   5.962 -0.3734 -0.0847  0.1588
    6MOL    C57 3967   4.310   2.971   5.862  0.3618  0.3213 -0.7409
    6MOL    O58 3968   4.233   3.068   5.852  0.5143  0.0884  0.0129
    6MOL    O59 3969   4.428   2.955   5.791  0.5072 -0.1673 -0.1884
    6MOL    C60 3970   4.367   2.734   5.948  0.2358  0.3476 -0.8931
    6MOL    C61 3971   4.364   2.640   6.050  0.4212  0.2831 -0.1401
    6MOL    H62 3972   4.361   2.807   6.538  1.7840 -0.8158 -0.0620
    6MOL    H63 3973   4.449   2.687   6.617 -1.3557 -0.6641  0.9444
    6MOL    H64 3974   4.471   2.893   6.744  0.1475 -1.5099 -0.2793
    6MOL    H65 3975   4.304   2.921   6.758  0.8621  0.7158  0.2812
    6MOL    H66 3976   4.444   2.686   6.886  0.8018  0.9248  1.7367
    6MOL    H67 3977   4.481   2.908   7.010 -1.9617  1.6802  1.8224
    6MOL    H68 3978   4.305   2.935   6.995 -0.5870 -0.1500 -0.4187
    6MOL    H69 3979   4.232   2.630   6.982 -1.6746 -0.9616  0.8991
    6MOL    H70 3980   4.144   2.754   6.904  0.4916  0.2647  2.0313
    6MOL    H71 3981   4.130   2.536   6.780 -0.4475  1.0939  0.7830
    6MOL    H72 3982   4.298   2.511   6.787 -1.5864 -0.6007 -1.8556
    6MOL    H73 3983   4.167   2.730   6.619 -0.7497  0.1280 -0.3291
    6MOL    H74 3984   4.342   2.488   6.522 -0.9486 -0.1029 -0.1869
    6MOL    H75 3985   4.169   2.496   6.489 -0.0787  1.0505 -0.7436
    6MOL    H76 3986   4.184   2.831   6.276 -0.7220 -0.2977 -0.2150
    6MOL    H77 3987   4.179   2.985   6.093 -2.5588 -1.8614 -0.3049
    6MOL    H78 3988   4.408   2.693   5.857  0.0787 -2.0986  0.1043
    6MOL    H79 3989   4.400   2.542   6.024 -3.2954 -1.2587  0.1280
    6MOL    C80 3990   4.695   3.144   5.334 -0.0136  0.6413  0.2039
    6MOL    C81 3991   4.629   3.050   5.430  0.7511  0.0598  0.0208
    6MOL    C82 3992   4.474   3.063   5.428 -0.3790  0.9803  0.1641
    6MOL    C83 3993   4.427   2.989   5.553 -0.3757 -0.0166  0.0622
    6MOL    O84 3994   4.448   3.060   5.681  0.5964  0.4025 -0.2245
    6MOL    C85 3995   4.430   3.215   5.432 -0.3255  0.0412  0.6426
    6MOL    C86 3996   4.499   3.305   5.326  0.5249  0.1302  0.1898
    6MOL    C87 3997   4.651   3.297   5.330 -1.1163  0.2519 -0.1852
    6MOL    C88 3998   4.724   3.377   5.229  0.1392  0.5306  0.0164
    6MOL    O89 3999   4.712   3.520   5.251  0.5446  0.5083 -0.2381
    6MOL    C90 4000   4.778   3.603   5.167  0.2631 -0.1268 -0.1919
    6MOL    O91 4001   4.870   3.562   5.096 -0.2695  0.1813  0.6761
    6MOL    C92 4002   4.732   3.744   5.181 -0.4886 -0.0447 -0.4690
    6MOL    C93 4003   4.801   3.849   5.119 -0.2575 -0.5047 -0.1418
    6MOL    C94 4004   4.765   3.985   5.146 -0.0045  0.4884 -0.1467
    6MOL    C95 4005   4.658   4.011   5.235 -0.1616 -0.3171 -0.1680
    6MOL    C96 4006   4.642   4.148   5.280  0.4558 -0.1192  0.1644
    6MOL    O97 4007   4.718   4.243   5.251 -0.0631  0.2537 -0.5151
    6MOL    O98 4008   4.547   4.167   5.371  0.2484  0.5285 -0.2651
    6MOL    C99 4009   4.574   3.909   5.286 -0.3403 -0.1299 -0.1145
    6MOL   C100 4010   4.619   3.776   5.262  0.8518 -0.6886 -0.6911
    6MOL   H101 4011   4.802   3.149   5.355 -0.1884  0.8636  1.0575
    6MOL   H102 4012   4.683   3.090   5.240  0.4649  1.0918 -0.1166
    6MOL   H103 4013   4.659   2.948   5.403 -1.1023 -0.6068  0.3521
    6MOL   H104 4014   4.658   3.077   5.531 -1.8317  0.1568  0.7752
    6MOL   H105 4015   4.441   3.004   5.342 -1.3959 -0.6281  1.6330
    6MOL   H106 4016   4.324   2.954   5.548 -0.5729  0.7554 -1.4823
    6MOL   H107 4017   4.472   2.892   5.573 -0.6081  0.3217  2.4035
    6MOL   H108 4018   4.322   3.213   5.418 -0.2507  2.6232 -0.3924
    6MOL   H109 4019   4.458   3.245   5.533 -2.2629 -1.4523  1.6503
    6MOL   H110 4020   4.457   3.406   5.329  0.7218  0.1792  1.8723
    6MOL   H111 4021   4.461   3.277   5.228  0.7969 -0.3316  0.2192
    6MOL   H112 4022   4.695   3.336   5.422 -0.8958 -0.5860  0.0642
    6MOL   H113 4023   4.827   3.342   5.231 -0.2444 -0.7623 -1.7528
    6MOL   H114 4024   4.678   3.356   5.132 -0.4841 -1.0020  0.6282
    6MOL   H115 4025   4.894   3.828   5.068 -0.0027 -3.0603  1.2696
    6MOL   H116 4026   4.825   4.061   5.097  1.7940 -0.0859  1.0900
    6MOL   H117 4027   4.499   3.930   5.361 -0.5703 -0.1669 -0.3360
    6MOL   H118 4028   4.571   3.692   5.310 -1.2376  0.6530 -0.3699
    6MOL   C119 4029   4.304   4.735   5.415  0.9889 -0.7659 -0.3574
    6MOL   C120 4030   4.312   4.596   5.350  0.4843  0.1798 -0.3439
    6MOL   C121 4031   4.425   4.512   5.406  0.1615  0.2220 -0.5191
    6MOL   C122 4032   4.450   4.377   5.343 -0.0282  0.8611 -0.5801
    6MOL   O123 4033   4.538   4.308   5.430 -0.1168  0.1345 -0.0128
    6MOL   C124 4034   4.562   4.593   5.399  0.3260 -0.2340  0.0963
    6MOL   C125 4035   4.555   4.716   5.489 -0.3914 -0.1791  0.0144
    6MOL   C126 4036   4.444   4.810   5.420 -0.2967 -0.2458 -0.3314
    6MOL   C127 4037   4.430   4.952   5.483  0.3731  0.2072 -0.1399
    6MOL   O128 4038   4.332   5.034   5.422 -0.1156 -0.0207  0.0602
    6MOL   C129 4039   4.369   5.098   5.305  0.2284 -0.0678 -0.8121
    6MOL   O130 4040   4.485   5.099   5.254  0.4813  0.0265 -0.6511
    6MOL   C131 4041   4.247   5.140   5.232 -0.0403 -0.0909 -0.1712
    6MOL   C132 4042   4.130   5.169   5.306  0.2552  0.3392  0.0831
    6MOL   C133 4043   4.019   5.229   5.239 -0.0596  0.2695  0.1576
    6MOL   C134 4044   4.013   5.244   5.097 -0.2018 -0.4533  0.0723
    6MOL   C135 4045   3.889   5.291   5.030 -1.1699 -0.0098  0.0083
    6MOL   O136 4046   3.780   5.289   5.085  0.0033  0.5012 -0.3544
    6MOL   O137 4047   3.903   5.328   4.901  1.2620 -0.1657 -0.1924
    6MOL   C138 4048   4.131   5.208   5.026 -1.0939  0.2731  0.5612
    6MOL   C139 4049   4.240   5.152   5.090 -0.3595 -0.1464 -0.6301
    6MOL   H140 4050   4.220   4.802   5.392 -0.5036 -1.7436  2.0504
    6MOL   H141 4051   4.284   4.724   5.522  2.9472 -0.5126  0.0490
    6MOL   H142 4052   4.217   4.548   5.371  1.1387 -1.0857 -0.2583
    6MOL   H143 4053   4.320   4.599   5.241 -1.4358 -0.9187 -0.5293
    6MOL   H144 4054   4.390   4.483   5.505 -0.7759  0.6986 -0.7054
    6MOL   H145 4055   4.355   4.324   5.337  0.0972  0.3459  1.6324
    6MOL   H146 4056   4.489   4.394   5.243  0.8803  2.2121 -0.0103
    6MOL   H147 4057   4.650   4.535   5.426  2.2779  0.8076 -3.6962
    6MOL   H148 4058   4.581   4.629   5.298 -0.1154 -1.1170 -0.3061
    6MOL   H149 4059   4.653   4.763   5.495 -0.7604  0.6422 -0.2427
    6MOL   H150 4060   4.530   4.687   5.591  2.7257  0.7098  1.0893
    6MOL   H151 4061   4.469   4.822   5.314 -0.3356  1.5183 -0.1685
    6MOL   H152 4062   4.393   4.939   5.585  1.1026  0.4550  0.1608
    6MOL   H153 4063   4.525   5.005   5.483  0.0172  0.8565  0.5940
    6MOL   H154 4064   4.131   5.164   5.414  0.9520 -0.7303  0.0335
    6MOL   H155 4065   3.941   5.270   5.301 -0.2935  2.6825 -1.6340
    6MOL   H156 4066   4.135   5.213   4.918 -0.3149 -0.0871  0.5658
    6MOL   H157 4067   4.325   5.124   5.029  0.6744 -0.0754  0.7473
    6MOL   C158 4068   3.660   5.718   4.550  0.1880 -0.7168 -0.2268
    6MOL   C159 4069   3.743   5.623   4.648  0.2326  0.2690 -0.2225
    6MOL   C160 4070   3.711   5.623   4.796 -1.3535  0.0846  0.2296
    6MOL   C161 4071   3.816   5.542   4.872  0.0807 -0.4293  0.2740
    6MOL   O162 4072   3.788   5.409   4.851 -0.2910  0.8287 -0.1331
    6MOL   C163 4073   3.699   5.768   4.848 -0.8698  0.1021 -0.0364
    6MOL   C164 4074   3.621   5.860   4.750  0.7295 -0.7774  0.4582
    6MOL   C165 4075   3.660   5.861   4.598  0.2098  0.5148  0.1853
    6MOL   C166 4076   3.562   5.954   4.516  0.3387 -0.0464 -0.4891
    6MOL   O167 4077   3.436   5.900   4.470 -0.0222 -0.1666 -0.0523
    6MOL   C168 4078   3.317   5.918   4.544  0.5434 -0.6900  0.3124
    6MOL   O169 4079   3.325   5.955   4.663 -0.7348 -0.1397  0.4851
    6MOL   C170 4080   3.191   5.894   4.469  0.1566 -0.3372  0.6166
    6MOL   C171 4081   3.196   5.836   4.338  0.4189  0.3187 -0.3217
    6MOL   C172 4082   3.081   5.820   4.258  0.0428 -0.5958 -0.1658
    6MOL   C173 4083   2.954   5.858   4.309  0.2401 -0.7306  0.0464
    6MOL   C174 4084   2.840   5.837   4.219  0.0104  0.0223  0.3992
    6MOL   O175 4085   2.840   5.756   4.126  0.0724  0.0389 -0.0774
    6MOL   O176 4086   2.740   5.917   4.245  0.1240  0.1420  0.5084
    6MOL   C177 4087   2.948   5.918   4.437  1.2122 -0.2069 -0.7679
    6MOL   C178 4088   3.064   5.925   4.516  0.6098 -0.2886  0.3921
    6MOL   H179 4089   3.701   5.717   4.449 -0.2663  1.7803 -0.4755
    6MOL   H180 4090   3.554   5.695   4.558 -0.2319  1.4092  0.5999
    6MOL   H181 4091   3.750   5.530   4.593  2.3008 -0.5692  1.3998
    6MOL   H182 4092   3.836   5.675   4.625 -0.2069  0.5384 -1.4514
    6MOL   H183 4093   3.612   5.579   4.811 -2.6158  1.9556 -2.1808
    6MOL   H184 4094   3.914   5.558   4.827 -0.7056  2.1003 -0.6771
    6MOL   H185 4095   3.813   5.569   4.978  0.8676  0.5853  0.0459
    6MOL   H186 4096   3.660   5.774   4.950 -0.7329  2.2983 -0.0843
    6MOL   H187 4097   3.802   5.805   4.856 -1.9194  3.3872 -0.8096
    6MOL   H188 4098   3.640   5.959   4.793  2.3110 -1.3271  1.0487
    6MOL   H189 4099   3.514   5.840   4.758 -0.6156  2.8493 -5.1382
    6MOL   H190 4100   3.765   5.889   4.607  0.2434  0.1693  0.9428
    6MOL   H191 4101   3.550   6.038   4.584 -2.1922 -1.3149  0.7364
    6MOL   H192 4102   3.629   5.984   4.436  1.0188 -0.1194  0.0433
    6MOL   H193 4103   3.295   5.805   4.307  0.2375  0.1863 -0.7736
    6MOL   H194 4104   3.089   5.791   4.154  0.5918  1.0315 -0.5971
    6MOL   H195 4105   2.861   5.940   4.496 -0.0224 -4.8731 -0.6523
    6MOL   H196 4106   3.048   5.960   4.617 -3.4743 -0.3689 -0.1226
    6MOL   C197 4107   2.197   5.829   4.001 -0.1632  0.4007  0.0252
    6MOL   C198 4108   2.346   5.811   4.028 -0.7904  0.4270 -0.6201
    6MOL   C199 4109   2.374   5.829   4.179  0.4067 -0.4152  0.4523
    6MOL   C200 4110   2.524   5.818   4.217 -0.4330  0.3274 -0.2879
    6MOL   O201 4111   2.619   5.907   4.155  0.1780 -0.2240  0.1896
    6MOL   C202 4112   2.326   5.965   4.235  0.1503 -0.2278  0.1609
    6MOL   C203 4113   2.168   5.980   4.213  0.0578  0.3557 -0.1928
    6MOL   C204 4114   2.134   5.960   4.064 -0.1143  0.6373 -0.8514
    6MOL   C205 4115   1.983   5.956   4.051  0.1825 -0.2241 -0.5279
    6MOL   O206 4116   1.937   5.922   3.926 -0.5770 -0.1617 -0.1571
    6MOL   C207 4117   1.928   6.010   3.821 -0.2989  0.2382 -0.5297
    6MOL   O208 4118   1.969   6.126   3.827 -0.3129 -0.1245  0.6614
    6MOL   C209 4119   1.827   5.957   3.721 -0.4853  0.2135 -0.1006
    6MOL   C210 4120   1.747   6.041   3.646  0.2073 -0.0690 -0.1324
    6MOL   C211 4121   1.666   5.990   3.542 -0.0845 -0.4599 -0.0562
    6MOL   C212 4122   1.664   5.855   3.511 -0.2246 -0.4950 -0.4633
    6MOL   C213 4123   1.576   5.786   3.419 -0.1040  0.2693  0.3376
    6MOL   O214 4124   1.476   5.845   3.377 -0.2419 -0.6949 -0.6613
    6MOL   O215 4125   1.613   5.655   3.386  0.2315 -0.2118 -0.1848
    6MOL   C216 4126   1.746   5.773   3.590 -0.1402  1.1867  0.2581
    6MOL   C217 4127   1.821   5.819   3.701  1.3123 -0.0764 -0.3832
    6MOL   H218 4128   2.177   5.821   3.894 -1.7141 -0.1752  0.3339
    6MOL   H219 4129   2.139   5.745   4.039 -2.0470  0.7414 -1.9687
    6MOL   H220 4130   2.380   5.714   3.993 -1.8193  0.1322 -0.8139
    6MOL   H221 4131   2.402   5.883   3.968  1.2787  0.2013  0.9831
    6MOL   H222 4132   2.319   5.752   4.232 -0.3121  0.5353  1.1116
    6MOL   H223 4133   2.527   5.831   4.325 -1.9139  1.5631 -0.3701
    6MOL   H224 4134   2.552   5.717   4.187 -1.5312 -0.3960  1.0763
    6MOL   H225 4135   2.341   5.973   4.343 -0.5943 -0.0572  0.2511
    6MOL   H226 4136   2.384   6.044   4.189  0.2730  0.0941  0.8594
    6MOL   H227 4137   2.131   6.077   4.248  1.6501  0.7951  0.3278
    6MOL   H228 4138   2.118   5.899   4.265 -0.1265 -1.0351 -2.4864
    6MOL   H229 4139   2.167   6.051   4.014  0.0868  0.8098 -0.4127
    6MOL   H230 4140   1.927   5.895   4.122  3.3491  0.4279  2.6835
    6MOL   H231 4141   1.946   6.059   4.058 -1.1647 -0.7879  1.1892
    6MOL   H232 4142   1.764   6.147   3.662  2.2465 -0.4909  0.6950
    6MOL   H233 4143   1.601   6.058   3.488 -0.7038  0.2747  1.5889
    6MOL   H234 4144   1.733   5.665   3.587  1.5236  1.0100 -1.2036
    6MOL   H235 4145   1.868   5.748   3.767  0.8011 -2.1575 -2.2220
    6MOL   C236 4146   1.429   5.260   3.048 -0.5105  0.5569  0.0415
    6MOL   C237 4147   1.526   5.361   3.121  1.2277 -0.5664 -0.0066
    6MOL   C238 4148   1.476   5.499   3.082  0.3388 -0.5606  0.0521
    6MOL   C239 4149   1.551   5.599   3.164  0.4236  0.2255 -0.0757
    6MOL   O240 4150   1.517   5.578   3.301  0.2785 -0.3103  0.4395
    6MOL   C241 4151   1.489   5.523   2.930 -0.2707  0.9477 -0.2280
    6MOL   C242 4152   1.407   5.419   2.851  0.2117  0.0736  0.2803
    6MOL   C243 4153   1.445   5.274   2.895  0.0829  0.2912 -0.6519
    6MOL   C244 4154   1.367   5.166   2.814 -0.6783  0.4164 -0.6258
    6MOL   O245 4155   1.427   5.035   2.815  0.5824 -0.1454 -0.8580
    6MOL   C246 4156   1.390   4.944   2.719 -0.5880  0.2816 -0.0263
    6MOL   O247 4157   1.300   4.959   2.636  0.2066 -0.3936  0.0789
    6MOL   C248 4158   1.462   4.811   2.736  0.0790  0.0472  0.1856
    6MOL   C249 4159   1.413   4.708   2.656  0.1641 -0.2830  0.6989
    6MOL   C250 4160   1.460   4.580   2.671  0.6321  0.2077 -0.1562
    6MOL   C251 4161   1.566   4.552   2.767 -0.6863 -0.5645 -0.0546
    6MOL   C252 4162   1.605   4.409   2.793 -0.7307 -0.0746 -0.1711
    6MOL   O253 4163   1.723   4.376   2.784 -0.1994 -0.8623 -0.0410
    6MOL   O254 4164   1.493   4.339   2.818 -0.7328  0.0289  0.0947
    6MOL   C255 4165   1.628   4.661   2.839 -0.0766  0.9086  0.9412
    6MOL   C256 4166   1.569   4.788   2.824  0.0352  0.3405  0.5539
    6MOL   H257 4167   1.471   5.160   3.053 -2.0180 -0.1284 -0.7640
    6MOL   H258 4168   1.326   5.267   3.082 -0.9985 -0.2047 -1.2766
    6MOL   H259 4169   1.549   5.345   3.227  0.3894 -1.2196  0.0813
    6MOL   H260 4170   1.625   5.362   3.077  0.6547  0.4935 -1.2998
    6MOL   H261 4171   1.370   5.497   3.109  0.3422  1.1413  0.2543
    6MOL   H262 4172   1.659   5.600   3.148  0.6432  2.4673  1.3422
    6MOL   H263 4173   1.523   5.697   3.125 -0.1295  0.3347  0.5890
    6MOL   H264 4174   1.445   5.621   2.909 -2.8451  0.0100  0.5932
    6MOL   H265 4175   1.596   5.519   2.907 -0.3647 -0.7414 -0.4418
    6MOL   H266 4176   1.430   5.429   2.745 -1.4733  1.9535  0.0605
    6MOL   H267 4177   1.301   5.436   2.866  0.7692  2.3478  2.0891
    6MOL   H268 4178   1.551   5.258   2.874  0.0332  0.5781 -1.1145
    6MOL   H269 4179   1.265   5.168   2.852 -0.8025 -2.2610 -0.6925
    6MOL   H270 4180   1.352   5.206   2.714  1.5835 -1.4096 -1.7586
    6MOL   H271 4181   1.334   4.718   2.584  0.9070 -6.0536 -1.1367
    6MOL   H272 4182   1.417   4.500   2.613 -1.4195  1.8735 -0.9951
    6MOL   H273 4183   1.708   4.637   2.907 -1.0074 -1.3385  1.3021
    6MOL   H274 4184   1.600   4.867   2.891 -2.3427  0.3502  1.6799
    6MOL   C275 4185   1.742   3.952   2.548 -0.0632 -0.0826  0.3878
    6MOL   C276 4186   1.683   3.997   2.682 -0.8725  0.4181  0.3061
    6MOL   C277 4187   1.541   4.051   2.656 -0.1018 -0.3287 -0.7163
    6MOL   C278 4188   1.456   4.100   2.776  0.1747  0.3415 -0.7418
    6MOL   O279 4189   1.523   4.198   2.859 -0.0697  0.5790  0.8615
    6MOL   C280 4190   1.542   4.158   2.543 -0.4910 -0.1129  0.6080
    6MOL   C281 4191   1.619   4.112   2.416 -0.7641 -0.0355 -0.0607
    6MOL   C282 4192   1.759   4.066   2.447 -0.5860  0.6040 -0.4078
    6MOL   C283 4193   1.839   4.013   2.321  0.5581 -1.1765 -0.6036
    6MOL   O284 4194   1.851   4.124   2.241 -0.1556  0.1739  0.0546
    6MOL   C285 4195   1.884   4.118   2.112  0.3936 -0.4842  0.0057
    6MOL   O286 4196   1.920   4.010   2.060  0.4524 -0.6397 -0.2988
    6MOL   C287 4197   1.869   4.243   2.035 -0.4198  0.5062 -0.5799
    6MOL   C288 4198   1.927   4.255   1.908  0.1098  1.5329  0.0372
    6MOL   C289 4199   1.915   4.374   1.832  0.5793 -0.1296 -0.6008
    6MOL   C290 4200   1.834   4.478   1.883  0.1747  0.5021  0.4417
    6MOL   C291 4201   1.817   4.604   1.806  0.4020 -0.5234 -0.3459
    6MOL   O292 4202   1.710   4.673   1.804 -0.0030 -0.5598  0.2309
    6MOL   O293 4203   1.932   4.647   1.751 -0.2649  0.2070 -0.6538
    6MOL   C294 4204   1.769   4.464   2.003  0.0429  0.1554  0.0660
    6MOL   C295 4205   1.791   4.350   2.084 -0.4977 -0.2492  0.2039
    6MOL   H296 4206   1.834   3.903   2.581 -1.6778 -3.4401  0.1698
    6MOL   H297 4207   1.684   3.867   2.512  1.7668 -2.5329  3.0193
    6MOL   H298 4208   1.681   3.915   2.754  0.5907  1.5722  1.6821
    6MOL   H299 4209   1.745   4.068   2.737 -1.9634  0.6034  1.3223
    6MOL   H300 4210   1.490   3.968   2.606 -0.3301  0.3498 -1.6136
    6MOL   H301 4211   1.362   4.146   2.749 -0.2847 -0.7940 -1.1193
    6MOL   H302 4212   1.428   4.006   2.825  2.3084  0.1096  0.1320
    6MOL   H303 4213   1.437   4.172   2.517  0.0620 -1.9005 -3.0488
    6MOL   H304 4214   1.582   4.255   2.572  0.1970  0.7740 -2.9803
    6MOL   H305 4215   1.619   4.186   2.336 -2.4217 -0.5763 -0.5799
    6MOL   H306 4216   1.559   4.032   2.373 -0.3142 -1.2575  1.5309
    6MOL   H307 4217   1.816   4.147   2.491  0.7401 -0.0185 -0.9525
    6MOL   H308 4218   1.933   3.965   2.348  2.4086  0.3769 -3.9104
    6MOL   H309 4219   1.781   3.942   2.263 -0.5347 -1.5946  0.9724
    6MOL   H310 4220   1.979   4.173   1.859  2.0196  1.5565  1.9664
    6MOL   H311 4221   1.961   4.378   1.734  0.0490 -0.7288 -0.8784
    6MOL   H312 4222   1.696   4.537   2.034  0.2785  0.6469 -0.5378
    6MOL   H313 4223   1.750   4.347   2.184 -0.4491  1.9457  0.3251
    6MOL   C314 4224   2.292   4.980   1.518 -0.0789 -0.2597 -0.2791
    6MOL   C315 4225   2.206   4.884   1.596 -0.1464  0.0375  0.1629
    6MOL   C316 4226   2.107   4.956   1.691 -0.2167  0.0177  0.0681
    6MOL   C317 4227   2.026   4.854   1.781 -0.0022 -0.0434  0.3443
    6MOL   O318 4228   1.932   4.780   1.701  0.2678 -0.1377 -0.9024
    6MOL   C319 4229   2.179   5.065   1.778 -0.0658 -0.3921 -0.6827
    6MOL   C320 4230   2.252   5.162   1.688  0.1496 -0.3029  0.1299
    6MOL   C321 4231   2.357   5.087   1.606 -0.1086 -0.3989 -0.1401
    6MOL   C322 4232   2.454   5.182   1.524 -0.1285  0.2107 -0.4721
    6MOL   O323 4233   2.379   5.279   1.455 -0.2903 -0.0823  0.5078
    6MOL   C324 4234   2.437   5.402   1.432  0.2304 -0.3855 -0.8340
    6MOL   O325 4235   2.555   5.436   1.446 -0.3830 -0.4179  0.0809
    6MOL   C326 4236   2.333   5.495   1.389  0.0710  0.8606 -0.4295
    6MOL   C327 4237   2.374   5.627   1.355  0.1865 -0.3601 -0.1493
    6MOL   C328 4238   2.284   5.722   1.307  0.8221 -0.2825  0.3943
    6MOL   C329 4239   2.148   5.692   1.301 -0.2543  0.3806  0.2448
    6MOL   C330 4240   2.041   5.791   1.251 -0.8768 -0.2121  0.6187
    6MOL   O331 4241   2.077   5.898   1.201 -0.0740 -0.0565  0.9086
    6MOL   O332 4242   1.919   5.741   1.259  0.3228 -0.5861 -0.3932
    6MOL   C333 4243   2.110   5.560   1.339 -0.0587  0.0538 -0.0564
    6MOL   C334 4244   2.202   5.468   1.386 -0.0888  0.3015 -0.2926
    6MOL   H335 4245   2.367   4.915   1.473 -0.0392 -0.9326  0.7474
    6MOL   H336 4246   2.239   5.008   1.427 -0.4559 -1.0650 -0.3137
    6MOL   H337 4247   2.146   4.827   1.524 -0.9230 -0.0222  0.8543
    6MOL   H338 4248   2.260   4.817   1.662 -1.1323  0.7580  1.7117
    6MOL   H339 4249   2.039   5.020   1.635  2.4810 -0.2098 -3.6161
    6MOL   H340 4250   2.091   4.795   1.846 -1.0703 -2.0425 -0.3673
    6MOL   H341 4251   1.967   4.904   1.858 -1.3171 -0.7707 -0.1691
    6MOL   H342 4252   2.112   5.127   1.837 -0.5464  0.2603 -1.8974
    6MOL   H343 4253   2.248   5.011   1.843  0.7587  1.7808  0.2747
    6MOL   H344 4254   2.306   5.222   1.761 -1.9731  1.1264  0.5718
    6MOL   H345 4255   2.183   5.218   1.625  1.1639  0.5566 -0.2303
    6MOL   H346 4256   2.427   5.044   1.678  0.9058 -0.5123 -1.1863
    6MOL   H347 4257   2.522   5.220   1.599  0.2570 -1.1894 -0.1008
    6MOL   H348 4258   2.517   5.127   1.454  0.3667 -0.0506  0.1855
    6MOL   H349 4259   2.481   5.642   1.357  0.0990  0.4259 -1.0256
    6MOL   H350 4260   2.318   5.820   1.278 -1.1512  0.7010  1.2850
    6MOL   H351 4261   2.006   5.530   1.346  0.7100 -2.6635 -0.1320
    6MOL   H352 4262   2.162   5.371   1.411 -0.9250 -0.0590 -2.9128
    6MOL   C353 4263   1.663   5.552   0.816 -0.1851  0.4261 -0.8203
    6MOL   C354 4264   1.739   5.685   0.858  0.5849  0.3751  0.2959
    6MOL   C355 4265   1.741   5.698   1.014 -0.4913 -0.1092 -0.6561
    6MOL   C356 4266   1.803   5.827   1.074 -0.2684 -0.5085  0.6312
    6MOL   O357 4267   1.818   5.839   1.213  0.0654 -0.1348 -0.1385
    6MOL   C358 4268   1.596   5.699   1.061  0.0225  0.0273 -0.1431
    6MOL   C359 4269   1.526   5.565   1.028  0.0820  0.1883  0.2477
    6MOL   C360 4270   1.522   5.545   0.876  0.1013  0.2260  0.3492
    6MOL   C361 4271   1.438   5.421   0.832 -0.1787  0.0858 -0.2082
    6MOL   O362 4272   1.310   5.456   0.859  0.1368  0.0089  0.3189
    6MOL   C363 4273   1.212   5.367   0.827 -0.6949 -0.0677 -0.0604
    6MOL   O364 4274   1.247   5.253   0.804 -0.1948  0.3868 -0.2939
    6MOL   C365 4275   1.081   5.427   0.816  0.5407  0.7972 -0.4823
    6MOL   C366 4276   1.044   5.541   0.882 -0.4027  0.5939  0.3230
    6MOL   C367 4277   0.921   5.604   0.853 -0.0735  0.5075 -0.1287
    6MOL   C368 4278   0.835   5.544   0.761  0.4144  0.8944 -0.8738
    6MOL   C369 4279   0.706   5.614   0.733  0.4698  0.8022 -0.6518
    6MOL   O370 4280   0.671   5.712   0.798 -0.0330 -0.1548 -0.5320
    6MOL   O371 4281   0.641   5.573   0.627 -0.1343  0.2605  0.6949
    6MOL   C372 4282   0.865   5.421   0.701 -0.7658  0.0735  0.0240
    6MOL   C373 4283   0.992   5.362   0.733 -0.1659  0.5802  0.1691
    6MOL   H374 4284   1.653   5.545   0.708 -2.7132  3.1856 -0.8354
    6MOL   H375 4285   1.721   5.471   0.861 -0.8486  0.9840  1.0867
    6MOL   H376 4286   1.843   5.670   0.827  1.8050  0.8224  3.9139
    6MOL   H377 4287   1.702   5.775   0.809  2.0940  1.8399  1.7654
    6MOL   H378 4288   1.783   5.606   1.056  0.9546  0.9818  0.3252
    6MOL   H379 4289   1.897   5.830   1.017 -0.4004 -2.2152  0.2930
    6MOL   H380 4290   1.738   5.907   1.039  0.5987  0.2138  0.6385
    6MOL   H381 4291   1.591   5.702   1.169  1.8152  0.3737 -0.0582
    6MOL   H382 4292   1.551   5.787   1.016 -0.5541 -0.8518 -1.3365
    6MOL   H383 4293   1.429   5.561   1.077  1.4522  0.7982  3.1355
    6MOL   H384 4294   1.574   5.473   1.063 -0.4617 -0.4760 -0.7489
    6MOL   H385 4295   1.468   5.630   0.833 -1.6494 -1.1334 -0.2070
    6MOL   H386 4296   1.462   5.390   0.731  3.4378  0.8622  0.3316
    6MOL   H387 4297   1.462   5.340   0.901 -0.9426 -0.1960 -0.2631
    6MOL   H388 4298   1.094   5.596   0.961  0.3709 -2.4458  2.0340
    6MOL   H389 4299   0.897   5.695   0.906  3.1399  1.9443 -1.0527
    6MOL   H390 4300   0.799   5.371   0.633 -1.2635  0.6971  0.0476
    6MOL   H391 4301   1.021   5.270   0.684  1.1504  0.1257  1.7302
    6MOL   C392 4302   0.208   5.666   0.938 -0.8143  0.4026  0.0020
    6MOL   C393 4303   0.328   5.630   0.848  0.5402 -0.1610 -0.6708
    6MOL   C394 4304   0.281   5.564   0.714  0.2673  0.3673 -0.9993
    6MOL   C395 4305   0.403   5.521   0.627  0.0461  0.0284 -0.0062
    6MOL   O396 4306   0.497   5.624   0.615 -0.2731  0.2887 -0.2058
    6MOL   C397 4307   0.175   5.454   0.736 -0.9417 -0.5126 -0.4228
    6MOL   C398 4308   0.063   5.501   0.833  0.0275 -0.1574  0.6849
    6MOL   C399 4309   0.117   5.550   0.966 -0.2265  0.1151  0.3585
    6MOL   C400 4310   0.004   5.581   1.064  0.5911  0.0735 -0.3105
    6MOL   O401 4311   0.037   5.630   1.191 -0.3894  0.2880  0.1148
    6MOL   C402 4312   0.074   5.546   1.295  0.3242  0.4536  0.3594
    6MOL   O403 4313   0.082   5.422   1.291  0.1621  0.0201 -0.2538
    6MOL   C404 4314   0.104   5.625   1.426  0.5774  0.4121  0.2453
    6MOL   C405 4315   0.071   5.759   1.441 -0.3359 -0.1122  0.3185
    6MOL   C406 4316   0.096   5.828   1.563  0.4195 -0.0406  0.4543
    6MOL   C407 4317   0.155   5.765   1.674 -0.6128 -0.6654 -0.3420
    6MOL   C408 4318   0.187   5.837   1.806  0.1316  0.3726  1.0921
    6MOL   O409 4319   0.270   5.797   1.888  0.0198  0.1150 -0.5087
    6MOL   O410 4320   0.106   5.937   1.826 -0.4544 -0.0970  0.8336
    6MOL   C411 4321   0.193   5.626   1.650  0.0007 -0.8923  0.1628
    6MOL   C412 4322   0.171   5.564   1.532  0.4324  0.2696 -0.6132
    6MOL   H413 4323   0.254   5.681   1.035 -0.4979  0.7627 -0.2008
    6MOL   H414 4324   0.168   5.759   0.897  1.5027  1.7007  0.5738
    6MOL   H415 4325   0.381   5.725   0.839 -0.3157  0.3233 -0.6923
    6MOL   H416 4326   0.402   5.566   0.896 -1.0855  0.1208  2.3261
    6MOL   H417 4327   0.233   5.646   0.661 -0.9701 -0.4879 -1.2097
    6MOL   H418 4328   0.453   5.431   0.661  1.3503  0.7709  0.0953
    6MOL   H419 4329   0.377   5.494   0.524 -0.5012 -1.2004  0.4467
    6MOL   H420 4330   0.130   5.426   0.640  0.5765 -2.6518 -0.5504
    6MOL   H421 4331   0.232   5.368   0.771  0.0968  1.0184  1.7282
    6MOL   H422 4332   8.028   5.422   0.857 -1.3043  1.0050  0.6538
    6MOL   H423 4333   8.030   5.575   0.791  0.6113 -1.1085 -2.0392
    6MOL   H424 4334   0.180   5.469   1.005  1.2521  0.7265 -0.7019
    6MOL   H425 4335   7.968   5.649   1.019 -0.7619 -0.8429  0.4203
    6MOL   H426 4336   7.988   5.487   1.082 -1.6173  1.0388 -1.4398
    6MOL   H427 4337   0.030   5.817   1.360 -0.6504  0.2182  0.7126
    6MOL   H428 4338   0.073   5.932   1.581 -0.5431 -0.0515 -0.6392
    6MOL   H429 4339   0.253   5.571   1.722  0.8923 -0.5225 -0.2974
    6MOL   H430 4340   0.216   5.467   1.513 -0.8872 -0.4842 -0.0273
    6MOL   C431 4341   7.785   6.188   1.861  0.3084 -0.4387 -0.2382
    6MOL   C432 4342   7.918   6.153   1.935  0.1872 -0.5266  0.7936
    6MOL   C433 4343   7.909   6.009   1.992 -0.4133 -0.1883 -0.4263
    6MOL   C434 4344   0.006   5.960   2.046 -0.4620  0.2735 -0.1554
    6MOL   O435 4345   0.120   5.995   1.964 -0.0774 -0.4177 -0.1004
    6MOL   C436 4346   7.796   5.995   2.095 -0.3594  0.1345 -0.1497
    6MOL   C437 4347   7.665   6.044   2.026  0.1157 -0.1211  0.3541
    6MOL   C438 4348   7.680   6.188   1.966  0.2392  0.2958 -1.0296
    6MOL   C439 4349   7.549   6.247   1.898 -0.6105  0.4270  0.0051
    6MOL   O440 4350   7.499   6.186   1.786  0.2922  0.4613 -0.0014
    6MOL   C441 4351   7.477   6.254   1.677 -0.2934 -0.1402  0.4362
    6MOL   O442 4352   7.503   6.375   1.675  0.3699  0.0746  0.1530
    6MOL   C443 4353   7.445   6.169   1.555 -0.0417  0.0552 -0.0545
    6MOL   C444 4354   7.422   6.034   1.569 -0.0411  0.3021  0.1348
    6MOL   C445 4355   7.402   5.957   1.452 -0.6807 -0.3950  0.1606
    6MOL   C446 4356   7.405   6.021   1.329  0.1771  0.3662 -0.2288
    6MOL   C447 4357   7.399   5.944   1.196 -1.1257 -0.3224  0.0976
    6MOL   O448 4358   7.397   5.998   1.082 -0.2937 -0.5914  0.3737
    6MOL   O449 4359   7.398   5.814   1.214  0.4967  0.7203 -0.0263
    6MOL   C450 4360   7.406   6.160   1.318 -0.8389  0.1034 -0.7728
    6MOL   C451 4361   7.427   6.235   1.432  0.5886  0.2912 -0.0372
    6MOL   H452 4362   7.802   6.290   1.826 -0.1245 -0.3116 -0.0786
    6MOL   H453 4363   7.761   6.127   1.774 -0.0138  0.9661 -1.1506
    6MOL   H454 4364   7.996   6.166   1.860 -0.6832  1.7569  0.2319
    6MOL   H455 4365   7.948   6.229   2.007  0.3357  1.3895 -1.2507
    6MOL   H456 4366   7.885   5.949   1.904  0.2688  1.2973 -1.6415
    6MOL   H457 4367   0.021   6.007   2.144 -0.2108 -2.4381  1.1368
    6MOL   H458 4368   8.035   5.853   2.062 -1.4106  0.3396 -0.0562
    6MOL   H459 4369   7.787   5.890   2.120 -1.1741  0.9689  3.3378
    6MOL   H460 4370   7.814   6.051   2.188  1.4700  0.4858 -0.6783
    6MOL   H461 4371   7.583   6.033   2.098  0.4120  1.7149  0.9874
    6MOL   H462 4372   7.645   5.980   1.940  1.3171  3.6948 -2.9139
    6MOL   H463 4373   7.700   6.254   2.050 -1.2799 -0.1156 -0.3284
    6MOL   H464 4374   7.480   6.240   1.982  0.3377  0.4370  0.7978
    6MOL   H465 4375   7.578   6.352   1.892  0.9450 -0.0814 -2.2853
    6MOL   H466 4376   7.450   5.981   1.659  1.9880  1.3647  0.1473
    6MOL   H467 4377   7.407   5.849   1.458  1.9165 -0.2302  1.6965
    6MOL   H468 4378   7.414   6.215   1.226  1.4418  1.2601  0.0745
    6MOL   H469 4379   7.432   6.343   1.432  0.0097  0.3541  2.5041
    6MOL   C470 4380   7.444   5.316   0.961 -0.1365 -0.1797 -0.3591
    6MOL   C471 4381   7.445   5.448   1.044  0.1468 -0.2986 -0.1434
    6MOL   C472 4382   7.525   5.563   0.968 -0.4295 -0.4490 -0.1162
    6MOL   C473 4383   7.524   5.701   1.047  0.1891  0.9640  0.9456
    6MOL   O474 4384   7.392   5.730   1.085  0.1068  0.3323  0.0837
    6MOL   C475 4385   7.666   5.521   0.940 -0.5613 -0.1401 -0.0395
    6MOL   C476 4386   7.668   5.390   0.852  0.0081 -0.4058 -0.0409
    6MOL   C477 4387   7.589   5.280   0.923  0.0309  0.1346 -0.0530
    6MOL   C478 4388   7.589   5.145   0.842  0.3028  0.2173  0.2081
    6MOL   O479 4389   7.534   5.042   0.925 -0.1615 -0.0649 -0.0176
    6MOL   C480 4390   7.532   4.920   0.867  0.5967 -0.2182  0.2118
    6MOL   O481 4391   7.569   4.894   0.752 -0.7655 -0.0469 -0.4115
    6MOL   C482 4392   7.469   4.823   0.961 -0.0566  0.2000 -0.1245
    6MOL   C483 4393   7.485   4.683   0.938  0.5786  0.9489  0.1400
    6MOL   C484 4394   7.432   4.584   1.017 -0.5405 -0.1567 -0.2188
    6MOL   C485 4395   7.362   4.621   1.135 -0.0832 -0.1215 -0.1973
    6MOL   C486 4396   7.326   4.527   1.233  0.0795  0.5301 -0.8174
    6MOL   O487 4397   7.276   4.548   1.344  0.3312 -0.3858  0.2800
    6MOL   O488 4398   7.336   4.398   1.188  0.1406 -0.8759  0.0712
    6MOL   C489 4399   7.343   4.757   1.162 -0.0415  0.0765  0.4102
    6MOL   C490 4400   7.396   4.857   1.076 -0.2229  1.2791 -0.0045
    6MOL   H491 4401   7.414   5.249   1.041  2.1921  1.9650  2.4182
    6MOL   H492 4402   7.374   5.338   0.880 -3.1415 -1.1673  1.8720
    6MOL   H493 4403   7.346   5.493   1.055  0.2518 -0.1508  0.2092
    6MOL   H494 4404   7.479   5.429   1.146  0.9238 -1.4705 -0.6175
    6MOL   H495 4405   7.468   5.593   0.880  0.3019 -0.0347 -0.4562
    6MOL   H496 4406   7.587   5.684   1.135 -2.1673  0.0983  2.5331
    6MOL   H497 4407   7.556   5.790   0.994  1.2570 -0.5217 -0.9247
    6MOL   H498 4408   7.710   5.594   0.871  1.1852 -1.0599  0.0822
    6MOL   H499 4409   7.730   5.506   1.026  0.0735  0.1930 -0.4464
    6MOL   H500 4410   7.770   5.357   0.832  0.2765  0.3662  0.0336
    6MOL   H501 4411   7.617   5.411   0.758 -3.0053 -1.4572  1.2951
    6MOL   H502 4412   7.636   5.259   1.019  0.4428  1.2970  0.0128
    6MOL   H503 4413   7.527   5.166   0.755 -1.2467 -0.1097  1.1955
    6MOL   H504 4414   7.693   5.121   0.822  0.3887  0.8617 -0.1136
    6MOL   H505 4415   7.523   4.649   0.842  0.9013 -0.6864  0.8434
    6MOL   H506 4416   7.465   4.482   1.003 -1.5375 -0.2618 -1.9738
    6MOL   H507 4417   7.296   4.779   1.257 -0.6465 -1.5497  0.5055
    6MOL   H508 4418   7.386   4.958   1.111  1.0017  1.5785 -0.4935
    6MOL   C509 4419   7.290   3.983   1.660  0.3715  0.1461 -0.1755
    6MOL   C510 4420   7.373   4.074   1.561 -0.5315  0.6937 -0.0018
    6MOL   C511 4421   7.278   4.140   1.462  0.3340 -1.2618 -0.2397
    6MOL   C512 4422   7.347   4.234   1.356 -0.3632 -0.6467 -0.1413
    6MOL   O513 4423   7.258   4.305   1.276 -0.0820 -0.4509  0.2345
    6MOL   C514 4424   7.195   4.036   1.388  0.0553  0.3411  0.2102
    6MOL   C515 4425   7.115   3.945   1.485 -0.4422 -0.0349 -0.3756
    6MOL   C516 4426   7.197   3.878   1.593 -0.4933  0.2262  0.1414
    6MOL   C517 4427   7.115   3.790   1.686  0.9574  0.8760  0.8359
    6MOL   O518 4428   7.063   3.868   1.797 -0.3318 -0.7445 -0.5543
    6MOL   C519 4429   6.963   3.808   1.870 -0.5009  0.0510  0.2388
    6MOL   O520 4430   6.927   3.690   1.863  0.4627 -0.2180 -0.1051
    6MOL   C521 4431   6.897   3.906   1.962 -0.8656 -1.2249 -0.3419
    6MOL   C522 4432   6.795   3.859   2.048  0.5784 -0.0789 -0.5039
    6MOL   C523 4433   6.731   3.943   2.137 -0.2062  0.2192  0.0756
    6MOL   C524 4434   6.758   4.081   2.143 -0.3643  0.2369 -0.6211
    6MOL   C525 4435   6.677   4.163   2.239  0.8668  0.0605  0.0150
    6MOL   O526 4436   6.573   4.125   2.296  0.7358 -0.8229  0.2631
    6MOL   O527 4437   6.729   4.284   2.249 -0.5988 -0.0972 -0.8058
    6MOL   C528 4438   6.866   4.132   2.059 -0.4658 -0.0059 -0.1696
    6MOL   C529 4439   6.930   4.047   1.962  1.3082 -1.2803  0.8688
    6MOL   H530 4440   7.363   3.925   1.716  0.0886  1.7756  1.9510
    6MOL   H531 4441   7.242   4.046   1.735  0.3865 -0.5097  0.3932
    6MOL   H532 4442   7.433   4.150   1.610  2.9229 -1.5752 -0.5431
    6MOL   H533 4443   7.452   4.018   1.511 -0.6489  1.3809 -0.9869
    6MOL   H534 4444   7.210   4.198   1.525 -1.2190 -0.7391 -2.3285
    6MOL   H535 4445   7.408   4.306   1.410 -3.1048  0.7139  1.2467
    6MOL   H536 4446   7.419   4.177   1.296  1.1001 -0.4913  1.4147
    6MOL   H537 4447   7.123   4.084   1.323  0.5022  0.2395 -0.3649
    6MOL   H538 4448   7.257   3.963   1.336 -1.8480 -0.1942 -1.3400
    6MOL   H539 4449   7.070   3.870   1.419 -0.2130  0.5887 -1.2532
    6MOL   H540 4450   7.032   4.002   1.527 -0.2657  0.1402 -0.2671
    6MOL   H541 4451   7.255   3.809   1.533 -1.0394  0.5823 -0.7948
    6MOL   H542 4452   7.036   3.746   1.625  1.6526  0.1299  0.4746
    6MOL   H543 4453   7.172   3.708   1.729  0.8949 -0.1561 -0.9833
    6MOL   H544 4454   6.761   3.757   2.052 -0.1757  0.1604 -0.7317
    6MOL   H545 4455   6.656   3.898   2.200  2.2066 -3.1305  0.7354
    6MOL   H546 4456   6.896   4.235   2.057 -0.0735 -0.0965  0.7131
    6MOL   H547 4457   7.014   4.074   1.900 -0.3688 -0.2526 -1.0425
    6MOL   C548 4458   6.454   4.727   2.568  0.2214  0.0857 -0.0323
    6MOL   C549 4459   6.548   4.608   2.562 -0.1687  0.1719 -0.4666
    6MOL   C550 4460   6.523   4.526   2.430 -0.0974 -0.3614 -0.0998
    6MOL   C551 4461   6.631   4.426   2.411 -0.4970 -0.1035  0.1544
    6MOL   O552 4462   6.625   4.386   2.275 -0.2092 -0.0483  0.2594
    6MOL   C553 4463   6.383   4.463   2.429  0.4470 -0.6601  0.2914
    6MOL   C554 4464   6.291   4.592   2.424 -0.4712  0.4102  0.2415
    6MOL   C555 4465   6.310   4.683   2.548  0.4620  0.3645 -0.1203
    6MOL   C556 4466   6.209   4.801   2.521 -0.0324 -0.3323  0.2248
    6MOL   O557 4467   6.232   4.901   2.621 -0.3277 -0.2315  0.0758
    6MOL   C558 4468   6.134   4.981   2.664  0.1846  0.0091 -0.5045
    6MOL   O559 4469   6.017   4.981   2.619  0.2474 -1.2204  0.0429
    6MOL   C560 4470   6.182   5.084   2.756 -0.5710  0.1068  0.0601
    6MOL   C561 4471   6.297   5.071   2.831 -0.0705  0.3713  0.8811
    6MOL   C562 4472   6.340   5.166   2.925  0.5408 -0.5230  0.6277
    6MOL   C563 4473   6.270   5.284   2.949 -0.4214  0.1341  0.4364
    6MOL   C564 4474   6.310   5.384   3.052 -0.4777  0.3799  0.0258
    6MOL   O565 4475   6.425   5.398   3.093  0.3788 -0.2706  0.3241
    6MOL   O566 4476   6.209   5.459   3.104  0.2352  0.3595  1.1063
    6MOL   C567 4477   6.154   5.309   2.871 -0.2331 -1.0217  0.0467
    6MOL   C568 4478   6.107   5.201   2.786  0.9130 -0.4406  0.2926
    6MOL   H569 4479   6.472   4.787   2.658 -1.2192  1.7589 -0.8447
    6MOL   H570 4480   6.469   4.801   2.490  0.0656  0.7947  0.6001
    6MOL   H571 4481   6.653   4.635   2.572 -0.4853  1.1633  0.2325
    6MOL   H572 4482   6.531   4.560   2.659 -0.0874  1.0754  0.0024
    6MOL   H573 4483   6.534   4.601   2.352 -0.0837  0.2472  0.4721
    6MOL   H574 4484   6.735   4.455   2.428  0.0510 -0.9013 -1.7349
    6MOL   H575 4485   6.616   4.342   2.479 -0.0004  0.7569  1.3532
    6MOL   H576 4486   6.365   4.399   2.343  1.7653 -0.1203 -0.4004
    6MOL   H577 4487   6.367   4.400   2.517 -1.6126 -1.9347 -0.9380
    6MOL   H578 4488   6.185   4.567   2.427 -0.2172 -0.9525 -1.4417
    6MOL   H579 4489   6.311   4.652   2.336 -2.4562  0.5861 -0.1206
    6MOL   H580 4490   6.279   4.635   2.641  0.3547  1.2817  0.3240
    6MOL   H581 4491   6.219   4.841   2.420  0.7963  0.1493  0.4974
    6MOL   H582 4492   6.106   4.765   2.524  0.2429 -1.1647 -0.2551
    6MOL   H583 4493   6.352   4.979   2.824 -3.6200 -1.7350 -0.9429
    6MOL   H584 4494   6.433   5.155   2.979 -0.3816 -0.6659  2.2093
    6MOL   H585 4495   6.108   5.406   2.888 -0.0063 -1.1965  1.7418
    6MOL   H586 4496   6.009   5.209   2.740  0.8065  1.8044  0.8246
    6MOL   C587 4497   6.424   5.755   3.545 -0.2748  0.2908 -0.2011
    6MOL   C588 4498   6.421   5.630   3.457  0.3452  0.2466 -0.0288
    6MOL   C589 4499   6.278   5.571   3.450  0.1986 -0.3638 -0.1257
    6MOL   C590 4500   6.246   5.472   3.333 -0.0420 -0.3947  0.3344
    6MOL   O591 4501   6.245   5.551   3.210 -0.3436  0.3318 -0.2419
    6MOL   C592 4502   6.252   5.505   3.591 -0.3810 -0.1836  0.0477
    6MOL   C593 4503   6.251   5.626   3.692  0.5505 -0.3772 -0.5749
    6MOL   C594 4504   6.375   5.717   3.689 -0.3886  0.1756  0.1468
    6MOL   C595 4505   6.355   5.831   3.790  0.3704  1.1733  0.0070
    6MOL   O596 4506   6.477   5.894   3.828  0.8500 -0.8325  0.5378
    6MOL   C597 4507   6.468   5.997   3.908 -0.1800 -0.1222  0.6674
    6MOL   O598 4508   6.373   6.026   3.979 -0.1615  0.1726 -0.1801
    6MOL   C599 4509   6.588   6.086   3.896  0.1745  0.2966 -0.8995
    6MOL   C600 4510   6.664   6.092   3.777  0.1142 -0.1355 -0.0982
    6MOL   C601 4511   6.781   6.177   3.771  0.2657  0.3076 -0.7118
    6MOL   C602 4512   6.819   6.266   3.872  0.3045 -0.5291  0.0538
    6MOL   C603 4513   6.929   6.364   3.865 -0.5274  0.0121 -0.5438
    6MOL   O604 4514   6.944   6.458   3.940 -0.6582  0.5149  0.1657
    6MOL   O605 4515   7.005   6.334   3.763  0.1623 -0.4138  0.2128
    6MOL   C606 4516   6.734   6.264   3.988  0.6660 -0.4111 -0.0130
    6MOL   C607 4517   6.620   6.176   4.003  0.4761 -0.2632  0.0581
    6MOL   H608 4518   6.519   5.806   3.530  0.5149 -1.1355 -0.1039
    6MOL   H609 4519   6.347   5.815   3.495 -0.2817  0.9822  0.6232
    6MOL   H610 4520   6.447   5.659   3.355  0.0008 -0.1509 -0.2274
    6MOL   H611 4521   6.487   5.554   3.499 -0.5849 -1.0856 -0.9520
    6MOL   H612 4522   6.204   5.650   3.439  2.1279  1.3179 -1.2541
    6MOL   H613 4523   6.325   5.399   3.323  0.8190  0.2409  2.2871
    6MOL   H614 4524   6.156   5.417   3.362  0.5589 -1.3554  0.3782
    6MOL   H615 4525   6.165   5.440   3.586 -1.9186  1.8972 -1.5811
    6MOL   H616 4526   6.333   5.439   3.620  0.4676  1.2796  1.1207
    6MOL   H617 4527   6.236   5.592   3.795  0.0994  0.5491 -0.3285
    6MOL   H618 4528   6.163   5.688   3.677  0.2510 -0.7483 -0.3604
    6MOL   H619 4529   6.444   5.647   3.735 -0.9030 -1.4189 -1.4733
    6MOL   H620 4530   6.278   5.893   3.744 -0.9191 -0.2259  0.2201
    6MOL   H621 4531   6.304   5.792   3.879 -3.0516 -1.5206 -2.9974
    6MOL   H622 4532   6.642   6.026   3.695 -1.4227 -1.4371  1.3230
    6MOL   H623 4533   6.832   6.167   3.676 -1.8202 -1.6177 -1.6666
    6MOL   H624 4534   6.745   6.328   4.074  1.2647  0.5858 -0.8186
    6MOL   H625 4535   6.563   6.178   4.095 -1.5890 -2.5377 -1.0944
    6MOL   C626 4536   7.461   6.573   3.509 -0.1855 -0.3394  0.5371
    6MOL   C627 4537   7.333   6.488   3.558  0.1681 -0.1891 -0.3605
    6MOL   C628 4538   7.359   6.432   3.703 -0.1886  0.0801 -0.3760
    6MOL   C629 4539   7.241   6.344   3.754  0.4556 -0.0034  0.2136
    6MOL   O630 4540   7.124   6.420   3.747  0.1183  0.1616 -0.4911
    6MOL   C631 4541   7.497   6.351   3.709 -0.0788 -0.5640 -0.5577
    6MOL   C632 4542   7.614   6.440   3.664 -0.5918 -0.8376  0.5795
    6MOL   C633 4543   7.591   6.495   3.528  0.6611 -1.1187  0.3367
    6MOL   C634 4544   7.716   6.576   3.476  0.3365  1.0948 -0.2656
    6MOL   O635 4545   7.835   6.497   3.459  0.6708 -0.0214  0.1109
    6MOL   C636 4546   7.948   6.560   3.463  0.2198  0.1731  0.1521
    6MOL   O637 4547   7.961   6.682   3.463 -0.2263  0.2219 -0.2192
    6MOL   C638 4548   0.024   6.465   3.466  0.5604  0.2653  0.1242
    6MOL   C639 4549   0.153   6.509   3.484  0.3206 -0.2421 -0.6715
    6MOL   C640 4550   0.253   6.419   3.505  0.0108 -0.2254 -0.5471
    6MOL   C641 4551   0.239   6.279   3.500  0.1272 -0.4077  0.3759
    6MOL   C642 4552   0.359   6.190   3.510 -0.5307  0.4444  0.2758
    6MOL   O643 4553   0.362   6.069   3.478  0.1434  0.1873 -0.4793
    6MOL   O644 4554   0.472   6.263   3.536 -0.4515  0.7765 -0.3362
    6MOL   C645 4555   0.109   6.229   3.476  0.1541  0.0537 -0.0561
    6MOL   C646 4556   0.006   6.323   3.456 -0.2807 -0.1113  0.0092
    6MOL   H647 4557   7.447   6.612   3.408 -3.3061 -1.1911  0.5726
    6MOL   H648 4558   7.463   6.661   3.573  1.7366 -0.1896  0.2839
    6MOL   H649 4559   7.241   6.546   3.553  1.5147  2.1441  0.9697
    6MOL   H650 4560   7.326   6.398   3.497  1.4430  0.9694 -2.2609
    6MOL   H651 4561   7.369   6.517   3.771  0.1199 -0.3303  0.0945
    6MOL   H652 4562   7.239   6.247   3.705  0.2882  0.1621 -0.1054
    6MOL   H653 4563   7.253   6.317   3.859 -2.3283  0.1693  0.6193
    6MOL   H654 4564   7.500   6.329   3.816 -0.5268  1.8286 -0.0267
    6MOL   H655 4565   7.487   6.261   3.649  1.8029 -0.7969 -0.5445
    6MOL   H656 4566   7.709   6.388   3.659  0.1715  0.5174  0.5657
    6MOL   H657 4567   7.635   6.518   3.737  2.2700 -0.1755 -0.8936
    6MOL   H658 4568   7.575   6.413   3.459 -1.2564  0.0809 -0.7000
    6MOL   H659 4569   7.702   6.632   3.383 -0.9016  1.1477 -0.0588
    6MOL   H660 4570   7.721   6.660   3.545  1.0303  1.2989 -0.5594
    6MOL   H661 4571   0.168   6.616   3.496  0.1094 -0.2133 -0.6721
    6MOL   H662 4572   0.350   6.462   3.525  0.5607 -1.5088 -0.3793
    6MOL   H663 4573   0.095   6.122   3.473 -0.4343  0.1096  0.4209
    6MOL   H664 4574   7.940   6.291   3.438 -0.5326 -0.2975  1.7413
    6MOL   C665 4575   0.928   5.962   3.767 -0.7283 -0.2080  0.7355
    6MOL   C666 4576   0.826   6.076   3.723 -0.7173 -0.2136  0.2135
    6MOL   C667 4577   0.677   6.050   3.770  0.1449 -0.6319  0.0976
    6MOL   C668 4578   0.580   6.160   3.723 -0.2621  0.5376  0.0280
    6MOL   O669 4579   0.591   6.178   3.581  0.1765 -0.4853 -0.5150
    6MOL   C670 4580   0.635   5.913   3.710  0.2788 -0.5432  0.5180
    6MOL   C671 4581   0.737   5.807   3.742  0.3140 -0.3705 -0.2189
    6MOL   C672 4582   0.887   5.835   3.702  0.1211  0.0532  0.6237
    6MOL   C673 4583   0.980   5.718   3.742 -0.3230  0.1703 -0.0852
    6MOL   O674 4584   0.962   5.665   3.867 -0.4500  0.1723 -0.1685
    6MOL   C675 4585   1.050   5.696   3.963  0.4546  0.6069  0.7496
    6MOL   O676 4586   1.166   5.737   3.942  0.4003 -0.2072 -0.0451
    6MOL   C677 4587   0.991   5.681   4.099 -0.1576 -0.2345  0.1269
    6MOL   C678 4588   1.077   5.704   4.213  0.0003  0.9608  0.2445
    6MOL   C679 4589   1.026   5.682   4.344 -0.1497 -0.5613 -0.0828
    6MOL   C680 4590   0.892   5.650   4.357 -0.0401 -0.5307  0.2059
    6MOL   C681 4591   0.840   5.599   4.493  0.0495 -0.1410  0.0353
    6MOL   O682 4592   0.732   5.543   4.503  0.3454  0.5354 -0.0250
    6MOL   O683 4593   0.910   5.642   4.599  0.2216  0.5569 -0.4777
    6MOL   C684 4594   0.807   5.638   4.249  0.3601  0.3568  0.2532
    6MOL   C685 4595   0.852   5.658   4.118 -0.3656 -0.3026 -0.2945
    6MOL   H686 4596   1.026   5.988   3.729 -0.9929  1.3786  1.0660
    6MOL   H687 4597   0.929   5.965   3.876 -1.0582 -0.8879  0.7610
    6MOL   H688 4598   0.852   6.175   3.761  1.5684 -0.1710 -1.3477
    6MOL   H689 4599   0.829   6.091   3.615  1.2219 -1.4030  0.0614
    6MOL   H690 4600   0.669   6.039   3.878  0.8042  0.4471  0.2670
    6MOL   H691 4601   0.482   6.121   3.752 -0.5702  2.2141  1.3054
    6MOL   H692 4602   0.586   6.249   3.785  1.3035  1.8969 -2.0515
    6MOL   H693 4603   0.539   5.881   3.751  0.7932 -1.6536  0.8606
    6MOL   H694 4604   0.640   5.931   3.603  0.4523  0.4663  0.6909
    6MOL   H695 4605   0.704   5.719   3.686 -2.0178  1.1254 -1.2677
    6MOL   H696 4606   0.736   5.792   3.850 -3.2381  1.3356  0.0325
    6MOL   H697 4607   0.897   5.847   3.594  0.5684 -1.1387  0.5188
    6MOL   H698 4608   0.973   5.632   3.675  1.5075  1.2716 -1.7623
    6MOL   H699 4609   1.078   5.762   3.724 -1.8345  3.2243 -1.2310
    6MOL   H700 4610   1.183   5.718   4.197  0.2731 -2.1889 -0.9404
    6MOL   H701 4611   1.094   5.688   4.428  1.4127  1.5707 -1.4331
    6MOL   H702 4612   0.705   5.602   4.256  1.2838 -2.6074 -0.6141
    6MOL   H703 4613   0.780   5.647   4.038 -2.0997  2.6916  0.7845
    6MOL   C704 4614   0.707   5.751   5.142 -0.5477 -0.4519 -0.3834
    6MOL   C705 4615   0.788   5.738   5.016  0.1462 -0.2332 -0.1398
    6MOL   C706 4616   0.711   5.764   4.881  0.0927 -0.6095  0.0099
    6MOL   C707 4617   0.801   5.757   4.757 -0.4287 -0.0089  0.3830
    6MOL   O708 4618   0.840   5.626   4.734 -0.3655  0.0190  0.0978
    6MOL   C709 4619   0.594   5.664   4.881 -0.6595 -0.7187  0.2135
    6MOL   C710 4620   0.513   5.677   5.008 -0.2518  0.0994 -0.0918
    6MOL   C711 4621   0.590   5.660   5.146 -0.0807 -0.2825  0.1769
    6MOL   C712 4622   0.492   5.687   5.259 -0.1797  0.4884 -0.3888
    6MOL   O713 4623   0.402   5.585   5.272  0.7031  0.0450  0.2974
    6MOL   C714 4624   0.384   5.516   5.384 -0.1278 -0.1831  0.6638
    6MOL   O715 4625   0.425   5.546   5.492  0.1001 -0.3486 -0.7633
    6MOL   C716 4626   0.306   5.390   5.365 -0.4494 -0.4657  0.4650
    6MOL   C717 4627   0.253   5.321   5.476  0.9631 -0.3127  0.4542
    6MOL   C718 4628   0.178   5.210   5.459 -0.3732  0.8065  0.9641
    6MOL   C719 4629   0.157   5.157   5.326 -0.0933 -0.6821 -0.3024
    6MOL   C720 4630   0.060   5.039   5.313  0.2587  0.2479 -0.0950
    6MOL   O721 4631   0.041   4.950   5.398  0.6642  0.2381  0.0203
    6MOL   O722 4632   0.000   5.030   5.199 -0.0029  0.3726 -0.2750
    6MOL   C723 4633   0.220   5.217   5.217  0.3402 -0.4499  0.1361
    6MOL   C724 4634   0.286   5.342   5.234  0.4227 -0.7197 -0.5133
    6MOL   H725 4635   0.766   5.723   5.229 -0.8576  1.6871  0.5397
    6MOL   H726 4636   0.687   5.858   5.146  1.0141 -0.2287  2.5293
    6MOL   H727 4637   0.873   5.806   5.025  0.4974 -0.4409 -1.8346
    6MOL   H728 4638   0.838   5.643   4.995  3.0656  0.9143  1.2876
    6MOL   H729 4639   0.672   5.864   4.899 -1.8949 -1.8207  2.7963
    6MOL   H730 4640   0.755   5.802   4.669 -0.8900  2.1826  1.7131
    6MOL   H731 4641   0.881   5.828   4.776 -0.2545 -0.0427 -0.1974
    6MOL   H732 4642   0.521   5.677   4.801  0.0977 -0.2993 -0.4198
    6MOL   H733 4643   0.624   5.561   4.861 -0.4152 -0.1206 -2.7828
    6MOL   H734 4644   0.440   5.596   5.011 -0.3273  0.1717  0.0266
    6MOL   H735 4645   0.466   5.775   5.011  0.8233  0.5955  0.6647
    6MOL   H736 4646   0.633   5.560   5.155 -0.1039 -0.2222  0.9438
    6MOL   H737 4647   0.545   5.710   5.351 -1.0023  0.3642  0.1214
    6MOL   H738 4648   0.434   5.774   5.227 -0.8937  1.4997  3.4858
    6MOL   H739 4649   0.278   5.354   5.576  0.5580 -0.0313  0.4626
    6MOL   H740 4650   0.129   5.165   5.544 -2.4982 -0.4100 -0.8624
    6MOL   H741 4651   0.213   5.173   5.119 -0.5672  1.8539 -0.8693
    6MOL   H742 4652   0.339   5.391   5.154  3.0568  0.3190  1.8058
    6MOL   C743 4653   7.793   4.490   5.025 -0.8041  0.6070 -0.8538
    6MOL   C744 4654   7.892   4.598   5.034 -0.1666 -0.0574  0.6969
    6MOL   C745 4655   7.841   4.716   5.109  0.3304  0.6143 -0.2141
    6MOL   C746 4656   7.946   4.831   5.109 -0.7814 -0.0384  0.2032
    6MOL   O747 4657   7.918   4.935   5.200 -0.3867  0.2039 -0.2587
    6MOL   C748 4658   7.704   4.765   5.048 -0.0915 -0.4156 -0.7532
    6MOL   C749 4659   7.602   4.649   5.033 -0.3505 -0.0188 -0.0297
    6MOL   C750 4660   7.654   4.529   4.963 -0.3162 -0.0534  0.7682
    6MOL   C751 4661   7.551   4.414   4.961  0.2411 -0.2931 -0.4702
    6MOL   O752 4662   7.610   4.317   4.874 -0.1591 -0.4271  0.9607
    6MOL   C753 4663   7.575   4.189   4.889  0.5615  0.0941 -0.2454
    6MOL   O754 4664   7.492   4.136   4.959  0.0975 -0.4051  0.2397
    6MOL   C755 4665   7.677   4.103   4.821 -0.3328  0.2031  0.0548
    6MOL   C756 4666   7.775   4.162   4.734 -0.3336  0.6461 -0.5625
    6MOL   C757 4667   7.850   4.079   4.654 -0.2776 -0.2757 -0.0081
    6MOL   C758 4668   7.832   3.940   4.653 -0.9303 -0.0889  0.4440
    6MOL   C759 4669   7.908   3.855   4.557 -0.7399  0.2655  0.3139
    6MOL   O760 4670   7.879   3.740   4.519 -0.1863 -0.3305 -0.4916
    6MOL   O761 4671   8.019   3.920   4.507  0.3185 -0.5383  0.3676
    6MOL   C762 4672   7.737   3.880   4.739  0.3945  0.8441 -0.7008
    6MOL   C763 4673   7.667   3.960   4.832 -0.1132  0.3660  0.2524
    6MOL   H764 4674   7.840   4.417   4.958 -0.1951  0.5317 -0.3410
    6MOL   H765 4675   7.785   4.434   5.118 -1.2420 -1.4154 -2.0613
    6MOL   H766 4676   7.979   4.558   5.087  0.3054 -0.5759 -0.4438
    6MOL   H767 4677   7.920   4.628   4.933  1.5986  1.1515  1.5169
    6MOL   H768 4678   7.822   4.686   5.212 -1.1064  1.7266 -0.1360
    6MOL   H769 4679   0.003   4.781   5.137  0.6260  1.9407 -0.8475
    6MOL   H770 4680   7.965   4.873   5.010 -4.7028  0.0362 -0.6238
    6MOL   H771 4681   7.657   4.836   5.116  0.8167  1.1458 -1.7412
    6MOL   H772 4682   7.711   4.823   4.957 -1.5288  2.3864  0.8460
    6MOL   H773 4683   7.514   4.687   4.980 -0.0654  1.0522  0.2409
    6MOL   H774 4684   7.569   4.617   5.132  2.2573  1.0012  1.2167
    6MOL   H775 4685   7.672   4.560   4.860 -2.8608 -0.9589  0.0038
    6MOL   H776 4686   7.536   4.375   5.061  1.3525 -1.0245 -0.5799
    6MOL   H777 4687   7.456   4.440   4.916  0.5810  0.3845 -0.8042
    6MOL   H778 4688   7.779   4.270   4.724 -1.5886  0.7662  0.1165
    6MOL   H779 4689   7.917   4.128   4.584 -1.5278  0.8667 -0.4287
    6MOL   H780 4690   7.732   3.773   4.726  2.0968  0.6198  0.3467
    6MOL   H781 4691   7.597   3.921   4.905  0.4081 -1.0322  0.0203
    6MOL   H782 4692   0.052   3.867   4.468  0.0322  0.2646 -1.2608
    7MOL     C1 4693   7.235   4.963   1.489  0.1295 -0.0136 -0.2792
    7MOL     C2 4694   7.385   4.994   1.491 -0.2836 -0.9294 -0.0774
    7MOL     C3 4695   7.453   4.953   1.618 -0.4108  0.1202 -0.4414
    7MOL     C4 4696   7.605   4.970   1.629  0.3846  0.1505  1.0181
    7MOL     O5 4697   7.650   4.883   1.732  0.0991 -0.2167 -0.1432
    7MOL     C6 4698   7.377   5.018   1.743  0.4643  0.4626 -0.6942
    7MOL     C7 4699   7.224   4.995   1.732 -0.5255 -0.9179 -0.6716
    7MOL     C8 4700   7.162   5.039   1.602 -0.0507  0.0008 -0.4815
    7MOL     C9 4701   7.005   5.001   1.602 -0.2170  0.3283  0.5207
    7MOL    O10 4702   6.918   5.086   1.661  0.0315 -0.3406  0.8024
    7MOL    C11 4703   6.794   5.054   1.694 -0.1055  0.9667 -0.0891
    7MOL    O12 4704   6.743   4.949   1.673  0.3358  0.1332  0.1518
    7MOL    C13 4705   6.717   5.167   1.760  0.3877 -0.0036  0.3845
    7MOL    C14 4706   6.771   5.295   1.772 -0.5016 -1.3216  0.3733
    7MOL    C15 4707   6.697   5.397   1.840  0.8116  0.6677 -0.0244
    7MOL    C16 4708   6.563   5.368   1.884 -0.2903 -0.0944 -0.8267
    7MOL    C17 4709   6.479   5.474   1.955 -0.8369 -0.7003  0.1483
    7MOL    O18 4710   6.531   5.578   1.989  0.2704  0.0845 -0.0246
    7MOL    O19 4711   6.351   5.442   1.975  0.2529 -0.5257  0.2640
    7MOL    C20 4712   6.511   5.233   1.878  0.2949 -0.2418 -0.7868
    7MOL    C21 4713   6.595   5.141   1.818  0.2559 -0.0742  0.4343
    7MOL    H22 4714   7.191   4.987   1.392 -1.3021  0.7769  0.5477
    7MOL    H23 4715   7.232   4.855   1.506 -2.1148  0.1556  0.6384
    7MOL    H24 4716   7.433   4.942   1.409  2.1096  1.2844 -0.1448
    7MOL    H25 4717   7.402   5.100   1.470  1.1971 -1.2848 -0.7378
    7MOL    H26 4718   7.436   4.846   1.630 -1.0044  0.4080  1.5183
    7MOL    H27 4719   7.663   4.945   1.540 -2.2123  1.7405 -1.1760
    7MOL    H28 4720   7.624   5.071   1.665 -1.9126  1.2882 -0.8408
    7MOL    H29 4721   7.423   4.991   1.838 -0.6250 -1.0132 -0.5666
    7MOL    H30 4722   7.392   5.126   1.744 -1.8128  0.7921  0.3550
    7MOL    H31 4723   7.181   5.045   1.819  0.9664 -2.9594  1.3138
    7MOL    H32 4724   7.204   4.890   1.753 -0.1954 -1.0619 -1.0673
    7MOL    H33 4725   7.169   5.147   1.591  0.5276 -0.0688 -0.8429
    7MOL    H34 4726   6.976   4.988   1.497  1.2893  1.2109 -0.0294
    7MOL    H35 4727   7.000   4.900   1.644 -0.1318 -0.0418 -0.3350
    7MOL    H36 4728   6.874   5.317   1.746 -0.5939 -0.2322  0.9066
    7MOL    H37 4729   6.745   5.490   1.866  2.7078 -0.0725 -0.7448
    7MOL    H38 4730   6.411   5.206   1.906  0.0539  0.2807 -1.1447
    7MOL    H39 4731   6.541   5.049   1.803  0.0769  0.6211 -3.5894
    7MOL    H40 4732   7.739   4.915   1.733 -0.8171  2.5982 -1.3953
    7MOL    C41 4733   5.979   5.537   1.611 -0.5915  0.4868  0.3644
    7MOL    C42 4734   6.097   5.610   1.673 -0.1700 -0.2062  0.2854
    7MOL    C43 4735   6.133   5.551   1.814 -0.5655 -0.0800 -0.1509
    7MOL    C44 4736   6.227   5.644   1.906 -0.6117  0.3368  0.8462
    7MOL    O45 4737   6.274   5.571   2.020 -0.0858  0.4665  0.6252
    7MOL    C46 4738   6.006   5.509   1.898 -0.1139  0.1549  0.0358
    7MOL    C47 4739   5.891   5.443   1.821 -0.1557  0.3066  0.0103
    7MOL    C48 4740   5.859   5.523   1.698 -0.0325 -0.6759 -0.1139
    7MOL    C49 4741   5.736   5.467   1.625  0.6370 -0.0595 -0.3441
    7MOL    O50 4742   5.737   5.330   1.599 -0.0985  0.7374  0.0173
    7MOL    C51 4743   5.764   5.286   1.476 -0.2550  0.0046  0.5106
    7MOL    O52 4744   5.803   5.350   1.379  0.5080 -0.3784  0.3913
    7MOL    C53 4745   5.732   5.142   1.461 -0.0377 -0.2670  0.9036
    7MOL    C54 4746   5.686   5.089   1.335 -0.2553  0.5582  0.4464
    7MOL    C55 4747   5.661   4.947   1.326  0.8576 -0.1879  0.0173
    7MOL    C56 4748   5.665   4.865   1.445  0.1160  0.1545 -0.1230
    7MOL    C57 4749   5.634   4.723   1.450  0.3960  0.1465 -0.4999
    7MOL    O58 4750   5.622   4.652   1.554 -0.3953 -0.4709  0.6435
    7MOL    O59 4751   5.628   4.670   1.324 -0.0788 -0.4858  0.3208
    7MOL    C60 4752   5.712   4.919   1.567 -0.5334 -1.2188  0.0212
    7MOL    C61 4753   5.746   5.057   1.570  0.2878  0.3737 -0.3297
    7MOL    H62 4754   5.948   5.593   1.522 -0.9480 -0.9074 -0.3972
    7MOL    H63 4755   6.005   5.440   1.569  0.4749  0.5920  0.7741
    7MOL    H64 4756   6.182   5.606   1.605  0.6474 -0.6525  1.3102
    7MOL    H65 4757   6.080   5.718   1.681 -2.1002 -0.6213  2.4990
    7MOL    H66 4758   6.174   5.455   1.784 -0.5998 -0.2461  0.3395
    7MOL    H67 4759   6.305   5.679   1.838  1.6154 -0.4573  2.9326
    7MOL    H68 4760   6.166   5.726   1.946 -0.4900  1.4981 -1.2999
    7MOL    H69 4761   6.033   5.439   1.978 -1.2623 -0.8622 -0.4627
    7MOL    H70 4762   5.970   5.603   1.938 -1.8667  1.1759 -3.8351
    7MOL    H71 4763   5.802   5.442   1.884  0.1657  2.3384  0.5279
    7MOL    H72 4764   5.912   5.339   1.796 -0.0993 -0.3158  2.4647
    7MOL    H73 4765   5.835   5.628   1.713  0.4972 -0.6012  0.2124
    7MOL    H74 4766   5.643   5.481   1.682  1.3495  0.2905  0.7471
    7MOL    H75 4767   5.727   5.526   1.534  1.5827  0.4866 -0.0865
    7MOL    H76 4768   5.668   5.153   1.250 -0.6229 -1.6979 -1.2362
    7MOL    H77 4769   5.618   4.912   1.233 -0.2128 -1.3362  0.9315
    7MOL    H78 4770   5.735   4.860   1.654 -1.7148 -0.9742  0.5119
    7MOL    H79 4771   5.789   5.099   1.659 -0.3915  2.1853 -0.8409
    7MOL    C80 4772   5.206   4.219   1.345 -0.0132  0.0555  0.7203
    7MOL    C81 4773   5.250   4.371   1.322 -0.4192  0.1181 -0.3364
    7MOL    C82 4774   5.403   4.371   1.346  0.2939  0.0419  0.0967
    7MOL    C83 4775   5.455   4.510   1.316 -0.6349  0.1831 -0.1121
    7MOL    O84 4776   5.590   4.520   1.332 -0.0376 -0.4665  0.2465
    7MOL    C85 4777   5.440   4.318   1.482  0.4619 -0.1174  0.0398
    7MOL    C86 4778   5.390   4.173   1.508  0.5363 -0.6632 -0.2417
    7MOL    C87 4779   5.236   4.158   1.479  0.0284 -0.8653  0.4187
    7MOL    C88 4780   5.189   4.017   1.465 -0.0649  0.2436  0.7353
    7MOL    O89 4781   5.214   3.943   1.587 -0.5540  0.0039 -0.4146
    7MOL    C90 4782   5.325   3.869   1.588  0.5203 -0.0344 -0.2486
    7MOL    O91 4783   5.402   3.850   1.495  0.3044  0.6631  0.0252
    7MOL    C92 4784   5.357   3.816   1.723 -0.6873  0.0497 -0.7183
    7MOL    C93 4785   5.488   3.760   1.749  0.5182  0.0520  0.4485
    7MOL    C94 4786   5.510   3.702   1.878  0.1664 -0.1222 -0.0592
    7MOL    C95 4787   5.409   3.690   1.972  0.3741  0.3436 -0.2649
    7MOL    C96 4788   5.416   3.601   2.091  0.0094  0.2267  0.1998
    7MOL    O97 4789   5.325   3.586   2.169  0.0088 -0.3885 -0.5606
    7MOL    O98 4790   5.534   3.534   2.102  0.2541  0.3164  0.5985
    7MOL    C99 4791   5.282   3.746   1.946 -0.4858 -0.2728  0.0827
    7MOL   C100 4792   5.258   3.803   1.820  0.3927  0.4126 -0.9027
    7MOL   H101 4793   5.100   4.202   1.330  0.3101 -0.6673 -0.8403
    7MOL   H102 4794   5.256   4.165   1.265 -1.3860 -1.7739  1.0812
    7MOL   H103 4795   5.233   4.402   1.218  1.3757 -0.0737 -0.7004
    7MOL   H104 4796   5.190   4.431   1.391 -1.0320 -1.1838  0.2644
    7MOL   H105 4797   5.455   4.306   1.275  0.3486  1.7399 -1.4480
    7MOL   H106 4798   5.426   4.548   1.218  3.9746  1.6116 -1.0549
    7MOL   H107 4799   5.406   4.577   1.387 -2.1844  0.9241 -1.8495
    7MOL   H108 4800   5.549   4.330   1.478  0.6662 -1.1758  1.9139
    7MOL   H109 4801   5.412   4.390   1.559 -1.3396 -2.1946  1.3583
    7MOL   H110 4802   5.413   4.145   1.611  2.7845  1.5008 -0.1153
    7MOL   H111 4803   5.445   4.106   1.441 -0.4087 -1.5020 -0.2026
    7MOL   H112 4804   5.173   4.209   1.552  3.4283  3.7440  0.3501
    7MOL   H113 4805   5.086   4.019   1.428  0.6723  3.0383 -1.3910
    7MOL   H114 4806   5.241   3.965   1.384  0.8914 -1.1279  2.1994
    7MOL   H115 4807   5.563   3.759   1.671 -1.3216 -0.9824 -1.3808
    7MOL   H116 4808   5.601   3.648   1.899 -0.6664 -1.1077  1.1520
    7MOL   H117 4809   5.195   3.725   2.007  0.1326 -2.7631  0.1884
    7MOL   H118 4810   5.159   3.840   1.798 -0.1949  0.2602  1.3744
    7MOL   C119 4811   5.481   3.391   2.637  0.0271 -0.1068 -0.6864
    7MOL   C120 4812   5.480   3.455   2.492 -0.0558 -0.1491 -0.0998
    7MOL   C121 4813   5.625   3.491   2.448  0.4081 -0.0172 -0.0894
    7MOL   C122 4814   5.619   3.549   2.308 -0.0428 -0.2519 -0.0076
    7MOL   O123 4815   5.545   3.460   2.231  0.1824 -0.0499 -0.0439
    7MOL   C124 4816   5.685   3.589   2.547 -1.0372  0.3324  0.4977
    7MOL   C125 4817   5.693   3.525   2.686 -0.0545  0.3727  0.2016
    7MOL   C126 4818   5.546   3.491   2.737  0.5088 -0.5066  0.1809
    7MOL   C127 4819   5.554   3.440   2.883 -0.6623 -0.3956 -0.0071
    7MOL   O128 4820   5.564   3.547   2.967  0.3319 -0.1817 -0.0307
    7MOL   C129 4821   5.636   3.532   3.077  0.1843 -0.0713 -0.6302
    7MOL   O130 4822   5.700   3.431   3.103  0.2427 -0.6485  0.2740
    7MOL   C131 4823   5.634   3.653   3.171 -0.2093 -0.7041  0.5895
    7MOL   C132 4824   5.707   3.646   3.294 -0.3078 -0.3581  0.0228
    7MOL   C133 4825   5.707   3.757   3.377  0.0949  0.3243 -0.0049
    7MOL   C134 4826   5.660   3.882   3.336  0.0591 -0.5574  0.4709
    7MOL   C135 4827   5.697   4.014   3.408  0.3492  0.0108 -0.3688
    7MOL   O136 4828   5.677   4.124   3.361  0.8530  0.2759 -0.0329
    7MOL   O137 4829   5.772   3.988   3.517  0.3856 -0.2323  0.5945
    7MOL   C138 4830   5.591   3.888   3.219 -0.3633  0.1410 -0.1131
    7MOL   C139 4831   5.574   3.779   3.131  0.1527  0.0603 -0.7500
    7MOL   H140 4832   5.382   3.350   2.659  0.7043 -1.3197  0.1294
    7MOL   H141 4833   5.541   3.300   2.636 -0.9459 -0.7907  0.7646
    7MOL   H142 4834   5.428   3.385   2.426  2.6366 -1.1844 -1.2157
    7MOL   H143 4835   5.412   3.538   2.478 -1.7408 -1.4447  0.2648
    7MOL   H144 4836   5.676   3.395   2.451  0.6052  0.0923  0.1151
    7MOL   H145 4837   5.588   3.654   2.303  0.1087 -0.0800  2.2005
    7MOL   H146 4838   5.724   3.559   2.278  1.3579  0.9319  4.8666
    7MOL   H147 4839   5.784   3.619   2.515 -0.7621 -3.8633 -3.1144
    7MOL   H148 4840   5.637   3.686   2.560  1.1592  1.0390  4.1079
    7MOL   H149 4841   5.738   3.604   2.746  1.7987 -0.4448 -0.0878
    7MOL   H150 4842   5.762   3.443   2.706 -0.3153  0.2655  0.6919
    7MOL   H151 4843   5.482   3.580   2.730 -1.3931 -2.0287 -3.0202
    7MOL   H152 4844   5.474   3.368   2.903 -0.6898 -0.6018 -0.8409
    7MOL   H153 4845   5.631   3.366   2.900 -0.2356  0.1419  0.4122
    7MOL   H154 4846   5.766   3.560   3.322  1.8892  1.1796  0.2106
    7MOL   H155 4847   5.750   3.750   3.476 -0.9635  0.3491  0.4610
    7MOL   H156 4848   5.553   3.986   3.197 -2.7713 -0.8064 -0.3631
    7MOL   H157 4849   5.529   3.795   3.034 -0.9451 -2.3945 -0.6889
    7MOL   C158 4850   5.870   4.284   4.041  0.1189  0.3042  0.1958
    7MOL   C159 4851   5.781   4.214   3.937  0.0849 -0.2185 -0.3254
    7MOL   C160 4852   5.839   4.226   3.792  0.1695 -0.5606 -0.3118
    7MOL   C161 4853   5.752   4.167   3.678 -0.4352  0.3202 -0.1158
    7MOL   O162 4854   5.843   4.104   3.590 -0.6252 -0.2557 -0.5823
    7MOL   C163 4855   5.881   4.373   3.760 -0.3320  0.5428 -0.3384
    7MOL   C164 4856   5.989   4.419   3.868 -0.5012 -1.1616 -0.0192
    7MOL   C165 4857   5.934   4.422   4.007  0.2110 -0.0052 -0.3733
    7MOL   C166 4858   6.036   4.476   4.111 -0.3063  0.1691 -0.1815
    7MOL   O167 4859   6.147   4.384   4.113 -0.4524  0.3932 -0.2674
    7MOL   C168 4860   6.181   4.319   4.207  0.5602  0.5060  0.7828
    7MOL   O169 4861   6.121   4.317   4.314 -0.1796 -0.6218  0.0367
    7MOL   C170 4862   6.284   4.218   4.173  0.6872 -0.3988  0.5244
    7MOL   C171 4863   6.349   4.153   4.280  0.2708  0.5850 -0.4071
    7MOL   C172 4864   6.442   4.055   4.255  0.4427  0.2504 -0.0082
    7MOL   C173 4865   6.474   4.016   4.121  0.6485 -0.0919 -0.4525
    7MOL   C174 4866   6.566   3.898   4.098 -0.7659  0.3577 -0.5075
    7MOL   O175 4867   6.648   3.858   4.175 -0.0096 -0.2890 -0.1911
    7MOL   O176 4868   6.534   3.832   3.981  0.0146 -0.2738  0.3349
    7MOL   C177 4869   6.419   4.096   4.012  0.5087 -0.3622  0.3462
    7MOL   C178 4870   6.320   4.189   4.042  0.2475 -0.2203  0.7036
    7MOL   H179 4871   5.814   4.291   4.135  0.5434 -0.2856  0.4963
    7MOL   H180 4872   5.947   4.209   4.055  0.8151  1.1479  0.9945
    7MOL   H181 4873   5.764   4.114   3.976 -1.2351  0.5440  1.1628
    7MOL   H182 4874   5.686   4.268   3.944  0.4314  0.2866  0.6569
    7MOL   H183 4875   5.927   4.161   3.793  0.8299  0.2144 -3.2578
    7MOL   H184 4876   5.687   4.090   3.720 -1.4811  2.4757  2.3518
    7MOL   H185 4877   5.687   4.240   3.629  0.2848  0.9045 -0.2075
    7MOL   H186 4878   5.935   4.385   3.666 -0.6751  1.6891 -0.3957
    7MOL   H187 4879   5.800   4.445   3.751  1.0407  2.1523 -0.1781
    7MOL   H188 4880   6.006   4.523   3.841  0.3576 -1.4663 -0.6579
    7MOL   H189 4881   6.082   4.364   3.858 -0.1437 -0.7764  1.0576
    7MOL   H190 4882   5.857   4.496   3.987  1.7831  1.5237 -0.9552
    7MOL   H191 4883   6.079   4.571   4.079  1.3663 -0.2932  0.6143
    7MOL   H192 4884   5.980   4.487   4.203  0.0964  2.3568 -0.1652
    7MOL   H193 4885   6.322   4.178   4.382  3.2945  3.5621 -0.2618
    7MOL   H194 4886   6.483   4.002   4.340  0.1266  0.1784  0.1000
    7MOL   H195 4887   6.447   4.085   3.908  2.5362 -0.0476  0.8287
    7MOL   H196 4888   6.279   4.222   3.948  2.0274 -0.1730 -0.0600
    7MOL   C197 4889   6.388   3.234   4.088  0.1819 -0.1544 -0.0723
    7MOL   C198 4890   6.374   3.387   4.116 -0.2609  0.0043  0.3153
    7MOL   C199 4891   6.489   3.461   4.048 -0.4846  0.0534  0.2493
    7MOL   C200 4892   6.483   3.616   4.066 -0.6057 -0.8686  0.4258
    7MOL   O201 4893   6.568   3.691   3.974  0.1373 -0.2447 -0.2348
    7MOL   C202 4894   6.623   3.413   4.091  0.6938 -0.1311 -0.0021
    7MOL   C203 4895   6.641   3.261   4.079 -0.1864 -0.5732  0.2412
    7MOL   C204 4896   6.528   3.177   4.134 -0.3610 -0.4721  0.9752
    7MOL   C205 4897   6.546   3.027   4.103 -0.4381  0.0734  0.5565
    7MOL   O206 4898   6.483   2.992   3.976  0.5234  0.1093 -0.7139
    7MOL   C207 4899   6.358   2.926   3.961 -0.7594 -1.0527 -0.2256
    7MOL   O208 4900   6.295   2.884   4.058  0.4063  0.1012 -0.0981
    7MOL   C209 4901   6.310   2.915   3.818  0.0407  0.7675  0.3678
    7MOL   C210 4902   6.387   2.970   3.710 -0.0504  0.6207  0.2749
    7MOL   C211 4903   6.341   2.978   3.580  0.1862  0.0791 -0.4967
    7MOL   C212 4904   6.216   2.925   3.540 -0.0371  0.5056 -0.1857
    7MOL   C213 4905   6.168   2.935   3.396  0.4138  0.2310 -0.7624
    7MOL   O214 4906   6.236   2.974   3.306  1.2285  0.0440  0.0914
    7MOL   O215 4907   6.046   2.891   3.379 -0.2396 -0.5317  0.1767
    7MOL   C216 4908   6.133   2.871   3.645 -0.3277 -0.0713  0.0536
    7MOL   C217 4909   6.183   2.867   3.781 -0.1227  0.0054 -0.5655
    7MOL   H218 4910   6.308   3.171   4.127  0.1520 -0.4910 -0.6700
    7MOL   H219 4911   6.370   3.222   3.981 -1.1156  0.4071  0.0703
    7MOL   H220 4912   6.284   3.438   4.082  0.1734  1.9237  1.9687
    7MOL   H221 4913   6.373   3.400   4.224  0.8758 -0.0567  0.3384
    7MOL   H222 4914   6.485   3.443   3.940  0.7578  1.4172 -0.0452
    7MOL   H223 4915   6.382   3.648   4.041  0.7129  2.0029 -1.5382
    7MOL   H224 4916   6.508   3.641   4.169  0.9993  1.7162 -0.5455
    7MOL   H225 4917   6.704   3.450   4.029  0.1740  0.5802 -0.2560
    7MOL   H226 4918   6.640   3.438   4.196  1.7255  1.7068 -0.5822
    7MOL   H227 4919   6.736   3.238   4.127  0.3596 -1.0242 -1.0127
    7MOL   H228 4920   6.638   3.252   3.970 -3.1283  1.4240  0.1036
    7MOL   H229 4921   6.533   3.188   4.242 -3.4887 -0.2721  1.1232
    7MOL   H230 4922   6.649   2.996   4.122 -0.7818 -1.0533  0.6108
    7MOL   H231 4923   6.486   2.982   4.183  0.6826 -1.7194  0.4286
    7MOL   H232 4924   6.486   3.006   3.733  0.4449 -0.1554 -0.6564
    7MOL   H233 4925   6.401   3.020   3.501 -0.4022  0.9973 -0.4553
    7MOL   H234 4926   6.038   2.830   3.617  0.1131 -1.1542  0.1114
    7MOL   H235 4927   6.134   2.818   3.864  0.9699  1.6752  1.1159
    7MOL   C236 4928   5.762   3.040   2.885 -0.1795 -0.2045  0.0790
    7MOL   C237 4929   5.793   2.990   3.016 -0.2506 -0.5410 -0.7168
    7MOL   C238 4930   5.894   3.074   3.094  0.3201  0.0961 -0.0031
    7MOL   C239 4931   5.920   3.021   3.239 -0.1668 -0.3613 -0.4988
    7MOL   O240 4932   5.985   2.901   3.244 -0.4899  0.0202  0.8455
    7MOL   C241 4933   6.031   3.081   3.014  0.1061  0.2658  0.0188
    7MOL   C242 4934   6.003   3.140   2.872 -0.1621  0.0329  0.5765
    7MOL   C243 4935   5.893   3.064   2.794  0.1219 -0.1315  0.0602
    7MOL   C244 4936   5.865   3.122   2.651  0.1470 -0.4523 -0.2153
    7MOL   O245 4937   5.755   3.051   2.601  0.5902 -0.0454  0.6628
    7MOL   C246 4938   5.783   2.936   2.528  0.3466 -0.4316  0.4405
    7MOL   O247 4939   5.892   2.876   2.519  0.0667  0.1669  1.1366
    7MOL   C248 4940   5.666   2.913   2.433  0.0244  0.2927 -0.2922
    7MOL   C249 4941   5.694   2.832   2.317  0.1041  0.2514 -0.1354
    7MOL   C250 4942   5.589   2.801   2.222 -0.0588  0.2456 -0.5542
    7MOL   C251 4943   5.459   2.858   2.235  0.9342 -0.8796 -0.2512
    7MOL   C252 4944   5.350   2.826   2.128 -0.1763 -0.7303 -0.4907
    7MOL   O253 4945   5.368   2.749   2.031  0.3355  0.1046 -0.0941
    7MOL   O254 4946   5.232   2.892   2.163 -0.1472  0.5137 -0.6952
    7MOL   C255 4947   5.429   2.944   2.346 -0.6381 -0.1906 -0.0188
    7MOL   C256 4948   5.532   2.975   2.440  0.3939  0.8228  0.2759
    7MOL   H257 4949   5.690   2.971   2.840  0.3875 -1.0561  0.4543
    7MOL   H258 4950   5.713   3.136   2.897  2.0689  1.0847 -0.7572
    7MOL   H259 4951   5.698   2.986   3.069 -0.4430 -1.5642 -1.1237
    7MOL   H260 4952   5.828   2.886   3.012  0.8351 -0.1770 -0.7114
    7MOL   H261 4953   5.846   3.171   3.107 -0.3090 -0.3767  1.3858
    7MOL   H262 4954   5.972   3.090   3.306  0.0036 -1.9732  1.0580
    7MOL   H263 4955   5.819   3.009   3.278 -0.4393  1.5334 -0.5712
    7MOL   H264 4956   6.103   3.146   3.062 -0.6089  0.1852  1.2131
    7MOL   H265 4957   6.074   2.980   3.016  1.6954  0.9575  2.1385
    7MOL   H266 4958   6.099   3.142   2.820 -1.4103 -0.7465 -1.8392
    7MOL   H267 4959   5.973   3.244   2.884  0.7159  0.2162  1.2243
    7MOL   H268 4960   5.936   2.967   2.771 -1.7236 -0.5423 -1.8405
    7MOL   H269 4961   5.823   3.223   2.657  1.1092 -0.1156  0.9120
    7MOL   H270 4962   5.947   3.119   2.579  1.2504  0.1906  1.0111
    7MOL   H271 4963   5.793   2.793   2.299  0.4458 -0.3363  2.7293
    7MOL   H272 4964   5.612   2.747   2.131 -1.3963 -0.6596 -0.3619
    7MOL   H273 4965   5.330   2.987   2.356 -0.4283 -0.0729  1.6498
    7MOL   H274 4966   5.517   3.045   2.521 -1.5929 -0.2593  0.8701
    7MOL   C275 4967   4.908   2.897   1.667  0.6091  0.0664  0.3232
    7MOL   C276 4968   5.024   2.904   1.769 -0.0743 -0.7065 -0.0588
    7MOL   C277 4969   4.977   2.986   1.893 -0.6513  0.1067  0.8379
    7MOL   C278 4970   5.104   2.997   1.990  0.2515 -0.0197  0.1523
    7MOL   O279 4971   5.129   2.877   2.060  0.1424  0.0472 -0.3549
    7MOL   C280 4972   4.927   3.128   1.850 -0.0113 -0.8753  0.6193
    7MOL   C281 4973   4.824   3.124   1.737  0.4626 -0.1439 -0.0565
    7MOL   C282 4974   4.859   3.033   1.624  0.3174  0.2728  0.4826
    7MOL   C283 4975   4.745   3.022   1.522 -0.0526  0.1475 -0.0935
    7MOL   O284 4976   4.743   3.131   1.429  0.3885 -0.5640 -0.1236
    7MOL   C285 4977   4.664   3.242   1.437 -0.2008  0.5893  0.1703
    7MOL   O286 4978   4.587   3.267   1.531  0.3924 -0.1287 -0.2765
    7MOL   C287 4979   4.688   3.341   1.324  0.3917  0.1223 -0.1832
    7MOL   C288 4980   4.763   3.301   1.210 -0.6497 -0.1768 -0.0715
    7MOL   C289 4981   4.770   3.384   1.102  0.5061 -0.7234  0.4002
    7MOL   C290 4982   4.711   3.516   1.099 -0.7971 -0.4036  0.7822
    7MOL   C291 4983   4.714   3.586   0.970  0.0460 -0.7826 -0.3579
    7MOL   O292 4984   4.814   3.586   0.898 -0.7528 -0.5482 -0.1624
    7MOL   O293 4985   4.606   3.660   0.946  0.1912  0.8516  0.6691
    7MOL   C294 4986   4.638   3.553   1.213  1.1460 -0.3048  0.7505
    7MOL   C295 4987   4.626   3.471   1.324 -0.3305  0.2248 -0.1405
    7MOL   H296 4988   4.946   2.848   1.577  1.7764  1.6376 -0.0569
    7MOL   H297 4989   4.829   2.833   1.705 -0.4030  1.0835 -0.0274
    7MOL   H298 4990   5.053   2.809   1.815 -1.4170 -1.2856 -0.3939
    7MOL   H299 4991   5.119   2.945   1.734  0.2069  0.7017  2.2117
    7MOL   H300 4992   4.904   2.923   1.943  0.1283 -1.7706 -0.3201
    7MOL   H301 4993   5.191   3.031   1.935 -0.7616  3.6038  0.6987
    7MOL   H302 4994   5.091   3.073   2.066 -1.1222 -0.3043  0.2175
    7MOL   H303 4995   4.889   3.191   1.930 -0.5526 -2.7472  1.8890
    7MOL   H304 4996   5.019   3.173   1.813 -0.5633 -1.0486 -0.9663
    7MOL   H305 4997   4.815   3.227   1.701  2.7576 -0.1665 -0.8003
    7MOL   H306 4998   4.728   3.093   1.777  1.7227 -1.6009  1.9529
    7MOL   H307 4999   4.937   3.072   1.558  0.7684 -1.8268 -0.2672
    7MOL   H308 5000   4.764   2.932   1.464  1.1788 -0.4377  1.1910
    7MOL   H309 5001   4.645   3.011   1.565  0.3123  0.8731  0.9624
    7MOL   H310 5002   4.811   3.205   1.221  0.2810 -0.0649 -2.7951
    7MOL   H311 5003   4.829   3.356   1.016 -2.7679 -1.5190 -1.6273
    7MOL   H312 5004   4.602   3.655   1.215 -1.6716 -1.2690  0.7955
    7MOL   H313 5005   4.575   3.502   1.414  0.6109  0.7770  0.2153
    7MOL   C314 5006   4.836   3.987   0.526 -0.5236  0.2726  0.1186
    7MOL   C315 5007   4.812   3.914   0.661  0.8004 -0.6164  0.4923
    7MOL   C316 5008   4.676   3.948   0.732  0.3019  0.1555  0.5925
    7MOL   C317 5009   4.662   3.870   0.866  0.4137 -0.3859  0.9483
    7MOL   O318 5010   4.625   3.745   0.824 -0.5063  0.0434  0.7619
    7MOL   C319 5011   4.654   4.107   0.731  0.5813 -0.5657  0.0780
    7MOL   C320 5012   4.697   4.173   0.603  0.4818 -0.5422 -0.3624
    7MOL   C321 5013   4.840   4.139   0.552  0.4766  0.1314  0.0835
    7MOL   C322 5014   4.890   4.209   0.418 -0.2026  0.1140 -0.1988
    7MOL   O323 5015   5.029   4.196   0.413  0.7440 -0.0172  0.3233
    7MOL   C324 5016   5.108   4.295   0.369 -0.5542 -0.2617  0.2664
    7MOL   O325 5017   5.071   4.415   0.351  0.6041  0.2366  0.0319
    7MOL   C326 5018   5.246   4.250   0.345 -0.2869 -0.0478 -0.1843
    7MOL   C327 5019   5.350   4.348   0.319 -0.0465  0.1689 -0.8229
    7MOL   C328 5020   5.486   4.311   0.305 -0.8855  0.3303 -0.4166
    7MOL   C329 5021   5.519   4.172   0.308  0.1944 -0.3866 -0.1821
    7MOL   C330 5022   5.660   4.144   0.285  0.0853  0.3588 -0.4184
    7MOL   O331 5023   5.749   4.231   0.272 -0.2018  0.4215  0.3128
    7MOL   O332 5024   5.680   4.012   0.269 -0.1892  0.4763 -0.2882
    7MOL   C333 5025   5.421   4.076   0.329 -0.2233 -0.4678 -0.2295
    7MOL   C334 5026   5.285   4.108   0.346  0.4285  0.0887 -0.0972
    7MOL   H335 5027   4.921   3.949   0.470 -1.9686  0.1797 -2.0824
    7MOL   H336 5028   4.752   3.982   0.457  0.3512  0.7550 -1.0001
    7MOL   H337 5029   4.807   3.805   0.651  2.6473 -0.8793  2.2254
    7MOL   H338 5030   4.895   3.942   0.726  1.6066  2.2623 -1.6815
    7MOL   H339 5031   4.604   3.899   0.667  2.1576  1.5629 -2.6354
    7MOL   H340 5032   4.761   3.867   0.912  0.5411 -0.8707  0.6459
    7MOL   H341 5033   4.589   3.922   0.927 -0.1540 -1.0903  0.8811
    7MOL   H342 5034   4.553   4.121   0.772  1.5161  0.6701  2.0338
    7MOL   H343 5035   4.723   4.137   0.810 -0.9768  0.2968  1.1700
    7MOL   H344 5036   4.690   4.278   0.629  0.6940 -0.2445 -1.4706
    7MOL   H345 5037   4.625   4.161   0.522 -0.7154 -0.1810  0.6508
    7MOL   H346 5038   4.913   4.166   0.628 -0.4345 -0.6286  1.2586
    7MOL   H347 5039   4.852   4.167   0.325  0.8815  1.0017 -1.0613
    7MOL   H348 5040   4.855   4.311   0.427 -2.5857 -0.8883  2.6115
    7MOL   H349 5041   5.319   4.451   0.318 -2.1457 -0.4127  0.2828
    7MOL   H350 5042   5.564   4.384   0.293 -0.3510  0.5568  3.5077
    7MOL   H351 5043   5.436   3.970   0.315 -4.5397 -1.1976 -0.0895
    7MOL   H352 5044   5.223   4.021   0.360  0.1523 -0.2647 -3.1738
    7MOL   C353 5045   5.601   3.584   0.312 -0.4625  0.3081 -0.1873
    7MOL   C354 5046   5.639   3.724   0.358  0.0988 -0.8281  0.8759
    7MOL   C355 5047   5.794   3.744   0.376 -0.0203 -0.9674 -0.7688
    7MOL   C356 5048   5.825   3.889   0.410 -0.2436  0.1478 -0.9500
    7MOL   O357 5049   5.822   3.986   0.305 -0.2534  0.1038 -0.6922
    7MOL   C358 5050   5.849   3.642   0.483 -0.3978  0.1222 -0.1238
    7MOL   C359 5051   5.821   3.504   0.436  0.2887 -0.0511  0.9156
    7MOL   C360 5052   5.673   3.472   0.397 -0.5877 -0.1141 -0.4571
    7MOL   C361 5053   5.658   3.330   0.341 -0.3014  0.1195 -0.4746
    7MOL   O362 5054   5.517   3.304   0.336  0.6056 -0.0061  0.1082
    7MOL   C363 5055   5.474   3.200   0.262  0.1996  0.1972 -0.3303
    7MOL   O364 5056   5.545   3.128   0.187  0.2827 -0.0052  0.6486
    7MOL   C365 5057   5.329   3.172   0.292 -0.3612  0.1440  0.3626
    7MOL   C366 5058   5.273   3.226   0.409 -0.3508  0.2113 -0.1553
    7MOL   C367 5059   5.136   3.204   0.430  0.4672 -0.7607 -0.0025
    7MOL   C368 5060   5.057   3.128   0.343  0.5588  0.0553  0.5495
    7MOL   C369 5061   4.912   3.113   0.359  0.5250 -0.4344  0.4321
    7MOL   O370 5062   4.841   3.207   0.389  0.0079  0.1428  0.1333
    7MOL   O371 5063   4.865   2.984   0.341  0.0949  0.2824 -0.1525
    7MOL   C372 5064   5.111   3.083   0.223 -0.7999 -0.8180  0.4453
    7MOL   C373 5065   5.251   3.101   0.198 -0.4972 -0.4957 -0.3455
    7MOL   H374 5066   5.493   3.576   0.325  0.0036 -1.4621  3.0219
    7MOL   H375 5067   5.634   3.571   0.209  2.4133  1.2395  0.5558
    7MOL   H376 5068   5.588   3.787   0.285  1.3674 -1.9904 -1.0581
    7MOL   H377 5069   5.590   3.737   0.455 -1.5929 -1.4155  0.1256
    7MOL   H378 5070   5.848   3.725   0.283 -0.6223  2.3607 -1.8698
    7MOL   H379 5071   5.751   3.928   0.480  0.6658  0.5714 -0.2148
    7MOL   H380 5072   5.918   3.912   0.461  0.0023  3.3987 -2.6572
    7MOL   H381 5073   5.954   3.667   0.493 -0.2777  0.8867 -2.9635
    7MOL   H382 5074   5.807   3.665   0.582  1.3303  0.7641  0.4794
    7MOL   H383 5075   5.851   3.427   0.508  2.0854  1.2666  1.6145
    7MOL   H384 5076   5.881   3.493   0.345  0.2803  0.8446  0.7993
    7MOL   H385 5077   5.618   3.473   0.491 -0.2389  0.4140 -0.2524
    7MOL   H386 5078   5.702   3.328   0.241 -0.6863  1.0141 -0.6680
    7MOL   H387 5079   5.705   3.253   0.402  1.9241  0.0132 -2.2392
    7MOL   H388 5080   5.323   3.299   0.472 -0.6716  1.1362 -0.9492
    7MOL   H389 5081   5.082   3.239   0.516 -0.9706 -0.1396 -1.1424
    7MOL   H390 5082   5.046   3.038   0.149  0.1738  0.4270 -1.2089
    7MOL   H391 5083   5.285   3.062   0.104  0.7532  2.0572 -1.0029
    7MOL   C392 5084   4.626   2.841   7.939  0.0663  0.0919 -0.2066
    7MOL   C393 5085   4.605   2.922   0.029  0.3301 -0.8373 -0.2079
    7MOL   C394 5086   4.705   2.902   0.140 -0.1560  0.6979  0.1678
    7MOL   C395 5087   4.646   2.975   0.262  0.0826 -0.3624 -0.1247
    7MOL   O396 5088   4.728   2.961   0.384 -0.4509  0.2647 -0.2268
    7MOL   C397 5089   4.726   2.755   0.169  0.1221  0.3069  0.1698
    7MOL   C398 5090   4.771   2.681   0.046  0.7062  0.3873 -0.2037
    7MOL   C399 5091   4.653   2.689   7.971 -0.2985  0.2243 -0.2324
    7MOL   C400 5092   4.692   2.615   7.841  0.7885 -0.0882  0.1466
    7MOL   O401 5093   4.728   2.478   7.859  0.5208  0.0119 -0.0590
    7MOL   C402 5094   4.630   2.377   7.860 -0.1590  0.8559  0.3103
    7MOL   O403 5095   4.506   2.400   7.848 -0.3618 -0.3848  0.1265
    7MOL   C404 5096   4.698   2.247   7.879 -0.0290  0.4484  0.5121
    7MOL   C405 5097   4.630   2.144   7.943 -0.3188 -0.4015 -0.1862
    7MOL   C406 5098   4.698   2.018   7.970 -0.2660 -0.1756 -0.2703
    7MOL   C407 5099   4.833   1.991   7.929 -0.6076 -0.8980 -0.0985
    7MOL   C408 5100   4.910   1.864   7.959 -0.7521 -0.0296  0.0472
    7MOL   O409 5101   5.012   1.853   7.901 -0.3247  0.1147  0.0764
    7MOL   O410 5102   4.843   1.782   0.001 -0.1320 -0.0791  0.4031
    7MOL   C411 5103   4.896   2.098   7.860  0.7989  0.3671 -0.2665
    7MOL   C412 5104   4.835   2.223   7.840 -0.1119  0.0735 -0.3130
    7MOL   H413 5105   4.542   2.843   7.870 -1.9217  2.1160  2.1590
    7MOL   H414 5106   4.713   2.881   7.887  0.4682 -0.2278  0.2067
    7MOL   H415 5107   4.602   3.029   0.007  0.7869 -0.9818 -0.9564
    7MOL   H416 5108   4.513   2.879   0.069  0.6519  0.0277  1.5131
    7MOL   H417 5109   4.798   2.943   0.100 -0.2591  1.5525  0.7811
    7MOL   H418 5110   4.649   3.080   0.234  0.3039 -0.7087 -1.4411
    7MOL   H419 5111   4.542   2.954   0.287  0.0308 -1.2735 -1.0829
    7MOL   H420 5112   4.793   2.743   0.255  1.1419  1.2151 -0.4948
    7MOL   H421 5113   4.633   2.717   0.212  0.3283  1.4609  1.7193
    7MOL   H422 5114   4.781   2.573   0.059 -2.2996  0.0261 -0.6673
    7MOL   H423 5115   4.865   2.718   0.005  1.1184  3.0199  2.9409
    7MOL   H424 5116   4.567   2.636   8.012 -1.0628  0.4992 -1.4681
    7MOL   H425 5117   4.611   2.626   7.770  0.2276  0.9171  0.9312
    7MOL   H426 5118   4.782   2.661   7.799  0.1702  0.8241 -0.1852
    7MOL   H427 5119   4.526   2.153   7.972 -0.4449 -0.8556 -0.4909
    7MOL   H428 5120   4.643   1.950   8.033 -1.7063  1.8673  0.7086
    7MOL   H429 5121   4.999   2.083   7.830 -0.1722 -0.7948 -3.2068
    7MOL   H430 5122   4.893   2.298   7.788  1.4705 -0.3618  0.7881
    7MOL   C431 5123   4.830   1.172   7.966  0.3355 -0.4521  0.8449
    7MOL   C432 5124   4.806   1.322   7.914 -0.7584 -0.1301 -1.0842
    7MOL   C433 5125   4.873   1.422   8.022  0.3963  0.1589  0.6168
    7MOL   C434 5126   4.854   1.560   7.966  0.0205  0.0792 -0.3662
    7MOL   O435 5127   4.918   1.654   0.022  0.1048 -0.1266 -0.2307
    7MOL   C436 5128   4.825   1.393   0.128 -0.7836  0.0165  0.2110
    7MOL   C437 5129   4.864   1.253   0.174  0.7531  0.4666  0.2360
    7MOL   C438 5130   4.787   1.156   0.081  0.2441 -0.5579  0.4211
    7MOL   C439 5131   4.811   1.018   0.133 -0.0930  0.3463  0.3406
    7MOL   O440 5132   4.701   0.969   0.215  0.1271 -0.0656  0.1810
    7MOL   C441 5133   4.699   0.981   0.353 -0.1016  0.4451  0.5522
    7MOL   O442 5134   4.795   1.024   0.417 -0.1122 -0.1591  0.1092
    7MOL   C443 5135   4.579   0.936   0.414  0.3738  0.6121 -0.1756
    7MOL   C444 5136   4.453   0.921   0.342  0.4711 -0.6248  0.1634
    7MOL   C445 5137   4.333   0.908   0.412 -0.0612  0.2639 -0.1442
    7MOL   C446 5138   4.331   0.918   0.551  0.8638  1.2455 -0.1546
    7MOL   C447 5139   4.201   0.930   0.627  0.1269 -0.2476 -0.3117
    7MOL   O448 5140   4.189   0.954   0.752  0.1498 -0.8110  0.6625
    7MOL   O449 5141   4.098   0.920   0.553 -0.2041 -0.0826  0.2382
    7MOL   C450 5142   4.450   0.924   0.627  0.2989 -0.0828 -0.4779
    7MOL   C451 5143   4.573   0.944   0.557  0.2711  0.3225  0.3253
    7MOL   H452 5144   4.755   1.104   7.925 -1.2815  1.4534  0.5612
    7MOL   H453 5145   4.930   1.128   7.963 -0.2891 -1.9254  1.3543
    7MOL   H454 5146   4.848   1.350   7.817  1.9633 -2.1512 -0.5757
    7MOL   H455 5147   4.701   1.349   7.927 -0.5871 -0.5902  1.5992
    7MOL   H456 5148   4.982   1.413   8.014  0.5720  1.5711  1.3171
    7MOL   H457 5149   4.890   1.567   7.864  0.0192 -0.5521 -0.4122
    7MOL   H458 5150   4.746   1.576   7.964  0.2416  2.1752  1.6888
    7MOL   H459 5151   4.859   1.471   0.197 -0.3583  0.6712 -0.7337
    7MOL   H460 5152   4.717   1.397   0.122 -0.6310  1.5192 -2.2958
    7MOL   H461 5153   4.833   1.242   0.278  2.6944  1.2972  0.9215
    7MOL   H462 5154   4.972   1.239   0.170  0.8235  1.2361 -0.7897
    7MOL   H463 5155   4.679   1.171   0.083  0.4518  0.9951  0.1013
    7MOL   H464 5156   4.822   0.957   0.043 -0.5294  3.9361 -2.2588
    7MOL   H465 5157   4.905   1.010   0.188 -0.3573 -1.3988  0.5766
    7MOL   H466 5158   4.456   0.931   0.235 -1.2980 -0.6179  0.1148
    7MOL   H467 5159   4.241   0.894   0.359  0.1688 -0.1895 -0.4245
    7MOL   H468 5160   4.448   0.927   0.735 -1.6079  0.3634 -0.5101
    7MOL   H469 5161   4.664   0.966   0.611  1.4040 -2.2528 -0.4758
    7MOL   C470 5162   3.649   1.325   0.468 -0.1557 -0.1084  0.1838
    7MOL   C471 5163   3.793   1.278   0.480 -0.4339 -0.7203 -0.0323
    7MOL   C472 5164   3.820   1.151   0.565 -0.3238  1.1302 -0.5389
    7MOL   C473 5165   3.967   1.111   0.576  0.0724  0.6499  0.9096
    7MOL   O474 5166   3.973   0.974   0.611  0.2437  0.3273 -0.3704
    7MOL   C475 5167   3.756   1.173   0.702 -0.1463 -0.7424 -0.5470
    7MOL   C476 5168   3.603   1.208   0.693 -0.1096  0.1270  0.0091
    7MOL   C477 5169   3.576   1.331   0.605  0.2943  0.6753  0.1539
    7MOL   C478 5170   3.426   1.347   0.579  0.0175  0.0964  0.4993
    7MOL   O479 5171   3.402   1.454   0.489  0.2231  0.3419  0.1984
    7MOL   C480 5172   3.280   1.459   0.432  0.8712 -0.4812 -0.0835
    7MOL   O481 5173   3.185   1.383   0.463  0.6277  0.2548 -0.2933
    7MOL   C482 5174   3.271   1.579   0.336  0.0877  0.3878 -0.0861
    7MOL   C483 5175   3.144   1.628   0.296  0.5872 -0.4993 -0.3127
    7MOL   C484 5176   3.126   1.736   0.213  0.2680 -0.2816  0.2498
    7MOL   C485 5177   3.246   1.800   0.161 -0.4792  0.4861  0.5091
    7MOL   C486 5178   3.234   1.927   0.077 -0.2068  0.4861 -1.0626
    7MOL   O487 5179   3.129   1.989   0.056  0.7229  0.2336  0.0853
    7MOL   O488 5180   3.356   1.956   0.014 -0.0090  0.0042  0.2883
    7MOL   C489 5181   3.369   1.738   0.197  0.3481 -0.3123 -0.3260
    7MOL   C490 5182   3.385   1.637   0.286  0.7171  0.2686 -0.7626
    7MOL   H491 5183   3.641   1.418   0.412 -1.4439 -0.2607  0.1081
    7MOL   H492 5184   3.597   1.264   0.394  2.3474  2.2417 -3.6521
    7MOL   H493 5185   3.826   1.263   0.377 -2.7584 -0.9114 -0.7643
    7MOL   H494 5186   3.850   1.359   0.526  0.0224 -2.4713  2.6105
    7MOL   H495 5187   3.776   1.060   0.522  0.5829  0.2978  0.2715
    7MOL   H496 5188   4.011   1.123   0.477 -0.3924 -3.3304  0.1586
    7MOL   H497 5189   4.023   1.175   0.645  0.3916 -0.0496  1.2988
    7MOL   H498 5190   3.773   1.097   0.779 -0.4279 -2.2374 -1.9352
    7MOL   H499 5191   3.805   1.261   0.744 -0.0281 -0.0658 -2.0494
    7MOL   H500 5192   3.576   1.238   0.795  0.0199 -0.8215  0.3291
    7MOL   H501 5193   3.548   1.115   0.677 -0.0318  0.0236  0.3328
    7MOL   H502 5194   3.597   1.418   0.667 -0.9542  0.6351  0.6390
    7MOL   H503 5195   3.385   1.249   0.556  2.2653 -1.1288  1.5479
    7MOL   H504 5196   3.377   1.381   0.670 -0.5150 -0.6566  0.4968
    7MOL   H505 5197   3.059   1.572   0.333  0.0566 -1.2573 -2.5853
    7MOL   H506 5198   3.030   1.783   0.199  0.6495  1.2529  2.5711
    7MOL   H507 5199   3.465   1.772   0.161  1.0342 -1.5429  0.3463
    7MOL   H508 5200   3.483   1.597   0.307  0.1969 -1.9152 -2.3097
    7MOL   C509 5201   3.769   2.294   0.108  0.3879 -0.4206  0.2980
    7MOL   C510 5202   3.617   2.302   0.092 -0.1944  0.2205 -0.7300
    7MOL   C511 5203   3.568   2.183   0.001 -0.5440 -0.0659 -0.0365
    7MOL   C512 5204   3.413   2.190   8.026  0.1023 -0.2487  0.6828
    7MOL   O513 5205   3.344   2.079   7.967 -0.1045 -0.4404  0.0222
    7MOL   C514 5206   3.628   2.198   7.894  0.0457 -0.9208  0.5363
    7MOL   C515 5207   3.787   2.174   7.912 -0.5132  0.4486 -0.3013
    7MOL   C516 5208   3.854   2.267   8.015 -0.2230  0.0847  0.8278
    7MOL   C517 5209   3.991   2.215   0.016 -0.3613  0.0628 -0.0324
    7MOL   O518 5210   4.051   2.306   0.106  0.1842 -0.0240  0.2624
    7MOL   C519 5211   4.184   2.276   0.133  0.5805  0.2006  0.4917
    7MOL   O520 5212   4.247   2.184   0.074  0.6449 -0.3804 -0.2054
    7MOL   C521 5213   4.256   2.380   0.222 -0.2281 -0.9616  0.0679
    7MOL   C522 5214   4.181   2.457   0.323  0.1380  1.0897  0.6495
    7MOL   C523 5215   4.249   2.545   0.408  0.1446 -0.3256 -0.3426
    7MOL   C524 5216   4.390   2.547   0.411 -0.6966  0.4013 -0.1666
    7MOL   C525 5217   4.465   2.620   0.520 -0.2485 -0.3107  0.4734
    7MOL   O526 5218   4.586   2.593   0.536  0.2145  1.0482 -0.6268
    7MOL   O527 5219   4.389   2.707   0.598  0.2577  0.8288 -0.3050
    7MOL   C528 5220   4.460   2.474   0.309  0.1015  0.4362  0.1614
    7MOL   C529 5221   4.395   2.385   0.225  0.1081 -0.4238  0.2729
    7MOL   H530 5222   3.801   2.393   0.140 -0.3188  0.0232 -0.3311
    7MOL   H531 5223   3.792   2.217   0.181  1.6094  0.1844  0.5559
    7MOL   H532 5224   3.563   2.283   0.184 -2.5837  0.0762 -2.1185
    7MOL   H533 5225   3.603   2.399   0.044 -0.1693 -0.1387 -1.4817
    7MOL   H534 5226   3.610   2.090   0.039 -3.0238 -2.1032 -2.1203
    7MOL   H535 5227   3.367   2.215   0.087  0.0867 -1.2536  0.9443
    7MOL   H536 5228   3.378   2.277   7.970 -1.0533 -0.9701  0.2585
    7MOL   H537 5229   3.592   2.117   7.830 -0.4958 -1.5723  1.6561
    7MOL   H538 5230   3.601   2.293   7.848  1.4430  0.1511  1.9022
    7MOL   H539 5231   3.832   2.172   7.813  0.4788  0.6696  0.1386
    7MOL   H540 5232   3.791   2.073   7.953 -1.7615  0.6589  0.3698
    7MOL   H541 5233   3.867   2.357   7.955 -1.1359  0.6407  1.4364
    7MOL   H542 5234   3.974   2.117   0.061  0.6265  0.3456  0.9599
    7MOL   H543 5235   4.054   2.216   7.962  0.8749  0.8253  0.8331
    7MOL   H544 5236   4.074   2.444   0.320  0.5182 -2.5237 -0.3154
    7MOL   H545 5237   4.193   2.608   0.476  0.9205  2.3328 -2.0556
    7MOL   H546 5238   4.568   2.476   0.321  0.1628  0.3303 -0.3678
    7MOL   H547 5239   4.438   2.320   0.151 -0.6897 -0.0669 -0.5183
    7MOL   C548 5240   4.746   3.200   0.755  0.1336  0.0168  0.4519
    7MOL   C549 5241   4.630   3.135   0.689 -0.1023  0.3689 -0.0385
    7MOL   C550 5242   4.611   2.980   0.733 -0.3122 -0.2706  0.2749
    7MOL   C551 5243   4.508   2.900   0.648  0.2004  0.1106  0.0912
    7MOL   O552 5244   4.476   2.772   0.700  0.1750  0.0334 -0.2893
    7MOL   C553 5245   4.751   2.916   0.732  0.2924  0.1504 -0.4306
    7MOL   C554 5246   4.863   2.992   0.810  0.6869  1.0524  0.8436
    7MOL   C555 5247   4.883   3.135   0.747 -0.1298  0.3005 -0.3116
    7MOL   C556 5248   5.002   3.219   0.813 -0.3445  0.4891  0.5634
    7MOL   O557 5249   5.132   3.158   0.798  0.0913  0.4633  0.4149
    7MOL   C558 5250   5.240   3.222   0.836  0.0318 -0.1188 -0.5458
    7MOL   O559 5251   5.229   3.319   0.910  0.9020  0.3707  0.2531
    7MOL   C560 5252   5.367   3.167   0.792 -0.3270 -0.0944  0.1193
    7MOL   C561 5253   5.496   3.224   0.835 -0.3263 -0.1492 -0.2598
    7MOL   C562 5254   5.617   3.177   0.786  0.2900  0.1331  0.0342
    7MOL   C563 5255   5.621   3.073   0.692 -0.3829 -0.3148 -0.8229
    7MOL   C564 5256   5.752   3.027   0.644 -0.0650 -0.2995 -0.0417
    7MOL   O565 5257   5.858   3.048   0.702 -0.6016 -0.5323  0.4850
    7MOL   O566 5258   5.745   2.953   0.529  0.1913 -0.5151  0.0551
    7MOL   C567 5259   5.500   3.024   0.646 -0.2299 -0.1954  0.5445
    7MOL   C568 5260   5.376   3.069   0.698 -0.2911 -0.0946 -0.2249
    7MOL   H569 5261   4.746   3.307   0.734 -0.5057  0.0279  0.4985
    7MOL   H570 5262   4.720   3.197   0.861  0.2400 -0.2498  0.4698
    7MOL   H571 5263   4.532   3.184   0.693 -1.0064 -1.3790 -0.1705
    7MOL   H572 5264   4.656   3.143   0.584  0.7893  1.3019  0.2510
    7MOL   H573 5265   4.580   2.985   0.838  0.3977  1.2486  0.4345
    7MOL   H574 5266   4.411   2.949   0.645 -0.2239 -0.8465 -3.2739
    7MOL   H575 5267   4.545   2.887   0.546  1.0294 -0.0188  0.3962
    7MOL   H576 5268   4.746   2.822   0.787 -1.4191  0.8940  0.7113
    7MOL   H577 5269   4.778   2.900   0.627  3.2886  0.0235  0.3006
    7MOL   H578 5270   4.954   2.932   0.796 -1.7582 -2.5951 -0.2036
    7MOL   H579 5271   4.848   2.992   0.918 -4.3690 -0.4617  0.2408
    7MOL   H580 5272   4.901   3.119   0.641 -1.2831  0.2864 -0.5112
    7MOL   H581 5273   5.007   3.315   0.763  0.1585 -0.0187 -0.3864
    7MOL   H582 5274   4.976   3.243   0.916 -0.3837  0.7270  0.4973
    7MOL   H583 5275   5.496   3.296   0.915  0.4184  1.8598 -2.0188
    7MOL   H584 5276   5.713   3.209   0.825  0.6276 -2.0168  1.0546
    7MOL   H585 5277   5.505   2.943   0.575 -0.9787 -0.3171  0.6297
    7MOL   H586 5278   5.289   3.023   0.653  1.3354 -1.5092 -2.0027
    7MOL   C587 5279   5.835   2.691   0.117  0.8143  0.4663  0.4398
    7MOL   C588 5280   5.877   2.770   0.244  0.2231  0.2389  0.2335
    7MOL   C589 5281   5.832   2.697   0.375 -0.8586 -0.2697 -0.2486
    7MOL   C590 5282   5.889   2.769   0.503  0.5628  0.6333 -0.0126
    7MOL   O591 5283   5.882   2.907   0.484  0.2443  0.0239  0.8072
    7MOL   C592 5284   5.687   2.669   0.362 -0.4724  0.8574  0.1960
    7MOL   C593 5285   5.659   2.581   0.237 -0.1742  0.3647  0.3065
    7MOL   C594 5286   5.690   2.651   0.107 -0.1919  0.3732 -0.2603
    7MOL   C595 5287   5.668   2.563   8.024 -0.3051  0.0591  0.4288
    7MOL   O596 5288   5.649   2.638   7.900 -0.1781  0.8317  0.6347
    7MOL   C597 5289   5.574   2.581   7.798 -0.5303  0.3587  0.6754
    7MOL   O598 5290   5.547   2.462   7.791  0.5737 -0.3614  0.1789
    7MOL   C599 5291   5.537   2.672   7.694 -0.4223 -0.3086  0.8015
    7MOL   C600 5292   5.460   2.618   7.586  0.8836  0.3714 -0.2171
    7MOL   C601 5293   5.418   2.697   7.477  0.1038 -0.5237 -0.8729
    7MOL   C602 5294   5.466   2.835   7.478  0.3524 -0.3460  0.6626
    7MOL   C603 5295   5.436   2.918   7.359  0.2938  0.4583 -0.2492
    7MOL   O604 5296   5.405   2.877   7.245  0.3349 -0.0602  0.4049
    7MOL   O605 5297   5.448   3.054   7.370 -0.0178  0.2394 -0.5348
    7MOL   C606 5298   5.538   2.892   7.585  0.2759 -1.1965 -0.4968
    7MOL   C607 5299   5.580   2.809   7.689 -0.2381  0.4905  0.5476
    7MOL   H608 5300   5.863   2.748   0.028 -0.1433 -0.7592 -0.6747
    7MOL   H609 5301   5.897   2.602   0.109  0.0422 -0.0923  0.6071
    7MOL   H610 5302   5.984   2.789   0.244  0.6793 -2.1093 -1.5991
    7MOL   H611 5303   5.834   2.870   0.235  0.6416  0.3375 -0.8137
    7MOL   H612 5304   5.893   2.607   0.384  1.1775  1.2671  2.1172
    7MOL   H613 5305   5.844   2.743   0.599  0.8331 -1.8629 -0.5168
    7MOL   H614 5306   5.996   2.752   0.494  0.5145 -0.1786  0.8349
    7MOL   H615 5307   5.645   2.627   0.454 -0.1516  1.5685  0.6692
    7MOL   H616 5308   5.637   2.765   0.355 -0.6058  0.8189  0.5949
    7MOL   H617 5309   5.554   2.550   0.237 -0.5965  1.7043 -1.0304
    7MOL   H618 5310   5.716   2.489   0.240 -0.5037  0.1584  0.2326
    7MOL   H619 5311   5.635   2.745   0.097 -1.3809 -0.2502  0.3948
    7MOL   H620 5312   5.741   2.484   8.009 -0.7818 -0.3197  0.0570
    7MOL   H621 5313   5.574   2.507   8.034  0.5461 -1.3700  0.5364
    7MOL   H622 5314   5.436   2.513   7.592 -0.5715  0.7815  1.3591
    7MOL   H623 5315   5.358   2.665   7.393  0.9738  1.4156 -2.2684
    7MOL   H624 5316   5.580   2.992   7.593 -0.4612 -0.7654 -1.9247
    7MOL   H625 5317   5.638   2.856   7.767 -0.2672  1.3944  0.0303
    7MOL   C626 5318   5.279   3.235   6.862  0.0846 -0.1183  0.4213
    7MOL   C627 5319   5.303   3.161   6.992  0.1113 -0.5636 -0.3521
    7MOL   C628 5320   5.315   3.263   7.103 -0.0788  0.0673 -0.2531
    7MOL   C629 5321   5.326   3.207   7.239 -0.6646  0.0638 -0.7019
    7MOL   O630 5322   5.441   3.121   7.235  0.7338 -0.0462 -0.2663
    7MOL   C631 5323   5.437   3.355   7.080 -0.0218  0.3315  0.6076
    7MOL   C632 5324   5.435   3.423   6.945 -0.1523 -0.1381 -0.0516
    7MOL   C633 5325   5.410   3.319   6.829  0.1732 -0.1893 -0.2396
    7MOL   C634 5326   5.402   3.407   6.703  0.8978  0.2807 -0.6304
    7MOL   O635 5327   5.422   3.323   6.592 -0.4218 -0.1744 -0.0688
    7MOL   C636 5328   5.471   3.379   6.482  0.5848  0.7382 -0.1657
    7MOL   O637 5329   5.490   3.498   6.469  0.0657  0.3965  0.6344
    7MOL   C638 5330   5.504   3.282   6.378  0.1155  0.1418  0.2065
    7MOL   C639 5331   5.580   3.330   6.267  0.1911 -0.5682  0.4680
    7MOL   C640 5332   5.623   3.247   6.161  0.2023 -0.3924 -0.4480
    7MOL   C641 5333   5.597   3.105   6.178 -0.3155  0.5415  0.6555
    7MOL   C642 5334   5.656   3.006   6.086  0.0032  0.0401 -0.4330
    7MOL   O643 5335   5.623   2.889   6.077  0.2660  0.6463  0.1004
    7MOL   O644 5336   5.746   3.067   6.007 -0.2649 -0.7333 -0.0277
    7MOL   C645 5337   5.523   3.060   6.287 -0.1916 -0.8169 -0.2123
    7MOL   C646 5338   5.478   3.146   6.390  0.5603 -0.1000  0.5057
    7MOL   H647 5339   5.272   3.167   6.777  1.0966 -0.5426  0.6707
    7MOL   H648 5340   5.187   3.292   6.872 -0.9382 -1.6877  0.0604
    7MOL   H649 5341   5.218   3.096   7.012  1.5096 -1.6808  2.2082
    7MOL   H650 5342   5.385   3.092   6.974  1.3001  0.6398  0.3421
    7MOL   H651 5343   5.216   3.309   7.107 -0.5775 -1.0916  0.8102
    7MOL   H652 5344   5.347   3.285   7.311 -2.2783  1.0074 -1.2275
    7MOL   H653 5345   5.237   3.152   7.268  1.6603 -3.5748 -0.1058
    7MOL   H654 5346   5.446   3.424   7.164 -1.5067  0.2249  0.8629
    7MOL   H655 5347   5.527   3.293   7.085 -0.6193 -0.4782  1.5460
    7MOL   H656 5348   5.523   3.486   6.931  0.6624 -1.1981  0.2804
    7MOL   H657 5349   5.352   3.495   6.945 -0.1797 -0.1636 -0.6698
    7MOL   H658 5350   5.503   3.264   6.821 -0.1899 -1.0992  1.6596
    7MOL   H659 5351   5.301   3.448   6.693 -0.0883 -2.1498 -1.1157
    7MOL   H660 5352   5.465   3.494   6.720  2.9026 -1.5924  1.7441
    7MOL   H661 5353   5.621   3.428   6.251  0.6962 -0.8607 -0.0515
    7MOL   H662 5354   5.684   3.289   6.082  1.6908  1.1542  1.4731
    7MOL   H663 5355   5.502   2.957   6.312 -1.9155 -0.5958 -0.6832
    7MOL   H664 5356   5.419   3.110   6.473  0.3181  0.6145  0.6468
    7MOL   C665 5357   6.058   2.791   5.606  0.1410 -0.0863  0.3030
    7MOL   C666 5358   6.001   2.894   5.707  0.3584 -0.0273  0.6021
    7MOL   C667 5359   5.854   2.940   5.673  0.6403  0.7353  0.1759
    7MOL   C668 5360   5.791   3.035   5.777 -0.2958 -0.1562  0.8511
    7MOL   O669 5361   5.807   2.977   5.905  0.0153  0.2644  0.2798
    7MOL   C670 5362   5.845   3.012   5.529 -0.3738  0.2212  0.2061
    7MOL   C671 5363   5.911   2.903   5.429 -0.0541 -0.4448 -0.1777
    7MOL   C672 5364   6.051   2.848   5.463 -0.1279 -0.7211 -0.1364
    7MOL   C673 5365   6.110   2.739   5.375  0.1154 -0.3306 -0.8228
    7MOL   O674 5366   6.254   2.735   5.396 -0.1705 -0.0052  0.7129
    7MOL   C675 5367   6.331   2.628   5.365 -0.1027 -0.0740 -0.3800
    7MOL   O676 5368   6.287   2.527   5.319 -0.0352  0.2002  0.5776
    7MOL   C677 5369   6.475   2.649   5.396  0.4474  0.1698 -0.2659
    7MOL   C678 5370   6.526   2.771   5.443  0.2450 -0.6254 -0.0536
    7MOL   C679 5371   6.659   2.799   5.465 -0.6284 -0.0009 -0.5637
    7MOL   C680 5372   6.750   2.698   5.456  0.2422  0.1358  0.1541
    7MOL   C681 5373   6.893   2.719   5.480 -0.3226  0.4205 -0.0730
    7MOL   O682 5374   6.960   2.628   5.518 -0.7395  0.0352 -0.0923
    7MOL   O683 5375   6.942   2.842   5.464 -0.0007 -0.1785 -0.1679
    7MOL   C684 5376   6.699   2.562   5.424 -0.8033 -0.5669 -0.4929
    7MOL   C685 5377   6.568   2.547   5.378  0.3563 -0.0588 -0.2518
    7MOL   H686 5378   6.153   2.750   5.640  0.3684  2.3582  2.7428
    7MOL   H687 5379   5.985   2.711   5.624  0.1610 -0.2556 -0.3607
    7MOL   H688 5380   6.008   2.850   5.806  1.8074  0.9859  0.9680
    7MOL   H689 5381   6.062   2.984   5.709  1.4372 -0.7459  1.0113
    7MOL   H690 5382   5.804   2.843   5.677  0.9033  0.6514  1.5603
    7MOL   H691 5383   5.826   3.138   5.776  0.0832 -0.2735  1.8439
    7MOL   H692 5384   5.682   3.032   5.767 -0.4007 -0.7797  2.1888
    7MOL   H693 5385   5.741   3.030   5.501 -0.1237 -0.0859 -0.9760
    7MOL   H694 5386   5.902   3.105   5.531 -0.2018  0.1549 -1.0750
    7MOL   H695 5387   5.910   2.949   5.330 -1.8591 -0.7048 -0.3001
    7MOL   H696 5388   5.839   2.822   5.423 -0.9752  0.3432  0.1130
    7MOL   H697 5389   6.110   2.940   5.458  1.2635 -1.5631  0.3289
    7MOL   H698 5390   6.064   2.644   5.403 -0.4780 -0.2827 -1.6104
    7MOL   H699 5391   6.092   2.770   5.272  1.0048 -0.2960 -0.9685
    7MOL   H700 5392   6.459   2.854   5.457 -0.2249 -0.9009 -0.6483
    7MOL   H701 5393   6.696   2.892   5.503 -1.4463  0.0512  0.1283
    7MOL   H702 5394   6.774   2.484   5.421 -0.0432  0.2044 -3.5893
    7MOL   H703 5395   6.547   2.446   5.344  1.0810  0.5289 -2.4861
    7MOL   C704 5396   7.407   2.750   5.821 -0.4863  0.2212 -0.1647
    7MOL   C705 5397   7.266   2.751   5.740 -0.2570 -0.2879  0.4418
    7MOL   C706 5398   7.190   2.888   5.737 -0.7238  0.1847  0.6677
    7MOL   C707 5399   7.057   2.885   5.674 -0.6365  0.2312 -0.5640
    7MOL   O708 5400   7.082   2.865   5.532  0.2650  0.2600  0.1745
    7MOL   C709 5401   7.179   2.943   5.884  0.2437 -0.3298 -0.5505
    7MOL   C710 5402   7.326   2.965   5.933 -0.6255 -0.4309  0.1273
    7MOL   C711 5403   7.398   2.830   5.948  0.0725  0.7186 -0.2698
    7MOL   C712 5404   7.541   2.845   6.006  0.7297  0.3084  0.1119
    7MOL   O713 5405   7.575   2.714   6.048  0.4133 -0.1990  0.5208
    7MOL   C714 5406   7.701   2.677   6.060 -0.1438 -0.5054 -0.5963
    7MOL   O715 5407   7.792   2.757   6.036 -0.1597 -0.0149  0.2678
    7MOL   C716 5408   7.706   2.537   6.106  0.8053  0.4988  0.5678
    7MOL   C717 5409   7.605   2.482   6.186  0.1780 -0.5986  0.2864
    7MOL   C718 5410   7.602   2.342   6.210  0.0477 -0.3988  0.5298
    7MOL   C719 5411   7.713   2.265   6.165 -0.7069  0.1989  0.0490
    7MOL   C720 5412   7.719   2.115   6.188  0.1446  0.0984 -0.6371
    7MOL   O721 5413   7.769   2.034   6.115 -0.0753 -0.2050 -0.5267
    7MOL   O722 5414   7.650   2.074   6.297 -0.4901 -0.3261  0.4379
    7MOL   C723 5415   7.820   2.321   6.092  0.3370 -0.1755  0.8260
    7MOL   C724 5416   7.817   2.457   6.064 -0.2619  0.3706  0.4600
    7MOL   H725 5417   7.433   2.645   5.834  0.7372  0.7670  1.9430
    7MOL   H726 5418   7.487   2.787   5.758  0.2078  0.1760  0.6847
    7MOL   H727 5419   7.280   2.714   5.638  1.4696 -1.0468  0.9304
    7MOL   H728 5420   7.201   2.671   5.775 -1.4089 -0.1541 -1.3065
    7MOL   H729 5421   7.238   2.966   5.678  0.8517 -0.9851  0.3601
    7MOL   H730 5422   6.989   2.810   5.715 -0.2815 -0.0640 -0.5191
    7MOL   H731 5423   7.014   2.984   5.692  1.8199  1.5493 -1.7794
    7MOL   H732 5424   7.126   3.038   5.891  0.3719 -0.3359  0.5508
    7MOL   H733 5425   7.124   2.866   5.937 -1.4423  0.4094 -1.1957
    7MOL   H734 5426   7.312   3.011   6.031 -0.0352  4.5322 -1.9526
    7MOL   H735 5427   7.382   3.040   5.878  0.9280 -1.2213  0.6022
    7MOL   H736 5428   7.330   2.780   6.018  1.1613 -1.7410 -0.9289
    7MOL   H737 5429   7.609   2.881   5.928 -1.4996  2.3840 -0.9305
    7MOL   H738 5430   7.546   2.914   6.090 -3.2806 -0.5874  1.2094
    7MOL   H739 5431   7.522   2.541   6.222  1.8967  1.4173  1.0294
    7MOL   H740 5432   7.521   2.293   6.263  0.9380  2.4117  4.7564
    7MOL   H741 5433   7.909   2.266   6.065  1.0890  1.3217  0.1678
    7MOL   H742 5434   7.897   2.496   6.003 -0.2012  1.1210  1.0136
    7MOL   C743 5435   7.209   1.901   6.021  0.2588  0.2904  0.8265
    7MOL   C744 5436   7.272   1.898   6.158  0.5200  0.8864  0.1831
    7MOL   C745 5437   7.427   1.912   6.173 -0.5243  0.1642  0.2832
    7MOL   C746 5438   7.491   1.901   6.320 -0.4746 -0.2885 -0.2665
    7MOL   O747 5439   7.629   1.928   6.313  0.3440  0.0563 -0.1857
    7MOL   C748 5440   7.492   1.818   6.073  0.1056 -0.4085 -0.3255
    7MOL   C749 5441   7.429   1.814   5.929 -0.7702 -0.1199 -0.2025
    7MOL   C750 5442   7.275   1.799   5.927  0.9332 -0.4653 -0.5421
    7MOL   C751 5443   7.218   1.799   5.784 -0.4461  0.0776 -0.1444
    7MOL   O752 5444   7.090   1.746   5.785 -0.2606 -0.2590 -0.5032
    7MOL   C753 5445   6.994   1.829   5.752 -0.3347 -0.2873  0.2828
    7MOL   O754 5446   7.007   1.946   5.720  0.2163  0.2989  0.3503
    7MOL   C755 5447   6.859   1.765   5.748 -0.2998 -0.0686 -0.3035
    7MOL   C756 5448   6.838   1.623   5.775 -0.3062  0.5495  0.2397
    7MOL   C757 5449   6.706   1.570   5.770 -0.7710 -0.5544  0.6282
    7MOL   C758 5450   6.597   1.647   5.737  0.6494  0.6661  0.8112
    7MOL   C759 5451   6.450   1.595   5.749  0.5656 -0.4705  0.0392
    7MOL   O760 5452   6.417   1.495   5.813  0.0853 -0.4559 -0.3747
    7MOL   O761 5453   6.362   1.663   5.672  0.5084 -0.4398  0.4923
    7MOL   C762 5454   6.618   1.779   5.700 -0.0949 -0.2008  0.1384
    7MOL   C763 5455   6.746   1.833   5.705 -0.3675 -0.3240 -0.3183
    7MOL   H764 5456   7.104   1.872   6.024  0.7285 -1.4837  0.1616
    7MOL   H765 5457   7.226   2.000   5.979 -1.6179 -0.1849 -1.1217
    7MOL   H766 5458   7.219   1.974   6.215 -0.7460  0.9039 -0.9903
    7MOL   H767 5459   7.245   1.802   6.202  1.2778 -0.5509 -2.3737
    7MOL   H768 5460   7.454   2.010   6.133 -1.7102  0.3087 -0.1787
    7MOL   H769 5461   7.450   1.968   6.395 -0.1936 -1.6945  1.1742
    7MOL   H770 5462   7.465   1.804   6.362  1.9539 -1.0509 -0.4359
    7MOL   H771 5463   7.600   1.832   6.074  0.0525 -0.0180  0.4979
    7MOL   H772 5464   7.474   1.720   6.119 -0.0268 -0.4311 -0.4257
    7MOL   H773 5465   7.474   1.732   5.873 -2.3831 -0.6100 -0.8277
    7MOL   H774 5466   7.459   1.906   5.880 -0.6741 -0.8928 -1.6426
    7MOL   H775 5467   7.260   1.701   5.972 -1.8415  0.2835  0.2793
    7MOL   H776 5468   7.229   1.903   5.751  2.1204 -0.2223 -0.2702
    7MOL   H777 5469   7.271   1.724   5.726 -1.3097 -2.6018  2.4064
    7MOL   H778 5470   6.916   1.554   5.808 -0.1331 -0.6240 -2.4922
    7MOL   H779 5471   6.687   1.466   5.791  2.7021 -1.5179 -0.5576
    7MOL   H780 5472   6.538   1.838   5.659  0.4390 -0.2777 -1.0237
    7MOL   H781 5473   6.755   1.937   5.678 -0.7066  0.2458  1.7139
    7MOL   H782 5474   6.282   1.617   5.689 -1.3049  2.0145 -1.0816
    8MOL     C1 5475   6.138   3.745   4.343  0.2620  0.7482  1.2432
    8MOL     C2 5476   6.065   3.653   4.240 -0.4634 -0.2269  0.4997
    8MOL     C3 5477   5.998   3.734   4.132 -0.8197  0.0751 -0.7062
    8MOL     C4 5478   5.905   3.637   4.053  0.1931 -0.1920  0.1900
    8MOL     O5 5479   5.981   3.524   4.003  0.0088  0.8564  0.2392
    8MOL     C6 5480   5.909   3.840   4.199 -0.3632 -0.4403 -0.4571
    8MOL     C7 5481   5.979   3.926   4.303  0.4909  0.1737 -0.1331
    8MOL     C8 5482   6.045   3.830   4.413 -0.5022  0.0978  0.0587
    8MOL     C9 5483   6.101   3.916   4.519 -0.6836  0.7871 -0.1161
    8MOL    O10 5484   6.109   3.836   4.635 -0.0327  0.2390  0.1908
    8MOL    C11 5485   6.120   3.901   4.753 -0.3586 -0.1204  0.0396
    8MOL    O12 5486   6.121   4.024   4.760 -0.0985  0.1920  0.5791
    8MOL    C13 5487   6.136   3.809   4.871  0.1590  0.4101 -0.2845
    8MOL    C14 5488   6.087   3.847   4.996  0.6710 -0.6076  0.1323
    8MOL    C15 5489   6.087   3.758   5.107  0.8691  0.4496  0.3981
    8MOL    C16 5490   6.143   3.628   5.098 -0.4428 -0.4904 -0.2280
    8MOL    C17 5491   6.144   3.536   5.217  0.3248 -0.1233 -0.0811
    8MOL    O18 5492   6.102   3.574   5.329 -0.1632 -0.7356 -0.4616
    8MOL    O19 5493   6.188   3.406   5.199  0.0991 -0.0806 -0.1136
    8MOL    C20 5494   6.203   3.594   4.969 -0.0208 -0.0500  0.2904
    8MOL    C21 5495   6.189   3.676   4.854 -0.4326  0.2953 -0.9903
    8MOL    H22 5496   6.183   3.684   4.421 -0.3688  0.5681  1.4750
    8MOL    H23 5497   6.220   3.803   4.303  0.7549 -0.4459  0.4800
    8MOL    H24 5498   6.142   3.584   4.208  1.4186  0.9982  2.2152
    8MOL    H25 5499   5.994   3.590   4.294 -1.4094  0.1107 -0.3339
    8MOL    H26 5500   6.075   3.780   4.071  1.0174  0.4395  1.8197
    8MOL    H27 5501   5.833   3.607   4.128  0.4387  0.5426  0.7294
    8MOL    H28 5502   5.853   3.688   3.972  1.4922  2.4699  0.9700
    8MOL    H29 5503   5.861   3.899   4.121 -1.6282  0.6994  1.1380
    8MOL    H30 5504   5.818   3.800   4.245  0.3113 -0.9302  0.4572
    8MOL    H31 5505   5.907   3.989   4.356  0.3482 -0.5822  0.5820
    8MOL    H32 5506   6.051   3.982   4.244  0.7780  1.5212  1.4650
    8MOL    H33 5507   5.976   3.771   4.473  1.2295 -0.4915  1.5049
    8MOL    H34 5508   6.194   3.969   4.498  0.0117 -1.4731 -2.9257
    8MOL    H35 5509   6.029   3.997   4.529 -1.7841 -0.1289 -0.5728
    8MOL    H36 5510   6.046   3.946   5.011  1.3128  0.0006 -1.8480
    8MOL    H37 5511   6.053   3.791   5.204  1.9722  0.5437  0.7664
    8MOL    H38 5512   6.246   3.497   4.954 -0.7483 -0.5071  1.0933
    8MOL    H39 5513   6.229   3.652   4.756  0.6286 -2.8906  0.1803
    8MOL    H40 5514   6.036   3.553   3.932 -3.6542  1.5109 -2.5090
    8MOL    C41 5515   6.373   2.978   5.133  0.4259 -0.2716 -0.3135
    8MOL    C42 5516   6.299   3.076   5.227 -0.1050 -0.1697 -0.2846
    8MOL    C43 5517   6.158   3.108   5.178  0.5118 -0.1854  0.7570
    8MOL    C44 5518   6.086   3.203   5.274  0.1519 -0.4413  0.3185
    8MOL    O45 5519   6.166   3.315   5.317  0.1133 -0.7714 -0.7748
    8MOL    C46 5520   6.152   3.151   5.034 -0.0130  0.2078  0.0141
    8MOL    C47 5521   6.226   3.057   4.940 -1.2796  0.6353 -0.2531
    8MOL    C48 5522   6.374   3.032   4.989  0.3124 -0.3857 -0.0078
    8MOL    C49 5523   6.458   2.943   4.899 -0.3211 -0.2165  0.0859
    8MOL    O50 5524   6.589   2.930   4.952 -0.4964  0.0123  0.2535
    8MOL    C51 5525   6.634   2.813   5.002  0.0909  0.2062 -1.0619
    8MOL    O52 5526   6.568   2.704   5.011 -0.2469 -0.3915  0.2354
    8MOL    C53 5527   6.771   2.831   5.063 -0.3046  0.4687  0.2588
    8MOL    C54 5528   6.845   2.716   5.105 -0.0214 -0.1405  0.1164
    8MOL    C55 5529   6.969   2.726   5.161 -0.3426  0.0738 -0.1132
    8MOL    C56 5530   7.033   2.853   5.170 -0.6700  0.7576 -0.1105
    8MOL    C57 5531   7.177   2.852   5.213  0.0974 -0.0210  0.6067
    8MOL    O58 5532   7.233   2.755   5.268  0.3010  0.7783 -0.0933
    8MOL    O59 5533   7.238   2.963   5.194  0.8927 -0.2024  0.1390
    8MOL    C60 5534   6.960   2.966   5.141  0.1329 -0.1093 -0.2548
    8MOL    C61 5535   6.825   2.962   5.088  0.5005  0.0554 -0.0179
    8MOL    H62 5536   6.475   2.965   5.172 -0.2070 -3.0908  0.5245
    8MOL    H63 5537   6.324   2.881   5.137  2.1930 -1.1989 -0.7094
    8MOL    H64 5538   6.292   3.039   5.329 -0.1194  1.1552  0.1995
    8MOL    H65 5539   6.359   3.167   5.223 -1.0747  0.4941  0.2533
    8MOL    H66 5540   6.106   3.013   5.187  1.2062 -0.9836 -3.0651
    8MOL    H67 5541   5.992   3.248   5.244  0.1877  0.6376  1.7707
    8MOL    H68 5542   6.074   3.168   5.376  1.1927 -1.5918  0.0570
    8MOL    H69 5543   6.051   3.155   4.993  0.3077  0.4257 -0.7776
    8MOL    H70 5544   6.191   3.253   5.026  2.0812 -0.7538 -2.7303
    8MOL    H71 5545   6.218   3.090   4.836 -0.7796 -0.9073 -0.7922
    8MOL    H72 5546   6.182   2.958   4.950  1.7444 -0.6311  1.1720
    8MOL    H73 5547   6.418   3.132   4.988  0.5362 -0.4794 -1.8298
    8MOL    H74 5548   6.410   2.846   4.888  0.6572 -0.8097  0.9717
    8MOL    H75 5549   6.461   2.981   4.797  0.8968 -1.2969 -0.2795
    8MOL    H76 5550   6.800   2.618   5.101 -1.7738  0.6044  1.0536
    8MOL    H77 5551   7.027   2.638   5.186  1.9655  1.3667 -0.7631
    8MOL    H78 5552   6.996   3.067   5.151  1.3436 -0.3684 -1.7514
    8MOL    H79 5553   6.769   3.051   5.063 -0.3986 -0.4817  0.0667
    8MOL    C80 5554   7.833   3.007   5.080 -0.6421  0.1579 -0.0141
    8MOL    C81 5555   7.690   2.987   5.034 -0.6371 -0.0429 -0.9261
    8MOL    C82 5556   7.602   2.958   5.162  0.7986  0.4475 -0.3568
    8MOL    C83 5557   7.455   2.951   5.115 -1.1537  0.0860 -0.6330
    8MOL    O84 5558   7.378   2.957   5.235  0.4991 -0.5861 -0.2724
    8MOL    C85 5559   7.650   2.831   5.222 -0.7532 -0.3657 -0.8102
    8MOL    C86 5560   7.803   2.852   5.264  0.5087 -0.1912 -0.1939
    8MOL    C87 5561   7.892   2.886   5.154 -0.6228 -0.3773 -0.5214
    8MOL    C88 5562   8.032   2.906   5.208  0.4650  0.1866  0.2340
    8MOL    O89 5563   0.048   2.792   5.272 -0.2730 -0.0388  0.0870
    8MOL    C90 5564   0.184   2.785   5.305 -0.4398 -0.2006  0.5752
    8MOL    O91 5565   0.248   2.884   5.288 -0.1823 -0.2804 -0.3353
    8MOL    C92 5566   0.228   2.658   5.368  0.2964  0.9331  0.2001
    8MOL    C93 5567   0.131   2.558   5.380 -0.6376  0.1197 -0.1861
    8MOL    C94 5568   0.168   2.443   5.448 -0.1362  0.7429 -0.4341
    8MOL    C95 5569   0.298   2.419   5.506  0.0044 -0.2047  0.2187
    8MOL    C96 5570   0.332   2.284   5.576  0.0863  0.5182 -0.3127
    8MOL    O97 5571   0.437   2.269   5.642 -0.0232 -0.3963  0.3738
    8MOL    O98 5572   0.236   2.185   5.568  0.6330 -0.1610  0.0950
    8MOL    C99 5573   0.394   2.520   5.488  0.3398  0.3497 -0.5248
    8MOL   C100 5574   0.356   2.640   5.426 -0.4411  0.3895  0.6703
    8MOL   H101 5575   7.893   3.048   4.997 -1.3382  1.0879 -0.0649
    8MOL   H102 5576   7.836   3.084   5.157 -0.4643 -0.5620  0.7011
    8MOL   H103 5577   7.645   3.075   4.987  0.0053 -0.1056 -1.6671
    8MOL   H104 5578   7.693   2.897   4.973  0.3671  0.7460 -2.0605
    8MOL   H105 5579   7.602   3.042   5.230 -1.9171  0.7615 -0.6758
    8MOL   H106 5580   7.425   3.025   5.040 -0.9065 -0.6600 -1.4737
    8MOL   H107 5581   7.433   2.855   5.069 -1.3225  0.7295 -1.9430
    8MOL   H108 5582   7.606   2.814   5.320  0.3950  1.8280  0.1371
    8MOL   H109 5583   7.641   2.746   5.154 -1.0243 -1.2855  0.3539
    8MOL   H110 5584   7.835   2.758   5.308 -1.5636 -0.4588  0.8042
    8MOL   H111 5585   7.802   2.937   5.332 -1.2222 -0.3757  0.0444
    8MOL   H112 5586   7.901   2.802   5.084 -0.7690 -2.0877  1.4620
    8MOL   H113 5587   0.062   2.923   5.122 -0.2778 -1.7737 -0.7407
    8MOL   H114 5588   8.030   2.992   5.274  2.0070  0.5568 -0.1780
    8MOL   H115 5589   0.039   2.571   5.325  0.3003 -0.9549 -2.0546
    8MOL   H116 5590   0.097   2.363   5.457  0.5353  0.4116  2.7615
    8MOL   H117 5591   0.495   2.505   5.522 -0.2781  3.0758  2.7905
    8MOL   H118 5592   0.422   2.726   5.423  1.1096 -0.8171 -0.0624
    8MOL   C119 5593   7.940   1.844   5.890 -0.4550 -0.4718  0.1014
    8MOL   C120 5594   0.011   1.942   5.889 -1.0122  0.4321  0.5008
    8MOL   C121 5595   0.094   1.939   5.755 -0.5555 -0.1074 -0.1439
    8MOL   C122 5596   0.206   2.043   5.761 -0.1677  0.4223 -0.1127
    8MOL   O123 5597   0.281   2.056   5.638  0.2934  0.5481  0.2664
    8MOL   C124 5598   0.138   1.797   5.713 -0.2931 -0.2321  0.0453
    8MOL   C125 5599   0.020   1.692   5.722  0.1959 -0.1346  0.0182
    8MOL   C126 5600   7.981   1.702   5.860 -0.0014  0.4022 -0.1533
    8MOL   C127 5601   7.864   1.598   5.878  0.3715 -1.0907 -0.3797
    8MOL   O128 5602   7.849   1.590   6.020 -0.3752 -0.3027 -0.0228
    8MOL   C129 5603   7.739   1.543   6.077  0.9722  0.0662  0.6592
    8MOL   O130 5604   7.645   1.491   6.021  0.1208 -0.3637  0.1715
    8MOL   C131 5605   7.733   1.577   6.223 -0.8942 -0.2686  0.8192
    8MOL   C132 5606   7.629   1.527   6.307 -0.0197  0.3273  0.1050
    8MOL   C133 5607   7.623   1.557   6.446 -0.6250  0.1270 -0.0914
    8MOL   C134 5608   7.714   1.648   6.504 -0.5944  0.1169 -0.4753
    8MOL   C135 5609   7.729   1.665   6.654  0.3900 -0.6508  0.1243
    8MOL   O136 5610   7.809   1.740   6.706 -0.3877 -0.0035  0.2189
    8MOL   O137 5611   7.634   1.594   6.728  0.1032 -0.5682 -0.2932
    8MOL   C138 5612   7.814   1.702   6.416 -0.0346 -0.2573 -0.5229
    8MOL   C139 5613   7.826   1.665   6.280  0.4414  0.5259 -0.3535
    8MOL   H140 5614   7.900   1.862   5.989  2.2124  1.6699  0.8279
    8MOL   H141 5615   7.865   1.876   5.817 -2.1028 -1.9955  1.0854
    8MOL   H142 5616   7.997   2.039   5.898  0.2522  1.0659  0.6221
    8MOL   H143 5617   0.080   1.937   5.973  2.6166 -1.4015 -2.4955
    8MOL   H144 5618   0.031   1.974   5.673  0.0511 -0.7271 -0.8737
    8MOL   H145 5619   0.154   2.136   5.781  0.3618  0.7882 -0.4374
    8MOL   H146 5620   0.271   2.022   5.846 -1.1966 -1.1811  0.3005
    8MOL   H147 5621   0.175   1.801   5.611 -1.5474  0.3118 -0.3964
    8MOL   H148 5622   0.214   1.763   5.784 -0.8291  0.8276  1.1556
    8MOL   H149 5623   0.056   1.589   5.718 -0.1106 -0.2366 -0.1533
    8MOL   H150 5624   7.985   1.696   5.639  0.3834 -1.6502 -0.2283
    8MOL   H151 5625   0.016   1.682   5.941 -0.3032 -0.0061  0.0127
    8MOL   H152 5626   7.776   1.642   5.831 -1.2419 -0.3375  3.2379
    8MOL   H153 5627   7.880   1.495   5.844  0.5601 -1.9489  2.2600
    8MOL   H154 5628   7.556   1.461   6.262  1.3097 -1.0862 -0.0291
    8MOL   H155 5629   7.539   1.547   6.513 -2.0736  4.0992 -1.1496
    8MOL   H156 5630   7.887   1.769   6.460  0.8980 -1.6283  0.0307
    8MOL   H157 5631   7.906   1.709   6.223  0.7200  1.9367  1.0659
    8MOL   C158 5632   7.342   1.954   6.796  0.2909 -0.7351 -0.4093
    8MOL   C159 5633   7.403   1.816   6.785 -0.1840 -0.4332 -0.3536
    8MOL   C160 5634   7.467   1.771   6.919  0.2635  0.3894  0.1910
    8MOL   C161 5635   7.521   1.626   6.928  0.3119 -0.4441 -0.6244
    8MOL   O162 5636   7.652   1.608   6.878  0.4687  0.2686  0.2931
    8MOL   C163 5637   7.570   1.875   6.966  0.4124 -0.6270 -0.3684
    8MOL   C164 5638   7.503   2.008   6.990 -0.3619  0.3081 -0.4873
    8MOL   C165 5639   7.439   2.054   6.857  0.5587  0.1073  0.1984
    8MOL   C166 5640   7.371   2.188   6.872  0.0581  0.4135  0.0248
    8MOL   O167 5641   7.449   2.281   6.933 -0.0300 -0.6101  0.2965
    8MOL   C168 5642   7.391   2.402   6.939 -0.4562  0.3379 -0.1035
    8MOL   O169 5643   7.277   2.429   6.901  0.4641  0.2263 -0.0630
    8MOL   C170 5644   7.485   2.503   6.985  0.2005  0.5625  0.6615
    8MOL   C171 5645   7.604   2.468   7.051  0.0111  0.9837 -0.6972
    8MOL   C172 5646   7.691   2.570   7.095  0.1207 -0.0193  0.7889
    8MOL   C173 5647   7.656   2.708   7.077 -0.3955  0.1666 -0.3517
    8MOL   C174 5648   7.768   2.810   7.099  0.4392 -1.2789 -0.8463
    8MOL   O175 5649   7.784   2.910   7.026 -0.2771 -0.3184  0.0395
    8MOL   O176 5650   7.843   2.768   7.200 -0.3387  0.1079 -0.5291
    8MOL   C177 5651   7.536   2.741   7.001  0.0508  0.0078 -0.2795
    8MOL   C178 5652   7.445   2.640   6.959 -0.4623  0.8418 -0.3481
    8MOL   H179 5653   7.311   1.978   6.694 -0.5472  0.0862  0.0360
    8MOL   H180 5654   7.252   1.948   6.856 -0.8844  3.2458 -1.6724
    8MOL   H181 5655   7.334   1.736   6.758 -0.4042  0.4687 -2.5631
    8MOL   H182 5656   7.485   1.814   6.714  0.9204  1.3550  0.8172
    8MOL   H183 5657   7.377   1.770   6.980 -0.0881  2.0084 -0.2853
    8MOL   H184 5658   7.539   1.600   7.033  0.3211 -1.5704 -0.9015
    8MOL   H185 5659   7.449   1.565   6.873 -2.6358  0.7034  1.7619
    8MOL   H186 5660   7.616   1.827   7.053  1.9275 -0.1155 -0.8601
    8MOL   H187 5661   7.660   1.873   6.904  1.6657  0.0484  1.3818
    8MOL   H188 5662   7.587   2.076   7.002  0.2663 -0.3942 -0.8985
    8MOL   H189 5663   7.439   2.012   7.079 -2.0725  2.2143 -1.7417
    8MOL   H190 5664   7.519   2.079   6.787  1.2686  0.6069  1.1791
    8MOL   H191 5665   7.349   2.217   6.770 -0.3199  0.8160  0.2172
    8MOL   H192 5666   7.275   2.174   6.922  0.1145 -0.4986 -0.1042
    8MOL   H193 5667   7.633   2.369   7.081  4.8148  2.8893  1.4460
    8MOL   H194 5668   7.782   2.535   7.141  0.4922 -2.3256 -1.5862
    8MOL   H195 5669   7.526   2.847   6.983  0.3132  0.8372  4.1195
    8MOL   H196 5670   7.361   2.656   6.894 -0.6149  0.1232 -0.3345
    8MOL   C197 5671   0.297   2.978   7.455 -0.2602 -0.2513 -0.0298
    8MOL   C198 5672   0.173   2.896   7.409  0.2841 -0.8518 -1.0111
    8MOL   C199 5673   0.149   2.903   7.255 -0.1516  0.2438  0.1986
    8MOL   C200 5674   0.032   2.819   7.202 -0.0602 -0.0662 -0.0143
    8MOL   O201 5675   7.943   2.874   7.242 -0.1679  0.0299 -0.1176
    8MOL   C202 5676   0.140   3.046   7.212 -0.2088 -0.1446 -0.6570
    8MOL   C203 5677   0.269   3.120   7.252 -0.2242 -0.2110  0.5043
    8MOL   C204 5678   0.283   3.122   7.405  0.3272 -0.6868 -1.0427
    8MOL   C205 5679   0.402   3.208   7.449  0.8081  0.3921 -0.1138
    8MOL   O206 5680   0.398   3.349   7.403  0.2715 -0.7400  0.2128
    8MOL   C207 5681   0.514   3.417   7.408  0.3738 -0.1225  0.1799
    8MOL   O208 5682   0.620   3.382   7.452  0.2188 -0.5897  0.1763
    8MOL   C209 5683   0.501   3.549   7.342 -0.5234 -0.6092  0.2110
    8MOL   C210 5684   0.617   3.624   7.314 -0.2393 -0.8278 -0.1438
    8MOL   C211 5685   0.598   3.756   7.260 -0.3155  0.0952 -0.3352
    8MOL   C212 5686   0.471   3.811   7.238 -0.4398  0.4803  0.2098
    8MOL   C213 5687   0.464   3.950   7.198  0.1874 -0.2113 -0.2415
    8MOL   O214 5688   0.556   4.031   7.213  0.1312  0.0143 -0.5355
    8MOL   O215 5689   0.350   3.970   7.128  0.5455  0.5003  0.3989
    8MOL   C216 5690   0.358   3.724   7.250  0.1513 -0.6024 -0.3312
    8MOL   C217 5691   0.371   3.599   7.308 -0.8441  0.1526 -0.0163
    8MOL   H218 5692   0.299   2.972   7.564  1.4670 -1.0323 -0.0902
    8MOL   H219 5693   0.386   2.924   7.423  1.0080  1.2927  0.8174
    8MOL   H220 5694   0.175   2.788   7.423 -0.6010 -0.8564 -0.8626
    8MOL   H221 5695   0.085   2.940   7.456 -0.0182 -0.9820 -1.4558
    8MOL   H222 5696   0.235   2.858   7.207  0.6380 -0.0619  1.8500
    8MOL   H223 5697   0.034   2.803   7.094  1.1466  2.1464 -0.3542
    8MOL   H224 5698   0.039   2.720   7.248 -0.4481 -0.5442 -0.9708
    8MOL   H225 5699   0.114   3.046   7.106  3.1073 -1.7652 -1.5395
    8MOL   H226 5700   0.054   3.080   7.269  1.5402  2.2225  0.6443
    8MOL   H227 5701   0.274   3.212   7.194 -0.5307  0.8992  2.2168
    8MOL   H228 5702   0.362   3.075   7.216  0.8065  2.4939 -0.3314
    8MOL   H229 5703   0.196   3.165   7.455  1.4742 -0.7432  1.0666
    8MOL   H230 5704   0.393   3.220   7.557 -1.1149  0.9553 -0.3140
    8MOL   H231 5705   0.495   3.167   7.409  0.0520  0.5868 -2.1537
    8MOL   H232 5706   0.716   3.583   7.329  0.5965  0.3365 -2.3052
    8MOL   H233 5707   0.688   3.813   7.242  0.2573  0.2726  2.9251
    8MOL   H234 5708   0.258   3.762   7.234 -0.4126 -1.7240  0.4686
    8MOL   H235 5709   0.287   3.544   7.348 -2.0572  3.3405  1.9653
    8MOL   C236 5710   0.697   4.145   6.816  0.8616 -0.3713  0.6422
    8MOL   C237 5711   0.559   4.181   6.886 -0.4566 -0.7343  0.0059
    8MOL   C238 5712   0.454   4.076   6.848  0.0634  0.3828 -0.3050
    8MOL   C239 5713   0.324   4.092   6.924 -0.2568 -0.1392 -0.1940
    8MOL   O240 5714   0.337   4.104   7.064 -0.3042 -0.2259  0.1288
    8MOL   C241 5715   0.429   4.064   6.696 -0.0768  0.2024 -0.7979
    8MOL   C242 5716   0.561   4.046   6.627  0.6707 -0.0445  0.3248
    8MOL   C243 5717   0.675   4.134   6.667 -0.0303 -0.6427  0.3558
    8MOL   C244 5718   0.810   4.099   6.601 -0.2315  0.1783 -0.0471
    8MOL   O245 5719   0.921   4.181   6.636  0.3187 -0.6440  0.8728
    8MOL   C246 5720   1.034   4.181   6.556  0.5877 -0.0725 -0.1631
    8MOL   O247 5721   1.034   4.139   6.442 -0.3121  0.2567 -0.5110
    8MOL   C248 5722   1.147   4.234   6.635 -0.1575 -0.2216 -0.2821
    8MOL   C249 5723   1.255   4.298   6.568  0.1398 -0.0418 -0.0396
    8MOL   C250 5724   1.355   4.362   6.643 -0.0540 -0.3020 -0.4451
    8MOL   C251 5725   1.347   4.361   6.785 -0.5958 -0.3527  0.2346
    8MOL   C252 5726   1.447   4.443   6.861 -0.4053  0.3029 -0.1923
    8MOL   O253 5727   1.423   4.474   6.976 -0.3356 -0.1260  0.0925
    8MOL   O254 5728   1.562   4.458   6.796  0.1345  0.2571 -0.2251
    8MOL   C255 5729   1.241   4.289   6.850 -0.4258 -0.9768 -0.6293
    8MOL   C256 5730   1.139   4.227   6.776  0.8513  0.1202  0.5566
    8MOL   H257 5731   0.777   4.216   6.837 -0.8644  1.8181  0.0100
    8MOL   H258 5732   0.717   4.045   6.856 -0.1970 -0.6557  0.4969
    8MOL   H259 5733   0.579   4.193   6.992 -1.1899 -0.3677  0.1080
    8MOL   H260 5734   0.525   4.275   6.842  2.1581  0.2146 -0.0855
    8MOL   H261 5735   0.489   3.979   6.882  1.7172  0.8515 -0.6371
    8MOL   H262 5736   0.266   4.176   6.886  1.4546 -0.2121 -3.1787
    8MOL   H263 5737   0.265   4.004   6.897 -0.2208 -0.4756  0.8090
    8MOL   H264 5738   0.368   3.976   6.682 -0.2173 -0.0784  1.4764
    8MOL   H265 5739   0.394   4.161   6.662  2.6098  1.8209  0.8048
    8MOL   H266 5740   0.549   4.077   6.523 -0.2673  0.5802  0.6157
    8MOL   H267 5741   0.594   3.943   6.642 -1.6566 -0.6906  1.1188
    8MOL   H268 5742   0.653   4.235   6.632  2.4554 -0.0243  0.4358
    8MOL   H269 5743   0.830   3.996   6.632  2.7539  0.6329 -0.3226
    8MOL   H270 5744   0.802   4.095   6.492  2.3644 -0.4150 -0.2653
    8MOL   H271 5745   1.244   4.308   6.461  2.0520 -2.7619 -0.5173
    8MOL   H272 5746   1.426   4.426   6.592  1.2926 -0.5512  1.0455
    8MOL   H273 5747   1.233   4.291   6.957 -1.0878  1.1565 -0.6879
    8MOL   H274 5748   1.062   4.169   6.823  0.0009  1.4331  0.8085
    8MOL   C275 5749   1.660   4.886   7.138 -0.4928  0.0467 -0.3384
    8MOL   C276 5750   1.593   4.808   7.023 -0.4310 -0.3061  0.0329
    8MOL   C277 5751   1.698   4.785   6.910 -0.1862 -0.8139 -0.1166
    8MOL   C278 5752   1.640   4.679   6.813  0.0471 -0.1362 -0.3203
    8MOL   O279 5753   1.658   4.552   6.869  0.3617 -0.0484  0.4351
    8MOL   C280 5754   1.735   4.921   6.857 -0.6524 -0.5134  0.1517
    8MOL   C281 5755   1.802   5.007   6.967 -0.1703  0.3885 -0.7216
    8MOL   C282 5756   1.708   5.024   7.087  1.1336 -0.4750  0.3736
    8MOL   C283 5757   1.781   5.095   7.204 -0.1809 -0.2783  0.6776
    8MOL   O284 5758   1.689   5.131   7.308  0.3338 -0.3426  0.4550
    8MOL   C285 5759   1.736   5.161   7.424  0.0582  0.2855  0.3149
    8MOL   O286 5760   1.858   5.171   7.446 -0.0240 -0.3539  0.8836
    8MOL   C287 5761   1.628   5.188   7.525 -0.7132  0.2428  0.5807
    8MOL   C288 5762   1.670   5.260   7.642  0.1317  0.2880 -1.0492
    8MOL   C289 5763   1.580   5.272   7.751  0.3394  0.1020  0.0936
    8MOL   C290 5764   1.450   5.229   7.738 -0.3934  0.0441  0.0813
    8MOL   C291 5765   1.348   5.239   7.847 -0.1968  0.1993  0.1741
    8MOL   O292 5766   1.243   5.180   7.840 -0.3296 -0.3585  0.1381
    8MOL   O293 5767   1.377   5.335   7.945 -0.3541  0.1123 -0.0584
    8MOL   C294 5768   1.405   5.176   7.616 -0.3493 -0.0980 -0.2728
    8MOL   C295 5769   1.492   5.150   7.509  0.3752 -0.4668  0.7802
    8MOL   H296 5770   1.582   4.910   7.210 -1.6865 -0.7759 -1.3251
    8MOL   H297 5771   1.732   4.827   7.194 -0.7989  0.1393  0.1593
    8MOL   H298 5772   1.571   4.708   7.062  0.7433 -0.9395 -0.8882
    8MOL   H299 5773   1.500   4.852   6.987 -0.4234  0.2250  0.6558
    8MOL   H300 5774   1.787   4.736   6.948  1.7452  1.9815 -0.9340
    8MOL   H301 5775   1.539   4.705   6.781  0.0225  0.6159  0.3465
    8MOL   H302 5776   1.702   4.688   6.723  2.0314  0.8116  1.0904
    8MOL   H303 5777   1.804   4.939   6.774 -1.9750  1.9351 -0.4879
    8MOL   H304 5778   1.649   4.969   6.810  0.6024 -0.5889 -2.3481
    8MOL   H305 5779   1.822   5.111   6.937 -0.0246  0.1693 -1.4010
    8MOL   H306 5780   1.890   4.955   7.005 -1.6998 -1.7252  0.0247
    8MOL   H307 5781   1.619   5.084   7.069  2.4333  1.4256  0.1929
    8MOL   H308 5782   1.868   5.042   7.244  0.6012  0.7171  0.3082
    8MOL   H309 5783   1.820   5.192   7.174  1.3324  0.0314  3.4814
    8MOL   H310 5784   1.774   5.288   7.645  0.3282 -0.4523 -0.7816
    8MOL   H311 5785   1.604   5.305   7.851  2.1455 -0.4393 -0.1509
    8MOL   H312 5786   1.299   5.155   7.608 -0.8778  2.5156 -0.5255
    8MOL   H313 5787   1.450   5.110   7.418 -0.4241  1.3510  0.3380
    8MOL   C314 5788   1.073   5.715   7.768  0.0850 -0.4356  0.0897
    8MOL   C315 5789   1.148   5.685   7.896  0.0388  0.6280  0.2297
    8MOL   C316 5790   1.161   5.532   7.916  0.7459  0.1581  0.1767
    8MOL   C317 5791   1.241   5.499   0.006  0.6625  0.0654 -0.3708
    8MOL   O318 5792   1.276   5.360   0.012 -0.1678  0.4428 -0.6849
    8MOL   C319 5793   1.015   5.476   7.911 -0.5582 -0.1410 -0.4118
    8MOL   C320 5794   0.948   5.492   7.773 -0.2434 -0.7086 -0.2344
    8MOL   C321 5795   0.940   5.644   7.733  0.3257  0.0712  0.0340
    8MOL   C322 5796   0.892   5.659   7.589 -0.1259  0.4935  0.9908
    8MOL   O323 5797   0.905   5.792   7.557 -0.3667 -0.0285 -0.4545
    8MOL   C324 5798   0.890   5.828   7.433  0.3687 -0.0699 -0.1725
    8MOL   O325 5799   0.850   5.750   7.349 -0.2880 -0.4904  1.1667
    8MOL   C326 5800   0.927   5.966   7.407 -0.7366 -0.7172 -0.9153
    8MOL   C327 5801   0.964   6.007   7.283 -0.5943  0.0187  0.0413
    8MOL   C328 5802   1.006   6.140   7.262 -0.3589 -0.4844 -0.0606
    8MOL   C329 5803   0.998   6.239   7.362  0.5338  0.1472  0.6561
    8MOL   C330 5804   1.035   6.380   7.334 -0.4535  0.8821  0.5483
    8MOL   O331 5805   1.022   6.472   7.415 -0.4056 -0.3404  0.0595
    8MOL   O332 5806   1.077   6.397   7.210  0.2203 -0.2250 -0.2032
    8MOL   C333 5807   0.972   6.189   7.493 -0.1069 -0.0840 -0.4123
    8MOL   C334 5808   0.935   6.058   7.519 -0.0182 -0.1638  0.0871
    8MOL   H335 5809   1.063   5.822   7.750  0.6880 -0.5601 -1.0237
    8MOL   H336 5810   1.147   5.689   7.692  0.2796 -2.6362  1.0071
    8MOL   H337 5811   1.245   5.733   7.890 -0.2217  0.8068 -4.6010
    8MOL   H338 5812   1.093   5.731   7.978  0.2731 -0.6482  1.1199
    8MOL   H339 5813   1.216   5.492   7.831 -0.6521 -1.3784 -0.0368
    8MOL   H340 5814   1.330   5.559   0.023 -0.0790  1.3410 -0.8711
    8MOL   H341 5815   1.178   5.514   0.094  0.9309 -1.1373  0.0337
    8MOL   H342 5816   1.034   5.371   7.932 -0.0695  0.3444  1.7165
    8MOL   H343 5817   0.942   5.505   7.986 -1.0183 -0.4772 -0.7304
    8MOL   H344 5818   0.857   5.432   7.769  1.0939 -2.6237 -3.0085
    8MOL   H345 5819   1.004   5.451   7.689 -1.1171  0.2142 -1.2794
    8MOL   H346 5820   0.866   5.692   7.796  0.1191  0.8685 -0.8041
    8MOL   H347 5821   0.943   5.596   7.516 -0.6178 -1.3156  2.1935
    8MOL   H348 5822   0.784   5.643   7.593 -0.7500  3.7912 -0.8655
    8MOL   H349 5823   0.977   5.940   7.200 -1.2505 -0.7457  0.5496
    8MOL   H350 5824   1.038   6.172   7.164 -1.3883  3.3020  0.7280
    8MOL   H351 5825   0.980   6.257   7.577 -0.2219  0.9091 -1.1992
    8MOL   H352 5826   0.906   6.029   7.618  1.8675 -0.6413  0.5296
    8MOL   C353 5827   1.075   6.986   7.006 -0.3661 -0.2640 -0.4120
    8MOL   C354 5828   1.006   6.856   7.055 -0.1721 -0.0176  0.4894
    8MOL   C355 5829   1.117   6.746   7.084 -0.5985  0.0281 -0.4932
    8MOL   C356 5830   1.044   6.626   7.147  0.0636  0.2658  0.0467
    8MOL   O357 5831   1.148   6.527   7.188 -0.3420 -0.3503  0.8198
    8MOL   C358 5832   1.213   6.719   6.960 -0.1407 -0.0828  0.3959
    8MOL   C359 5833   1.281   6.854   6.919  1.0349 -0.1127 -0.2694
    8MOL   C360 5834   1.170   6.965   6.890  0.3675  0.0656 -0.8757
    8MOL   C361 5835   1.232   7.091   6.825 -0.5088 -0.2964 -0.0337
    8MOL   O362 5836   1.130   7.190   6.806  0.3000  0.5560 -0.5170
    8MOL   C363 5837   1.140   7.275   6.706 -0.0069  0.0540  0.8098
    8MOL   O364 5838   1.232   7.278   6.626 -0.8614 -0.0832 -0.1076
    8MOL   C365 5839   1.011   7.359   6.702  0.2565  0.0972  0.1859
    8MOL   C366 5840   1.006   7.487   6.646  0.2278  0.1544  0.7216
    8MOL   C367 5841   0.884   7.553   6.633  0.0067 -0.0866 -0.2885
    8MOL   C368 5842   0.765   7.492   6.665 -0.6111 -0.2610  0.6633
    8MOL   C369 5843   0.643   7.567   6.633 -0.2325  0.1223 -0.2787
    8MOL   O370 5844   0.616   7.682   6.666 -0.1312 -0.6806 -0.1706
    8MOL   O371 5845   0.550   7.492   6.574 -0.2713 -0.6384  0.1633
    8MOL   C372 5846   0.762   7.359   6.708  0.0440 -0.2978  0.4708
    8MOL   C373 5847   0.885   7.295   6.738  0.2327 -0.6980  0.4623
    8MOL   H374 5848   1.005   7.069   6.990 -1.8012 -0.9662  1.9404
    8MOL   H375 5849   1.144   7.009   7.087 -2.5751  0.2640  1.3946
    8MOL   H376 5850   0.956   6.880   7.149 -1.9858  1.1861 -0.7568
    8MOL   H377 5851   0.924   6.820   6.994 -0.5613  4.1668 -1.6446
    8MOL   H378 5852   1.181   6.777   7.167 -0.9805  1.2850 -0.6598
    8MOL   H379 5853   0.975   6.659   7.225  1.0781 -0.0065  1.0896
    8MOL   H380 5854   0.992   6.588   7.060  0.5455 -0.3946  0.0403
    8MOL   H381 5855   1.285   6.643   6.992 -2.2291 -2.1304  0.4064
    8MOL   H382 5856   1.152   6.686   6.877  1.5087 -1.7082 -0.2290
    8MOL   H383 5857   1.345   6.839   6.832  1.8728 -1.6540  0.5921
    8MOL   H384 5858   1.345   6.891   7.000  1.5004 -1.0898 -0.1827
    8MOL   H385 5859   1.110   6.928   6.806 -0.9736 -0.5562  0.3366
    8MOL   H386 5860   1.312   7.124   6.892  0.7896 -0.3678 -1.5270
    8MOL   H387 5861   1.281   7.059   6.734  0.5917  0.3365  0.3252
    8MOL   H388 5862   1.097   7.536   6.615 -0.5086  0.7850 -0.4809
    8MOL   H389 5863   0.875   7.654   6.596  0.3322 -0.2680 -0.8700
    8MOL   H390 5864   0.668   7.309   6.730  0.7211 -1.1673  1.4466
    8MOL   H391 5865   0.862   7.193   6.763  0.2609 -0.9911 -0.6895
    8MOL   C392 5866   8.012   7.442   6.534  0.0469 -0.9628 -0.0494
    8MOL   C393 5867   0.124   7.429   6.544 -0.2161 -0.1690 -0.0412
    8MOL   C394 5868   0.181   7.514   6.651  0.2830  0.4072  0.1316
    8MOL   C395 5869   0.332   7.480   6.670 -0.0557  0.7147 -0.2652
    8MOL   O396 5870   0.405   7.547   6.563 -0.3858  0.2995 -0.0514
    8MOL   C397 5871   0.152   7.660   6.619  0.1224 -0.5135 -0.1207
    8MOL   C398 5872   0.000   7.688   6.623  0.3880 -0.2783  0.2495
    8MOL   C399 5873   7.964   7.592   6.519 -0.5182  0.2312 -0.0007
    8MOL   C400 5874   7.815   7.603   6.544  0.1190  0.1221  0.9186
    8MOL   O401 5875   7.742   7.515   6.459 -0.3953 -0.0458  0.0502
    8MOL   C402 5876   7.611   7.543   6.442  0.5582  0.3144  0.2655
    8MOL   O403 5877   7.554   7.633   6.503  0.2322  0.6280 -0.5004
    8MOL   C404 5878   7.540   7.435   6.362  0.0013  0.3677 -0.1952
    8MOL   C405 5879   7.406   7.452   6.326  0.0298 -0.1472 -0.5959
    8MOL   C406 5880   7.334   7.360   6.255  0.4815 -0.3141 -0.1365
    8MOL   C407 5881   7.393   7.239   6.209  0.2122 -0.6661  0.3650
    8MOL   C408 5882   7.309   7.138   6.133 -0.3609 -0.3600 -0.1132
    8MOL   O409 5883   7.189   7.143   6.133  0.3109  0.2833 -0.3669
    8MOL   O410 5884   7.386   7.041   6.078 -0.1254 -0.3622 -0.9117
    8MOL   C411 5885   7.531   7.218   6.239 -0.0193 -0.2899 -0.5719
    8MOL   C412 5886   7.604   7.318   6.312 -0.1347 -0.3339 -0.4249
    8MOL   H413 5887   7.966   7.378   6.459 -1.1006 -1.9261  1.4171
    8MOL   H414 5888   7.988   7.406   6.635  2.1434  1.1958  1.2627
    8MOL   H415 5889   0.151   7.325   6.564 -0.6364 -0.4618 -1.0024
    8MOL   H416 5890   0.167   7.446   6.446  0.7300  1.2796  0.6055
    8MOL   H417 5891   0.130   7.487   6.743 -0.0060 -0.8442 -0.3914
    8MOL   H418 5892   0.362   7.530   6.762  0.4674 -1.0568  0.5297
    8MOL   H419 5893   0.353   7.374   6.680  2.8301  1.4626  2.4798
    8MOL   H420 5894   0.205   7.716   6.697 -1.9560 -0.2071  1.1047
    8MOL   H421 5895   0.190   7.695   6.523  0.7193 -0.2841  0.2000
    8MOL   H422 5896   8.020   7.795   6.608 -1.0663 -0.2129  1.9677
    8MOL   H423 5897   8.014   7.677   6.730  0.7795  0.0262  0.3647
    8MOL   H424 5898   7.981   7.625   6.417  0.4456 -1.8961 -0.5576
    8MOL   H425 5899   7.793   7.587   6.650 -0.8858  1.7475  0.9766
    8MOL   H426 5900   7.785   7.707   6.529  1.4970  0.9937  3.8061
    8MOL   H427 5901   7.353   7.533   6.375  2.0186 -0.2555  1.8491
    8MOL   H428 5902   7.227   7.367   6.240 -0.1288 -2.6825  2.5969
    8MOL   H429 5903   7.582   7.133   6.198  0.1429  0.4437 -1.9234
    8MOL   H430 5904   7.708   7.306   6.338 -1.0711  0.7860  4.3066
    8MOL   C431 5905   6.984   6.794   5.778  0.1901 -0.4366  0.4708
    8MOL   C432 5906   7.081   6.864   5.862 -0.2613 -0.6664 -0.0141
    8MOL   C433 5907   7.173   6.767   5.940 -0.0502  0.5013  0.0186
    8MOL   C434 5908   7.276   6.834   6.037 -0.0656  0.0182  0.0264
    8MOL   O435 5909   7.323   6.954   5.978 -0.4673 -0.2253 -0.2034
    8MOL   C436 5910   7.093   6.656   6.019  0.2342 -0.2414  0.4510
    8MOL   C437 5911   6.979   6.597   5.928 -0.3165  1.0555 -0.5797
    8MOL   C438 5912   6.892   6.697   5.858 -0.7607  0.6685  0.1388
    8MOL   C439 5913   6.779   6.643   5.771 -0.1532  0.2674 -0.2077
    8MOL   O440 5914   6.689   6.579   5.861 -0.2183 -0.5693  0.2136
    8MOL   C441 5915   6.593   6.507   5.806  0.3858 -0.2774  0.7742
    8MOL   O442 5916   6.590   6.469   5.690 -0.3979  0.0762  0.7702
    8MOL   C443 5917   6.487   6.476   5.909 -0.8174 -0.1622 -0.7001
    8MOL   C444 5918   6.413   6.361   5.895  0.4854  0.1710 -0.3176
    8MOL   C445 5919   6.317   6.335   5.992  0.7867  0.0323  0.1439
    8MOL   C446 5920   6.291   6.425   6.099 -0.2973 -0.2238 -0.5288
    8MOL   C447 5921   6.182   6.398   6.196  0.1485 -0.4636 -0.2116
    8MOL   O448 5922   6.153   6.480   6.283  0.1277 -0.2916  0.0487
    8MOL   O449 5923   6.125   6.279   6.183 -0.7219  0.2085  0.4124
    8MOL   C450 5924   6.355   6.553   6.103  0.6514  0.5644 -0.6151
    8MOL   C451 5925   6.458   6.573   6.009  0.3214 -0.4352  0.7068
    8MOL   H452 5926   6.929   6.868   5.719 -1.3941  0.0173  2.4644
    8MOL   H453 5927   7.037   6.733   5.705  1.5666  0.0781  1.0216
    8MOL   H454 5928   7.142   6.924   5.795 -0.5721 -0.2978  0.0315
    8MOL   H455 5929   7.024   6.927   5.930 -1.7470 -1.2296 -0.6960
    8MOL   H456 5930   7.237   6.718   5.867  3.7797  0.0243  3.5090
    8MOL   H457 5931   7.235   6.857   6.135 -1.4685 -0.0589 -0.5345
    8MOL   H458 5932   7.355   6.762   6.059  1.2143  1.8587  1.5958
    8MOL   H459 5933   7.171   6.588   6.052  3.0225  1.9369 -1.4525
    8MOL   H460 5934   7.049   6.702   6.107  1.1484 -2.5688  2.1438
    8MOL   H461 5935   6.913   6.536   5.989 -0.2568  0.0402 -1.5269
    8MOL   H462 5936   7.018   6.532   5.851  2.5194  0.9429  0.8724
    8MOL   H463 5937   6.853   6.753   5.943  0.9646  3.4504 -0.8408
    8MOL   H464 5938   6.725   6.726   5.724 -2.0421 -1.9370 -2.0930
    8MOL   H465 5939   6.825   6.577   5.697  0.3740 -1.0200  1.2643
    8MOL   H466 5940   6.436   6.294   5.813  0.5786  0.8314 -0.8380
    8MOL   H467 5941   6.259   6.245   5.976  0.0434  0.6450 -0.5887
    8MOL   H468 5942   6.331   6.627   6.178 -0.4822  0.9353 -1.3348
    8MOL   H469 5943   6.506   6.669   6.018  0.5954 -0.4141 -0.8701
    8MOL   C470 5944   5.711   6.240   6.598 -0.3122  0.4406  0.3108
    8MOL   C471 5945   5.800   6.294   6.490 -0.6213  0.1916 -0.3253
    8MOL   C472 5946   5.816   6.219   6.364 -0.3325  0.2410 -0.1363
    8MOL   C473 5947   5.912   6.267   6.256  0.5583 -0.1833 -0.3623
    8MOL   O474 5948   6.042   6.242   6.297  0.3917 -0.5166 -0.2670
    8MOL   C475 5949   5.843   6.066   6.405  0.3072  0.6047  0.0549
    8MOL   C476 5950   5.743   6.011   6.508 -0.4794  0.5929  0.1798
    8MOL   C477 5951   5.742   6.088   6.634 -0.3782 -0.9047 -0.7892
    8MOL   C478 5952   5.656   6.026   6.742  0.2707  0.9725 -0.0323
    8MOL   O479 5953   5.730   5.917   6.803  0.2681  0.2931  0.1557
    8MOL   C480 5954   5.716   5.784   6.772  0.4558  0.3183 -0.2972
    8MOL   O481 5955   5.659   5.741   6.672 -0.3892 -0.7031  0.2519
    8MOL   C482 5956   5.793   5.690   6.863 -0.1968 -0.2321  0.1849
    8MOL   C483 5957   5.799   5.550   6.848  0.0884 -0.6422 -0.4255
    8MOL   C484 5958   5.859   5.468   6.938  0.4818  0.3868 -0.6606
    8MOL   C485 5959   5.931   5.528   7.048 -0.2059 -0.5442  0.4906
    8MOL   C486 5960   6.001   5.448   7.155 -0.1704 -0.4254 -0.6275
    8MOL   O487 5961   6.051   5.504   7.252 -0.2078  0.0613 -0.2529
    8MOL   O488 5962   6.006   5.315   7.137 -0.3586 -0.5298 -0.2643
    8MOL   C489 5963   5.925   5.671   7.069  0.1623 -0.0259 -0.0961
    8MOL   C490 5964   5.854   5.753   6.979  0.0467  0.3982  0.1420
    8MOL   H491 5965   5.735   6.295   6.689  1.3461 -0.3005  0.3313
    8MOL   H492 5966   5.606   6.246   6.569 -1.0867 -0.8640  2.6726
    8MOL   H493 5967   5.783   6.393   6.448  2.7842  1.4202  0.9723
    8MOL   H494 5968   5.901   6.297   6.532 -0.2094 -1.1741 -1.1842
    8MOL   H495 5969   5.714   6.219   6.326 -1.0226  3.2119  1.5600
    8MOL   H496 5970   5.872   6.218   6.168 -3.5258  2.1966  0.0616
    8MOL   H497 5971   5.903   6.374   6.240  0.7376  0.0099  0.7923
    8MOL   H498 5972   5.846   5.997   6.320  1.4265 -0.6218  1.0623
    8MOL   H499 5973   5.945   6.059   6.442 -0.3325 -0.6230  1.6266
    8MOL   H500 5974   5.758   5.904   6.521 -1.2872  0.4971  0.3471
    8MOL   H501 5975   5.642   6.017   6.469 -0.5685  1.0081  0.4806
    8MOL   H502 5976   5.845   6.085   6.671 -0.5681 -0.5069 -0.2317
    8MOL   H503 5977   5.644   6.101   6.820  0.5569  0.2810  0.6946
    8MOL   H504 5978   5.557   5.997   6.708 -0.3221  1.4047  1.3213
    8MOL   H505 5979   5.746   5.505   6.765 -2.0476  1.2955 -0.1704
    8MOL   H506 5980   5.862   5.360   6.927  0.4632  0.3514 -0.3283
    8MOL   H507 5981   5.975   5.713   7.155  0.9961 -2.8020  0.8164
    8MOL   H508 5982   5.844   5.860   6.988 -0.0985  0.3987 -0.0352
    8MOL   C509 5983   6.455   5.105   7.410  0.5169 -0.0318  0.4112
    8MOL   C510 5984   6.318   5.106   7.337 -0.3569 -0.2536 -0.7905
    8MOL   C511 5985   6.337   5.200   7.213 -0.4960  0.4864  0.3664
    8MOL   C512 5986   6.206   5.202   7.127 -0.1394  0.4852 -0.9840
    8MOL   O513 5987   6.101   5.242   7.221 -0.1994  0.7119  0.5957
    8MOL   C514 5988   6.382   5.344   7.244  0.2467 -0.0701 -1.0694
    8MOL   C515 5989   6.509   5.333   7.321 -0.5643 -0.5097 -0.3463
    8MOL   C516 5990   6.501   5.247   7.450  0.1242  0.2740 -0.1161
    8MOL   C517 5991   6.631   5.238   7.539 -0.0636 -0.3058  0.4668
    8MOL   O518 5992   6.728   5.182   7.469 -0.2224  0.0919  0.4886
    8MOL   C519 5993   6.836   5.246   7.431 -1.0177 -0.1579 -0.1229
    8MOL   O520 5994   6.846   5.369   7.414  0.0821 -0.7744 -0.3814
    8MOL   C521 5995   6.957   5.153   7.417 -0.7836 -0.5343 -0.0264
    8MOL   C522 5996   7.081   5.202   7.369 -0.5600  0.3309  0.1004
    8MOL   C523 5997   7.190   5.112   7.360 -0.1892  0.1708 -0.2272
    8MOL   C524 5998   7.173   4.968   7.381  0.6693  0.1732 -1.0652
    8MOL   C525 5999   7.282   4.866   7.352  0.0769 -0.6142  0.1525
    8MOL   O526 6000   7.290   4.746   7.395 -0.3324  0.0644 -0.1503
    8MOL   O527 6001   7.381   4.922   7.276 -0.2392 -0.2263 -0.1959
    8MOL   C528 6002   7.047   4.923   7.427 -0.4449 -0.0859 -0.4645
    8MOL   C529 6003   6.944   5.012   7.441  0.2548 -0.3754 -0.1974
    8MOL   H530 6004   6.445   5.041   7.497 -2.3360  1.6867  1.4327
    8MOL   H531 6005   6.533   5.044   7.365 -0.8654 -0.7198 -1.1294
    8MOL   H532 6006   6.296   5.008   7.296  4.2838 -0.8558 -2.1168
    8MOL   H533 6007   6.247   5.132   7.415  0.5336  2.4550 -0.8160
    8MOL   H534 6008   6.410   5.151   7.149  1.2998  0.0342  2.7298
    8MOL   H535 6009   6.226   5.260   7.037  2.2766  0.4527 -0.5079
    8MOL   H536 6010   6.189   5.100   7.093  0.5119  0.0883 -0.1324
    8MOL   H537 6011   6.396   5.410   7.158  1.9596 -0.7678 -1.3634
    8MOL   H538 6012   6.305   5.391   7.304  0.5002 -1.6292  0.4916
    8MOL   H539 6013   6.548   5.430   7.352 -0.6959 -0.9963  1.4226
    8MOL   H540 6014   6.579   5.285   7.253  0.5629 -0.0378  0.4576
    8MOL   H541 6015   6.427   5.287   7.520 -0.4714  2.6302 -2.0377
    8MOL   H542 6016   6.657   5.333   7.586  1.4872 -1.2085  1.4423
    8MOL   H543 6017   6.615   5.182   7.631  0.5645 -1.6093 -0.1960
    8MOL   H544 6018   7.102   5.306   7.352  1.1155  0.0966  0.6579
    8MOL   H545 6019   7.288   5.154   7.345 -0.9702  2.7920  1.7624
    8MOL   H546 6020   7.019   4.821   7.445 -0.9066  0.1427  0.1590
    8MOL   H547 6021   6.851   4.974   7.480  0.6661  0.1626  1.3328
    8MOL   C548 6022   7.815   4.586   7.062  0.5535 -0.2808 -0.2660
    8MOL   C549 6023   7.716   4.701   7.091 -0.1185  0.5737  0.5753
    8MOL   C550 6024   7.569   4.654   7.094 -0.1447  0.2081 -0.4805
    8MOL   C551 6025   7.475   4.776   7.120  0.1055 -0.6778 -0.4514
    8MOL   O552 6026   7.488   4.830   7.250  0.4485 -0.4468  0.5489
    8MOL   C553 6027   7.539   4.569   6.966  0.4004 -0.5505 -0.0668
    8MOL   C554 6028   7.642   4.459   6.938 -0.5778 -0.2239  0.1015
    8MOL   C555 6029   7.781   4.522   6.925 -0.5221  0.3968  0.5608
    8MOL   C556 6030   7.885   4.414   6.900 -0.3904 -0.2238  0.3445
    8MOL   O557 6031   7.887   4.309   6.996  0.2166  0.6565  0.6274
    8MOL   C558 6032   7.958   4.199   6.964 -0.5707  0.3863 -0.1827
    8MOL   O559 6033   7.997   4.172   6.852 -0.3367  0.3126  0.0800
    8MOL   C560 6034   7.978   4.119   7.085 -0.2424 -0.4963 -0.0244
    8MOL   C561 6035   8.033   3.982   7.070 -0.7938  0.0435  0.1345
    8MOL   C562 6036   0.022   3.903   7.184 -0.1559 -1.0252 -0.1034
    8MOL   C563 6037   8.031   3.947   7.315 -0.2900  0.3402 -0.2642
    8MOL   C564 6038   0.003   3.853   7.428 -0.7146  0.1158  0.1408
    8MOL   O565 6039   0.066   3.745   7.426  0.0866 -0.6622  0.0637
    8MOL   O566 6040   7.968   3.895   7.539  0.8318  0.1243  0.2391
    8MOL   C567 6041   7.982   4.082   7.325 -0.4523  0.0727 -0.0124
    8MOL   C568 6042   7.957   4.170   7.216  0.0716 -0.1271  0.4814
    8MOL   H569 6043   7.911   4.636   7.056  1.7092 -1.9773  2.4741
    8MOL   H570 6044   7.817   4.514   7.145  0.0111 -1.0759 -0.9298
    8MOL   H571 6045   7.746   4.743   7.187 -0.7914 -1.8674  1.8926
    8MOL   H572 6046   7.721   4.774   7.010 -2.4378 -1.3727 -1.3726
    8MOL   H573 6047   7.571   4.593   7.185 -2.4319 -2.0224 -1.8646
    8MOL   H574 6048   7.494   4.855   7.048  0.3200  0.6988  1.0890
    8MOL   H575 6049   7.369   4.751   7.116 -0.1545  0.3916 -0.4213
    8MOL   H576 6050   7.443   4.517   6.963  0.6406 -0.9472 -1.8328
    8MOL   H577 6051   7.550   4.640   6.884  0.9700  0.8296  1.1817
    8MOL   H578 6052   7.615   4.403   6.848  2.0114 -3.0671  1.0101
    8MOL   H579 6053   7.651   4.379   7.011  0.3178 -0.1865  0.0358
    8MOL   H580 6054   7.785   4.593   6.842 -3.1626 -0.8032 -0.6631
    8MOL   H581 6055   7.874   4.366   6.803 -0.0456  3.0033 -1.3516
    8MOL   H582 6056   7.979   4.468   6.901 -0.4694 -0.0443  2.8441
    8MOL   H583 6057   0.020   3.942   6.973 -0.0184  0.5319  0.1092
    8MOL   H584 6058   0.058   3.802   7.168 -0.3515 -1.0613 -0.3185
    8MOL   H585 6059   7.954   4.123   7.421  1.7447 -0.7503  0.9962
    8MOL   H586 6060   7.927   4.273   7.226 -1.1553 -0.1968 -2.1329
    8MOL   C587 6061   7.742   3.971   8.014 -0.1016  0.2980  0.0466
    8MOL   C588 6062   7.841   3.903   7.914 -0.0847 -0.2946  0.2793
    8MOL   C589 6063   7.912   4.008   7.828 -0.0673  0.2197 -0.8828
    8MOL   C590 6064   8.035   3.941   7.755 -0.7831 -0.7096 -0.9589
    8MOL   O591 6065   8.004   3.835   7.668 -0.1539 -0.2235 -0.0521
    8MOL   C592 6066   7.808   4.086   7.740 -0.6268 -0.7390  0.7587
    8MOL   C593 6067   7.718   4.161   7.838 -0.2375  0.5383  0.5293
    8MOL   C594 6068   7.647   4.068   7.935  0.8163  0.0440 -0.5868
    8MOL   C595 6069   7.560   4.151   0.005 -0.4584 -0.6772  0.4997
    8MOL   O596 6070   7.464   4.229   7.973 -0.7114 -0.0206 -1.0793
    8MOL   C597 6071   7.404   4.319   0.011  0.4086 -0.0401 -0.1414
    8MOL   O598 6072   7.427   4.345   0.130 -0.1638  0.2789  1.0810
    8MOL   C599 6073   7.297   4.393   7.974 -0.4207  0.4418 -0.1551
    8MOL   C600 6074   7.297   4.395   7.836  0.0847  0.0445 -0.0272
    8MOL   C601 6075   7.203   4.474   7.765 -0.2052 -0.8753  0.0730
    8MOL   C602 6076   7.109   4.554   7.840  0.7631  0.2255  0.0527
    8MOL   C603 6077   7.019   4.645   7.758 -0.1177  0.1755 -0.8118
    8MOL   O604 6078   7.006   4.644   7.636  0.1495 -0.0275  0.1693
    8MOL   O605 6079   6.948   4.728   7.832  0.6209 -0.1543  0.4022
    8MOL   C606 6080   7.095   4.541   7.976 -0.4448  0.6797 -0.3631
    8MOL   C607 6081   7.196   4.464   0.006  0.3675  0.5960 -0.5391
    8MOL   H608 6082   7.687   3.896   0.035  0.1481 -0.3118 -0.5192
    8MOL   H609 6083   7.784   4.027   0.063  0.4102 -0.1496  0.0907
    8MOL   H610 6084   7.915   3.850   7.973  0.6632 -1.1034 -1.3685
    8MOL   H611 6085   7.801   3.825   7.850  0.5042  0.5537 -1.1476
    8MOL   H612 6086   7.946   4.078   7.905 -0.4091 -0.2479 -0.3012
    8MOL   H613 6087   0.068   4.007   7.701 -0.8135  1.1137  1.1528
    8MOL   H614 6088   0.061   3.912   7.840 -1.0201 -0.7572 -0.8045
    8MOL   H615 6089   7.865   4.148   7.671 -1.2043 -1.9704 -0.8411
    8MOL   H616 6090   7.748   4.025   7.673  0.0760  1.0329 -1.5402
    8MOL   H617 6091   7.642   4.215   7.783  0.6337  1.3266  0.0775
    8MOL   H618 6092   7.760   4.244   7.894  1.0246  0.4478 -0.2486
    8MOL   H619 6093   7.577   4.001   7.886  0.7450 -0.7807  0.6293
    8MOL   H620 6094   7.503   4.097   0.080 -0.3083 -0.4126  0.8065
    8MOL   H621 6095   7.633   4.197   0.071  0.0693 -2.1406  0.9456
    8MOL   H622 6096   7.371   4.339   7.781  1.6571  2.1150 -0.1092
    8MOL   H623 6097   7.204   4.467   7.657  2.2786 -1.5532  0.1201
    8MOL   H624 6098   7.023   4.597   8.034 -0.7787 -1.4107  1.3107
    8MOL   H625 6099   7.205   4.466   0.114 -1.4781 -0.1928 -0.3543
    8MOL   C626 6100   6.476   4.836   8.024 -0.5084 -0.2765  0.0683
    8MOL   C627 6101   6.552   4.881   7.902 -0.1606 -0.5347  0.4087
    8MOL   C628 6102   6.699   4.827   7.910 -0.9681 -0.2079 -0.9569
    8MOL   C629 6103   6.769   4.872   7.780 -0.5708 -0.7022  0.0087
    8MOL   O630 6104   6.908   4.859   7.767 -0.3545  0.6025 -0.0610
    8MOL   C631 6105   6.771   4.870   0.002  0.0085 -0.4527 -0.6996
    8MOL   C632 6106   6.694   4.827   0.127  0.4767 -0.3274  0.1341
    8MOL   C633 6107   6.544   4.882   0.125  0.4211  0.2728  0.1323
    8MOL   C634 6108   6.459   4.838   0.240 -0.3795  0.1136 -0.4395
    8MOL   O635 6109   6.493   4.916   0.355 -0.0797 -0.1405  0.0479
    8MOL   C636 6110   6.555   4.853   0.465 -0.1190 -0.2953  0.4398
    8MOL   O637 6111   6.585   4.734   0.468  0.2280 -0.0832  0.2739
    8MOL   C638 6112   6.581   4.946   0.579  0.0574  0.0047 -0.1100
    8MOL   C639 6113   6.618   4.893   0.705 -0.0194 -0.4604 -0.4899
    8MOL   C640 6114   6.640   4.983   0.815 -0.3860 -0.3537  0.9832
    8MOL   C641 6115   6.632   5.124   0.787 -0.7603 -0.2108 -0.1066
    8MOL   C642 6116   6.674   5.229   0.887 -0.2910 -0.5244 -0.4253
    8MOL   O643 6117   6.645   5.346   0.878  0.0262  0.0241 -0.2561
    8MOL   O644 6118   6.747   5.177   0.981  0.4488 -0.2933  0.2863
    8MOL   C645 6119   6.600   5.171   0.662 -0.4199 -0.0866  0.1209
    8MOL   C646 6120   6.576   5.086   0.554 -0.1811 -0.0037 -0.7167
    8MOL   H647 6121   6.378   4.883   8.022  1.0823  3.1936  0.0389
    8MOL   H648 6122   6.451   4.730   8.021 -2.8000  0.1475  2.2355
    8MOL   H649 6123   6.503   4.847   7.811  1.1539 -1.7674  0.1507
    8MOL   H650 6124   6.545   4.990   7.901  1.6029 -0.3791  2.0302
    8MOL   H651 6125   6.692   4.718   7.905 -0.8454 -0.2758  0.2456
    8MOL   H652 6126   6.733   4.816   7.693  0.8585  0.6437 -1.4727
    8MOL   H653 6127   6.752   4.978   7.765 -2.1581 -0.9498 -0.0362
    8MOL   H654 6128   6.875   4.839   0.013  0.3863  0.8570 -0.4990
    8MOL   H655 6129   6.781   4.978   0.001  1.4509 -0.5451  1.5283
    8MOL   H656 6130   6.745   4.863   0.217  1.7477 -1.1145 -0.2617
    8MOL   H657 6131   6.686   4.719   0.139  0.5377 -0.5395 -1.6559
    8MOL   H658 6132   6.555   4.991   0.126 -2.4910  0.5995  0.7832
    8MOL   H659 6133   6.355   4.859   0.215 -0.6651 -2.5072 -1.6705
    8MOL   H660 6134   6.473   4.731   0.259  0.5844  0.3130 -0.0345
    8MOL   H661 6135   6.603   4.788   0.725 -0.4332 -1.0267 -3.5411
    8MOL   H662 6136   6.674   4.951   0.913  0.0130  1.3525  1.4135
    8MOL   H663 6137   6.585   5.277   0.648  0.1115  0.0938  0.8989
    8MOL   H664 6138   6.538   5.123   0.460  2.1227  1.2786 -1.1877
    8MOL   C665 6139   7.133   5.525   1.332  0.4175  0.1215 -0.7471
    8MOL   C666 6140   7.085   5.432   1.213  0.0763 -0.3776  0.1071
    8MOL   C667 6141   6.945   5.382   1.237  0.5472  0.0178  0.2332
    8MOL   C668 6142   6.898   5.301   1.112  0.6784  0.0955 -0.7870
    8MOL   O669 6143   6.760   5.272   1.093 -0.7271  0.4053 -0.0170
    8MOL   C670 6144   6.949   5.292   1.362 -0.5769 -0.2037  0.7839
    8MOL   C671 6145   6.988   5.379   1.486 -0.6386 -0.8247  0.4555
    8MOL   C672 6146   7.128   5.445   1.469  0.1760 -0.2085  0.1884
    8MOL   C673 6147   7.168   5.529   1.590  0.3328 -0.0432 -0.3969
    8MOL   O674 6148   7.166   5.462   1.717 -0.3165 -0.1955  0.6810
    8MOL   C675 6149   7.285   5.413   1.757  0.4606  0.4398  0.3434
    8MOL   O676 6150   7.389   5.433   1.693 -0.5110 -0.4686  0.4649
    8MOL   C677 6151   7.271   5.344   1.895 -0.1915 -0.2999 -0.2520
    8MOL   C678 6152   7.381   5.332   1.976 -0.4213  0.0556  0.0914
    8MOL   C679 6153   7.378   5.251   2.092  0.6117  0.5381  0.0954
    8MOL   C680 6154   7.258   5.196   2.140  0.3278  0.1030 -0.1229
    8MOL   C681 6155   7.251   5.100   2.254  0.3897  0.3902  0.4830
    8MOL   O682 6156   7.349   5.063   2.312  1.2872 -0.3562  0.3953
    8MOL   O683 6157   7.129   5.057   2.279  0.0658 -0.4589  0.7654
    8MOL   C684 6158   7.142   5.217   2.057  0.8241  0.1089  0.2180
    8MOL   C685 6159   7.143   5.292   1.938  0.4252 -0.2950 -0.3237
    8MOL   H686 6160   7.229   5.574   1.313  1.0570 -1.3802 -1.5058
    8MOL   H687 6161   7.060   5.605   1.332 -0.9468 -1.1055 -0.8065
    8MOL   H688 6162   7.082   5.485   1.118  1.5525 -1.8491 -0.7873
    8MOL   H689 6163   7.162   5.361   1.183  1.1471  0.7063  0.2695
    8MOL   H690 6164   6.883   5.470   1.252  0.0706 -0.1208 -0.8733
    8MOL   H691 6165   6.932   5.352   1.022  1.9594  0.7091  0.0274
    8MOL   H692 6166   6.950   5.206   1.126 -0.5950 -0.3788  0.7889
    8MOL   H693 6167   6.847   5.257   1.376 -0.5219 -0.0142  1.7284
    8MOL   H694 6168   7.026   5.216   1.353  0.2527  0.7533 -0.3807
    8MOL   H695 6169   6.995   5.314   1.572 -1.2814  0.8698  1.8098
    8MOL   H696 6170   6.911   5.454   1.500 -0.7996 -0.7704 -0.6748
    8MOL   H697 6171   7.208   5.371   1.459  1.0112  0.1930  3.3868
    8MOL   H698 6172   7.266   5.569   1.564  1.9959 -1.8894  2.7583
    8MOL   H699 6173   7.097   5.613   1.588  0.5729  0.1641 -0.2622
    8MOL   H700 6174   7.473   5.369   1.934  0.4132 -1.7121  0.3733
    8MOL   H701 6175   7.471   5.231   2.143  2.4989  2.4442 -2.4803
    8MOL   H702 6176   7.046   5.178   2.089 -0.3657  1.6980 -1.2789
    8MOL   H703 6177   7.057   5.301   1.873  1.0400 -1.4901 -1.3258
    8MOL   C704 6178   7.160   4.587   2.595 -0.5896 -0.3688  0.0894
    8MOL   C705 6179   7.183   4.702   2.504  0.0623 -1.0315 -0.7977
    8MOL   C706 6180   7.108   4.692   2.375 -0.3421  0.1083  0.5433
    8MOL   C707 6181   7.143   4.817   2.290  0.7322  0.1767  0.6283
    8MOL   O708 6182   7.108   4.933   2.361 -0.4451  0.4476 -0.3289
    8MOL   C709 6183   7.136   4.556   2.299 -0.2515 -0.4190 -0.5284
    8MOL   C710 6184   7.112   4.438   2.390  0.2658  0.4740 -1.2060
    8MOL   C711 6185   7.193   4.459   2.525  0.3425  0.0726  0.1797
    8MOL   C712 6186   7.178   4.338   2.615  0.0688  0.3950  0.1485
    8MOL   O713 6187   7.045   4.327   2.666  0.0149 -0.0652  0.2650
    8MOL   C714 6188   6.960   4.231   2.624 -0.3741  0.3635 -0.3525
    8MOL   O715 6189   6.986   4.153   2.526 -0.0443  0.0328 -0.0714
    8MOL   C716 6190   6.832   4.247   2.693  0.5926 -0.0685  0.2885
    8MOL   C717 6191   6.730   4.174   2.642  0.5562  0.0840  0.5758
    8MOL   C718 6192   6.593   4.191   2.688  0.4429  0.5647  0.2007
    8MOL   C719 6193   6.575   4.270   2.804 -0.2758  0.0954 -0.3365
    8MOL   C720 6194   6.439   4.290   2.853  0.2753  0.3054  0.0046
    8MOL   O721 6195   6.402   4.394   2.908  0.2723 -0.2691 -0.1903
    8MOL   O722 6196   6.348   4.193   2.806 -0.2403 -0.1147  0.4044
    8MOL   C723 6197   6.686   4.344   2.853  0.2768 -0.4200 -0.2980
    8MOL   C724 6198   6.817   4.333   2.800 -0.0748  0.5040  0.0953
    8MOL   H725 6199   7.232   4.586   2.677  1.1592 -1.3693 -1.4143
    8MOL   H726 6200   7.059   4.575   2.633 -1.1163  2.0499 -0.4760
    8MOL   H727 6201   7.158   4.794   2.557  0.8332 -0.2335 -1.7778
    8MOL   H728 6202   7.288   4.717   2.479  0.4340  0.3548  1.4624
    8MOL   H729 6203   6.999   4.695   2.377 -0.4326 -0.2990 -1.8060
    8MOL   H730 6204   7.242   4.824   2.245  1.2778 -2.9619  1.2454
    8MOL   H731 6205   7.089   4.813   2.195 -1.9185  1.8454  1.9920
    8MOL   H732 6206   7.073   4.553   2.211 -1.6381 -0.4460  0.4520
    8MOL   H733 6207   7.235   4.540   2.256  0.0180  0.4510 -0.2538
    8MOL   H734 6208   7.135   4.340   2.349 -1.6742 -1.3880  2.0346
    8MOL   H735 6209   7.006   4.438   2.412  0.4171 -0.5111 -0.4654
    8MOL   H736 6210   7.301   4.471   2.515  0.1584  1.0725 -0.7755
    8MOL   H737 6211   7.204   4.256   2.548 -1.5137 -0.9451  1.1516
    8MOL   H738 6212   7.258   4.336   2.689  1.0564  0.3162 -0.9069
    8MOL   H739 6213   6.743   4.110   2.556 -0.0862  0.4288  0.2183
    8MOL   H740 6214   6.519   4.138   2.630  1.1091 -1.8068  1.4573
    8MOL   H741 6215   6.673   4.399   2.946 -0.5512 -0.0070 -0.6446
    8MOL   H742 6216   6.901   4.387   2.842 -1.3949  0.3171  3.0684
    8MOL   C743 6217   5.818   4.472   2.649  0.4410 -0.0203 -0.0179
    8MOL   C744 6218   5.958   4.437   2.616 -0.4773  0.4441  0.0839
    8MOL   C745 6219   6.020   4.368   2.741 -0.3578 -0.1148  0.2410
    8MOL   C746 6220   6.153   4.304   2.708  0.7460  0.8030  0.0046
    8MOL   O747 6221   6.198   4.234   2.821  0.2925  0.2912 -0.6690
    8MOL   C748 6222   6.027   4.463   2.853  0.0522  0.1301  0.6106
    8MOL   C749 6223   5.880   4.515   2.892 -0.5708  0.2029 -0.7296
    8MOL   C750 6224   5.808   4.563   2.769 -0.4175 -0.1493 -0.0959
    8MOL   C751 6225   5.655   4.599   2.788  0.2832  0.4932 -0.7183
    8MOL   O752 6226   5.569   4.614   2.675  0.4439  0.5003  0.2041
    8MOL   C753 6227   5.462   4.708   2.686 -0.0564  0.4008 -0.1033
    8MOL   O754 6228   5.437   4.779   2.788 -0.6288  0.7327  0.8044
    8MOL   C755 6229   5.389   4.726   2.563 -0.7437  0.1192  0.1907
    8MOL   C756 6230   5.302   4.825   2.540  0.2260 -0.2436  0.7494
    8MOL   C757 6231   5.232   4.835   2.420 -0.7400  0.7900 -0.2339
    8MOL   C758 6232   5.257   4.746   2.313 -0.4826  0.1275  0.2028
    8MOL   C759 6233   5.186   4.760   2.186 -0.3997  0.6708  0.0492
    8MOL   O760 6234   5.097   4.833   2.161  0.8850 -1.1456  0.1896
    8MOL   O761 6235   5.250   4.691   2.085  0.0617  0.0904 -0.0207
    8MOL   C762 6236   5.343   4.640   2.334  0.8040 -0.6353 -0.0383
    8MOL   C763 6237   5.404   4.624   2.459  0.0760 -0.6087 -0.0003
    8MOL   H764 6238   5.770   4.520   2.563  0.3710 -1.0265 -0.5410
    8MOL   H765 6239   5.753   4.387   2.667 -0.7330  0.9368  0.3102
    8MOL   H766 6240   5.941   4.370   2.531  1.8311 -1.3042  0.9241
    8MOL   H767 6241   6.018   4.517   2.572  1.8301 -0.3688  1.6044
    8MOL   H768 6242   5.959   4.281   2.767  0.4952 -0.9884 -0.5993
    8MOL   H769 6243   6.155   4.240   2.619 -0.5459 -0.4169  0.8413
    8MOL   H770 6244   6.210   4.393   2.678  2.3268 -0.7471 -1.7321
    8MOL   H771 6245   6.085   4.429   2.939  0.1539 -2.2925 -0.3964
    8MOL   H772 6246   6.080   4.550   2.813 -1.4089 -0.4184 -2.6341
    8MOL   H773 6247   5.885   4.588   2.972  1.5925 -1.5390  0.7979
    8MOL   H774 6248   5.828   4.430   2.935  0.5371  0.8108  1.8743
    8MOL   H775 6249   5.842   4.663   2.741  0.5219 -0.3808  0.1980
    8MOL   H776 6250   5.604   4.519   2.841  0.4360 -0.6270 -2.2180
    8MOL   H777 6251   5.647   4.691   2.847  1.2536 -1.9414  3.3666
    8MOL   H778 6252   5.289   4.909   2.607  0.3355  0.5108 -0.1669
    8MOL   H779 6253   5.175   4.926   2.406 -0.2127  1.3289  1.0214
    8MOL   H780 6254   5.372   4.569   2.257 -1.0070 -1.4195 -0.0294
    8MOL   H781 6255   5.477   4.544   2.466 -1.3242 -1.9228 -0.2811
    8MOL   H782 6256   5.219   4.721   2.001  1.4972 -0.8013 -0.8817
    9MOL     C1 6257   1.715   2.548   0.626  0.1700 -0.0871 -0.2768
    9MOL     C2 6258   1.570   2.513   0.677 -0.1770  0.5417  0.3260
    9MOL     C3 6259   1.478   2.633   0.700  0.4814  0.0510 -0.3037
    9MOL     C4 6260   1.361   2.582   0.790  0.1330  0.7058  0.3184
    9MOL     O5 6261   1.261   2.677   0.793 -0.0629  0.6606  0.4062
    9MOL     C6 6262   1.553   2.745   0.776  0.4016  0.5901  0.6134
    9MOL     C7 6263   1.697   2.781   0.717 -0.1947 -0.4953  0.6041
    9MOL     C8 6264   1.777   2.651   0.719 -0.1105  0.2500  0.2946
    9MOL     C9 6265   1.923   2.686   0.680  0.6634  0.9457 -0.1338
    9MOL    O10 6266   2.002   2.580   0.743 -0.1561 -0.5689 -0.0139
    9MOL    C11 6267   2.119   2.612   0.811 -0.1365  0.8597 -0.4323
    9MOL    O12 6268   2.153   2.731   0.809  0.5858  0.5050 -0.1812
    9MOL    C13 6269   2.186   2.507   0.892  0.0838 -0.2012 -0.4157
    9MOL    C14 6270   2.308   2.540   0.949 -0.2485  0.8918 -0.1458
    9MOL    C15 6271   2.374   2.449   1.033 -0.2796 -0.0724  0.0340
    9MOL    C16 6272   2.328   2.316   1.045  0.5535  0.3411 -0.8199
    9MOL    C17 6273   2.394   2.216   1.136  0.3467  0.4014 -0.5743
    9MOL    O18 6274   2.493   2.236   1.201  0.0158 -0.0104  0.6003
    9MOL    O19 6275   2.325   2.100   1.141  0.8195 -0.4722  0.0700
    9MOL    C20 6276   2.214   2.273   0.964  0.0485 -0.4649  0.3509
    9MOL    C21 6277   2.142   2.367   0.890  0.9820  0.0113 -0.5362
    9MOL    H22 6278   1.780   2.460   0.623  0.5896  0.2384 -0.6556
    9MOL    H23 6279   1.705   2.585   0.524 -0.3067  0.0375 -0.1879
    9MOL    H24 6280   1.521   2.448   0.604  1.7172 -0.0194 -0.4746
    9MOL    H25 6281   1.596   2.448   0.760 -1.7430  0.5273  0.8237
    9MOL    H26 6282   1.440   2.675   0.607 -2.1301  0.1666  0.7448
    9MOL    H27 6283   1.323   2.484   0.763  3.0187 -0.9016  1.8553
    9MOL    H28 6284   1.398   2.570   0.892 -1.2463  1.1996  0.8828
    9MOL    H29 6285   1.490   2.834   0.781 -1.5723 -0.5372 -2.5930
    9MOL    H30 6286   1.561   2.712   0.879  0.6920 -0.4222  0.2714
    9MOL    H31 6287   1.747   2.862   0.771  0.5466  0.4800 -1.5164
    9MOL    H32 6288   1.693   2.822   0.617 -0.7725  2.3072  1.7141
    9MOL    H33 6289   1.775   2.617   0.822 -1.0651 -4.0711 -1.0345
    9MOL    H34 6290   1.927   2.684   0.571 -3.5851  1.2665 -0.3881
    9MOL    H35 6291   1.948   2.787   0.712 -2.0586  1.8542 -0.7607
    9MOL    H36 6292   2.349   2.639   0.935 -0.4723  1.1486  0.9237
    9MOL    H37 6293   2.450   2.490   1.098 -0.3882  0.7229 -0.3432
    9MOL    H38 6294   2.185   2.169   0.956 -0.8316 -0.0617 -1.7934
    9MOL    H39 6295   2.058   2.353   0.823  0.9400  0.2094 -0.5247
    9MOL    H40 6296   1.185   2.628   0.820  1.2975 -0.2582  2.6231
    9MOL    C41 6297   2.731   1.642   1.184 -0.0611 -0.0686  0.0434
    9MOL    C42 6298   2.645   1.732   1.100 -0.0948 -0.0909  0.1158
    9MOL    C43 6299   2.562   1.829   1.194 -0.5172 -0.6144  0.9279
    9MOL    C44 6300   2.468   1.917   1.118 -0.2071 -0.7564  0.5598
    9MOL    O45 6301   2.403   2.002   1.213 -0.6140  0.1151 -0.0794
    9MOL    C46 6302   2.478   1.741   1.285  0.3484  0.8861 -0.1423
    9MOL    C47 6303   2.549   1.633   1.358  0.1816 -0.2906 -0.3129
    9MOL    C48 6304   2.639   1.551   1.269 -0.1482 -0.5883  0.5026
    9MOL    C49 6305   2.725   1.448   1.352 -0.2470 -0.8596 -0.0024
    9MOL    O50 6306   2.638   1.368   1.432  0.1904 -0.0733 -0.3676
    9MOL    C51 6307   2.674   1.263   1.506  0.2994 -0.5380 -0.0258
    9MOL    O52 6308   2.788   1.213   1.500 -0.6376  0.0437 -0.2029
    9MOL    C53 6309   2.564   1.191   1.571 -0.5262 -0.2448 -0.2116
    9MOL    C54 6310   2.582   1.070   1.643  0.1268 -0.1289 -0.4859
    9MOL    C55 6311   2.476   1.011   1.719  0.4994 -0.1061  0.0933
    9MOL    C56 6312   2.347   1.068   1.717 -0.3577  0.3110 -0.0269
    9MOL    C57 6313   2.231   1.008   1.791 -0.1565  0.1387  0.3329
    9MOL    O58 6314   2.116   1.059   1.791  0.0775  0.4609 -0.2796
    9MOL    O59 6315   2.270   0.908   1.870  0.0597 -0.1926  0.1908
    9MOL    C60 6316   2.331   1.194   1.651  0.5300 -0.4852 -0.2692
    9MOL    C61 6317   2.438   1.256   1.584  0.5386 -0.2940  0.0314
    9MOL    H62 6318   2.788   1.582   1.113  2.4293 -0.0303  1.9054
    9MOL    H63 6319   2.815   1.685   1.239  0.7014 -2.8404  1.1499
    9MOL    H64 6320   2.711   1.798   1.044 -1.2630  2.1907  1.3464
    9MOL    H65 6321   2.574   1.696   1.026 -2.2010  0.9146  1.5872
    9MOL    H66 6322   2.626   1.893   1.254 -0.1146 -2.5513  2.6133
    9MOL    H67 6323   2.521   1.976   1.043 -0.6619 -0.6636  0.3077
    9MOL    H68 6324   2.387   1.861   1.073 -1.5969  1.3440  0.3652
    9MOL    H69 6325   2.422   1.796   1.360 -0.5398  3.4133 -2.5938
    9MOL    H70 6326   2.399   1.713   1.216  0.7889  0.6946 -0.5769
    9MOL    H71 6327   2.462   1.576   1.393  1.7552 -1.9302  1.0131
    9MOL    H72 6328   2.602   1.678   1.442 -1.0752 -2.0586  1.4892
    9MOL    H73 6329   2.574   1.492   1.203  2.3220 -0.2625 -2.3203
    9MOL    H74 6330   2.787   1.389   1.285 -2.2423 -2.3997 -0.5495
    9MOL    H75 6331   2.799   1.500   1.412 -0.2705  1.9954 -2.3197
    9MOL    H76 6332   2.667   1.009   1.617  1.0479  0.6999  0.5817
    9MOL    H77 6333   2.499   0.918   1.770 -1.1151 -0.3420  0.4497
    9MOL    H78 6334   2.237   1.246   1.657  0.8409 -0.0951  1.8039
    9MOL    H79 6335   2.425   1.348   1.530  0.2553 -0.5763 -0.3838
    9MOL    C80 6336   1.987   0.504   2.145  0.2422 -0.0911 -0.2121
    9MOL    C81 6337   2.070   0.599   2.069 -0.7246 -0.1545 -0.2624
    9MOL    C82 6338   1.998   0.667   1.954 -0.2281 -0.2747 -0.4701
    9MOL    C83 6339   2.092   0.756   1.866 -0.1428  0.8206 -0.5573
    9MOL    O84 6340   2.161   0.840   1.951  0.7932  0.2333  0.0541
    9MOL    C85 6341   1.946   0.559   1.859  0.9913  0.2260  0.4103
    9MOL    C86 6342   1.865   0.450   1.931  0.2190  0.1348  0.2159
    9MOL    C87 6343   1.935   0.388   2.052  0.0696  0.1609  0.4205
    9MOL    C88 6344   1.843   0.289   2.130 -0.3027 -0.0664  0.0738
    9MOL    O89 6345   1.808   0.170   2.052  0.3723 -0.0139 -0.1440
    9MOL    C90 6346   1.906   0.078   2.032  0.0707 -0.4128  0.5692
    9MOL    O91 6347   2.009   0.063   2.097 -0.2850 -0.7999 -0.1416
    9MOL    C92 6348   1.872   0.003   1.911  0.2771  0.3878  0.2790
    9MOL    C93 6349   1.751   0.031   1.845 -0.0927  0.1942  0.1074
    9MOL    C94 6350   1.720   7.999   1.721  0.4228 -0.3056 -0.8811
    9MOL    C95 6351   1.812   7.908   1.668 -0.0149  0.1212 -0.1941
    9MOL    C96 6352   1.785   7.846   1.531  0.0972  0.3113  0.2040
    9MOL    O97 6353   1.804   7.728   1.503  0.0687 -0.0971  0.3436
    9MOL    O98 6354   1.744   7.939   1.442  0.3485 -0.4297 -0.1338
    9MOL    C99 6355   1.934   7.881   1.737 -0.4155  0.9592 -0.1941
    9MOL   C100 6356   1.959   7.940   1.858  0.7482  0.8678  0.0329
    9MOL   H101 6357   2.038   0.471   2.235  0.8278 -2.4606 -1.3550
    9MOL   H102 6358   1.902   0.567   2.170  0.3600  0.0372 -0.1424
    9MOL   H103 6359   2.098   0.681   2.134 -1.8037  0.5034 -0.5950
    9MOL   H104 6360   2.159   0.552   2.028 -0.5495  0.9493 -1.1812
    9MOL   H105 6361   1.913   0.725   1.989  1.2314  1.0732  0.9311
    9MOL   H106 6362   2.158   0.703   1.797 -0.5641 -0.9654  0.3959
    9MOL   H107 6363   2.025   0.811   1.799  0.0692  2.5509  0.6201
    9MOL   H108 6364   1.891   0.608   1.779  0.5244 -0.5759  0.2294
    9MOL   H109 6365   2.038   0.520   1.814  0.2496  0.1630 -1.1099
    9MOL   H110 6366   1.851   0.384   1.845  0.2638  2.0387 -1.2922
    9MOL   H111 6367   1.763   0.482   1.951 -0.4943 -0.6156 -2.0181
    9MOL   H112 6368   2.032   0.348   2.021  0.3358  1.4218 -0.4513
    9MOL   H113 6369   1.878   0.259   2.228 -0.9126 -1.3601 -0.0887
    9MOL   H114 6370   1.749   0.340   2.150 -0.6124 -0.2124 -0.9516
    9MOL   H115 6371   1.672   0.096   1.876 -0.1526 -1.3241  3.3806
    9MOL   H116 6372   1.629   8.018   1.665 -0.5159 -0.3922  0.5790
    9MOL   H117 6373   2.004   7.804   1.706  0.4852  0.6340  2.5017
    9MOL   H118 6374   2.047   7.923   1.918 -1.6194 -0.6493  3.2155
    9MOL   C119 6375   1.829   7.808   0.844 -0.6450  0.5857 -0.9463
    9MOL   C120 6376   1.861   7.804   0.993  0.7546 -0.4037 -0.4118
    9MOL   C121 6377   1.752   7.818   1.097 -0.3995  0.3776  0.0449
    9MOL   C122 6378   1.814   7.855   1.233 -0.2148  0.5042  0.0985
    9MOL   O123 6379   1.700   7.873   1.316 -0.5644  0.0383  0.1765
    9MOL   C124 6380   1.644   7.912   1.050  0.3084  0.7205 -0.0437
    9MOL   C125 6381   1.611   7.896   0.904  0.0070  0.0903 -0.0875
    9MOL   C126 6382   1.733   7.909   0.802 -0.1064 -0.7642 -0.3771
    9MOL   C127 6383   1.671   7.886   0.660 -0.2384  0.4782  0.0534
    9MOL   O128 6384   1.579   7.989   0.626 -0.0967 -0.9116  0.0871
    9MOL   C129 6385   1.594   0.029   0.519 -0.3612 -0.6623  0.1155
    9MOL   O130 6386   1.695   0.033   0.440  0.5744 -0.4014  0.0790
    9MOL   C131 6387   1.468   0.108   0.498 -0.1989  0.4863  0.7693
    9MOL   C132 6388   1.450   0.176   0.375  0.1021  0.0292 -0.7978
    9MOL   C133 6389   1.334   0.247   0.343 -0.0037 -0.1235 -0.0031
    9MOL   C134 6390   1.222   0.239   0.431 -0.4460  0.2695 -0.2235
    9MOL   C135 6391   1.089   0.290   0.382  0.3469 -0.0972 -0.0288
    9MOL   O136 6392   1.078   0.360   0.284 -0.7081 -0.2732  0.1262
    9MOL   O137 6393   0.987   0.258   0.459  0.2648 -0.6560 -0.0140
    9MOL   C138 6394   1.232   0.157   0.550 -0.5728 -0.0833  0.0830
    9MOL   C139 6395   1.357   0.101   0.591 -0.2644 -0.0165  0.5120
    9MOL   H140 6396   1.918   7.822   0.782  0.1417 -1.4914 -0.3326
    9MOL   H141 6397   1.779   7.713   0.825  0.6227 -0.5446  1.2407
    9MOL   H142 6398   1.926   7.717   1.007 -0.4325 -0.9962  1.6231
    9MOL   H143 6399   1.925   7.891   1.006 -1.2611  0.8682  1.2018
    9MOL   H144 6400   1.696   7.725   1.107 -0.9015  0.3721 -2.4418
    9MOL   H145 6401   1.876   7.771   1.265  2.3269  1.6723 -1.5467
    9MOL   H146 6402   1.887   7.936   1.233  1.5874 -1.0673  1.2184
    9MOL   H147 6403   1.548   7.893   1.099 -0.0411 -3.0694 -1.9879
    9MOL   H148 6404   1.673   8.013   1.078 -3.4344  1.5549  1.1876
    9MOL   H149 6405   1.533   7.968   0.879  0.1235 -0.3896 -1.9227
    9MOL   H150 6406   1.556   7.803   0.896  0.1231 -0.1968  2.1336
    9MOL   H151 6407   1.774   8.010   0.812 -2.6438  0.4971 -1.9842
    9MOL   H152 6408   1.747   7.890   0.583  0.0917  0.7882  0.3959
    9MOL   H153 6409   1.627   7.786   0.663  0.4236  0.2078  0.8602
    9MOL   H154 6410   1.533   0.188   0.307  0.8050 -2.4197 -0.4259
    9MOL   H155 6411   1.322   0.290   0.245  0.0289  1.3450  0.6198
    9MOL   H156 6412   1.149   0.138   0.617 -2.4857  1.4686 -1.7748
    9MOL   H157 6413   1.365   0.046   0.683  1.2044 -0.0757  0.3605
    9MOL   C158 6414   0.465   0.487   0.315 -0.0282  0.7595 -0.4268
    9MOL   C159 6415   0.615   0.455   0.315  0.2109  0.7218  0.4387
    9MOL   C160 6416   0.636   0.304   0.328  0.3929 -0.6024 -0.5575
    9MOL   C161 6417   0.783   0.250   0.339 -0.4652 -0.1830  0.3617
    9MOL   O162 6418   0.864   0.333   0.420  0.2515  0.0009  0.8472
    9MOL   C163 6419   0.572   0.261   0.462  0.4652 -0.5909 -0.0690
    9MOL   C164 6420   0.421   0.310   0.488 -0.7513 -0.1196 -0.3731
    9MOL   C165 6421   0.395   0.457   0.447  0.2459  0.1448 -0.2368
    9MOL   C166 6422   0.245   0.509   0.440 -0.3158 -0.3143  0.0292
    9MOL   O167 6423   0.193   0.482   0.572 -0.5438 -0.3857 -0.0068
    9MOL   C168 6424   0.070   0.425   0.598 -0.2664  0.2875  0.1515
    9MOL   O169 6425   8.029   0.415   0.507 -0.1429 -0.0572  0.5536
    9MOL   C170 6426   0.037   0.381   0.732 -0.0156 -0.3513  0.5089
    9MOL   C171 6427   0.142   0.367   0.824 -0.4419 -0.0657 -0.2924
    9MOL   C172 6428   0.122   0.309   0.950  0.1501 -0.2413  0.7900
    9MOL   C173 6429   8.031   0.262   0.991 -0.2948 -0.3757 -0.0683
    9MOL   C174 6430   8.002   0.196   1.122 -0.4122 -0.1421 -0.7180
    9MOL   O175 6431   0.059   0.190   1.207 -0.0031  0.2351 -0.2693
    9MOL   O176 6432   7.883   0.145   1.144 -0.1492 -0.1131  0.4640
    9MOL   C177 6433   7.927   0.281   0.894 -0.6762 -0.3620  0.5796
    9MOL   C178 6434   7.940   0.335   0.768  0.3364 -0.3384 -0.3922
    9MOL   H179 6435   0.452   0.591   0.284  1.3365  1.8698  2.5874
    9MOL   H180 6436   0.421   0.426   0.236  0.4776 -0.5246  0.2671
    9MOL   H181 6437   0.660   0.499   0.226 -1.2500  1.2353 -0.0650
    9MOL   H182 6438   0.674   0.502   0.392  0.4208  0.9342  0.1471
    9MOL   H183 6439   0.583   0.248   0.251  1.0190  0.5533 -1.8393
    9MOL   H184 6440   0.785   0.149   0.382 -1.0835 -0.7192 -0.8361
    9MOL   H185 6441   0.831   0.244   0.241  0.5938  0.3969  0.8440
    9MOL   H186 6442   0.564   0.152   0.453  0.5240 -0.6663  0.7552
    9MOL   H187 6443   0.632   0.293   0.547 -1.5950 -0.7543  1.4885
    9MOL   H188 6444   0.413   0.308   0.597  1.7432  0.2632 -0.1595
    9MOL   H189 6445   0.347   0.240   0.448 -1.3730  1.1582 -1.5068
    9MOL   H190 6446   0.449   0.517   0.521 -1.0495  0.2206  0.6552
    9MOL   H191 6447   0.242   0.615   0.414 -0.1920  0.6910  3.8866
    9MOL   H192 6448   0.188   0.449   0.368 -1.9193  1.7614 -0.5003
    9MOL   H193 6449   0.244   0.401   0.809 -0.7723  0.4561 -1.3780
    9MOL   H194 6450   0.210   0.289   1.009  1.9614 -1.0746 -2.0786
    9MOL   H195 6451   7.831   0.238   0.920 -0.7875 -0.8333 -0.5880
    9MOL   H196 6452   7.856   0.351   0.702 -1.2667  0.7470  1.8674
    9MOL   C197 6453   7.758   7.643   1.126  0.0164  0.1098  0.3407
    9MOL   C198 6454   7.856   7.734   1.204 -0.1680 -0.0023 -1.0144
    9MOL   C199 6455   7.811   7.878   1.206  0.0399  0.3664 -0.2156
    9MOL   C200 6456   7.927   7.965   1.258 -0.1228 -0.6918  0.3904
    9MOL   O201 6457   7.887   0.065   1.278 -0.5158 -0.0096 -0.1738
    9MOL   C202 6458   7.758   7.924   1.067  0.1422  0.8145 -0.3687
    9MOL   C203 6459   7.677   7.833   0.982 -1.3053 -0.5075  0.8608
    9MOL   C204 6460   7.738   7.693   0.980 -0.2998  0.3471 -0.4581
    9MOL   C205 6461   7.665   7.600   0.887 -0.4524  0.6251 -0.3558
    9MOL   O206 6462   7.698   7.641   0.753 -0.1693 -0.7004 -0.2371
    9MOL   C207 6463   7.609   7.714   0.685 -0.3669 -0.7545  0.6841
    9MOL   O208 6464   7.507   7.761   0.727  0.2774  0.0018 -0.7659
    9MOL   C209 6465   7.643   7.735   0.543 -0.1442 -0.3663 -1.1539
    9MOL   C210 6466   7.775   7.700   0.494  0.8643  0.7733  0.1662
    9MOL   C211 6467   7.807   7.723   0.359 -0.4971  0.0837 -0.4002
    9MOL   C212 6468   7.715   7.771   0.263 -0.5328  0.0629  0.5696
    9MOL   C213 6469   7.765   7.803   0.126  0.7589  0.6827 -0.0628
    9MOL   O214 6470   7.875   7.777   0.079 -0.1775  0.1468 -0.0270
    9MOL   O215 6471   7.666   7.870   0.060  0.6098  0.0338 -0.4250
    9MOL   C216 6472   7.586   7.797   0.312  0.1684  0.3419  0.0070
    9MOL   C217 6473   7.555   7.789   0.452 -0.1050  0.2733  0.2747
    9MOL   H218 6474   7.794   7.540   1.118  0.4620  0.2913 -0.0080
    9MOL   H219 6475   7.660   7.645   1.174  0.3323  1.4206  0.9442
    9MOL   H220 6476   7.877   7.702   1.306 -0.2848  1.3577 -0.5527
    9MOL   H221 6477   7.948   7.726   1.145  2.0454  0.2097  2.2619
    9MOL   H222 6478   7.730   7.881   1.278 -0.3823 -2.0561 -0.5487
    9MOL   H223 6479   7.954   7.929   1.358 -0.4570  0.9018  1.0637
    9MOL   H224 6480   8.016   7.962   1.195  0.6457  1.1022  1.3494
    9MOL   H225 6481   7.692   8.011   1.076 -0.9207 -0.1537  1.4947
    9MOL   H226 6482   7.850   7.942   1.011  1.1654  0.8305  1.3008
    9MOL   H227 6483   7.678   7.873   0.881 -0.2424 -2.0648  0.2216
    9MOL   H228 6484   7.576   7.834   1.024 -1.8618  0.1458 -0.4630
    9MOL   H229 6485   7.836   7.701   0.933 -0.1037 -1.2400 -0.3262
    9MOL   H230 6486   7.686   7.493   0.899 -2.2730  0.4554  1.7964
    9MOL   H231 6487   7.559   7.616   0.907 -0.3534  1.3656 -0.4196
    9MOL   H232 6488   7.855   7.659   0.554 -0.1478  0.5676  1.3985
    9MOL   H233 6489   7.908   7.708   0.325 -1.6093 -2.2526 -2.8826
    9MOL   H234 6490   7.514   7.845   0.247 -1.9245 -1.4594  0.9265
    9MOL   H235 6491   7.454   7.809   0.483 -0.5288 -1.5546  0.1057
    9MOL   C236 6492   7.814   7.929   7.499  0.0495 -0.9907  0.5713
    9MOL   C237 6493   7.708   7.872   7.599 -0.3442  0.4011  0.0787
    9MOL   C238 6494   7.763   7.912   7.742 -0.2112 -0.2714  0.0092
    9MOL   C239 6495   7.687   7.842   7.858  0.0780 -0.0447 -0.4330
    9MOL   O240 6496   7.715   7.926   7.968  0.0707 -0.9673 -0.3201
    9MOL   C241 6497   7.914   7.874   7.779 -0.1954 -0.6874  0.7467
    9MOL   C242 6498   7.999   7.933   7.664  0.6212  0.2017 -0.7147
    9MOL   C243 6499   7.955   7.889   7.522  0.4723 -0.2648  0.0671
    9MOL   C244 6500   0.020   7.921   7.404 -0.1715 -0.3552 -0.1352
    9MOL   O245 6501   0.138   7.847   7.423 -0.5525  0.0647  0.1390
    9MOL   C246 6502   0.142   7.719   7.394 -0.5120 -0.3174 -0.0099
    9MOL   O247 6503   0.040   7.646   7.378 -0.0805  0.8129 -0.1185
    9MOL   C248 6504   0.281   7.679   7.381 -0.0673 -0.0250  0.0564
    9MOL   C249 6505   0.299   7.542   7.395  0.5142 -0.0153 -0.5355
    9MOL   C250 6506   0.428   7.491   7.384  0.5973  0.2699  0.7261
    9MOL   C251 6507   0.537   7.571   7.392  0.3715  0.4047 -0.0962
    9MOL   C252 6508   0.673   7.519   7.410  0.4117  0.4508  0.1767
    9MOL   O253 6509   0.774   7.585   7.426 -0.2274 -0.6750  0.3530
    9MOL   O254 6510   0.677   7.383   7.410 -0.2917 -0.3569  0.4754
    9MOL   C255 6511   0.515   7.705   7.381 -0.2512 -0.9853  1.5632
    9MOL   C256 6512   0.389   7.765   7.368  0.6760 -0.5963 -0.5402
    9MOL   H257 6513   7.784   7.913   7.395  1.1593  0.8096 -0.0357
    9MOL   H258 6514   7.818   0.001   7.513 -0.1387 -1.1847  2.2764
    9MOL   H259 6515   7.609   7.914   7.584 -0.2890  0.4364 -0.1803
    9MOL   H260 6516   7.709   7.763   7.600  0.0582  0.4076  2.1261
    9MOL   H261 6517   7.762   8.021   7.749 -0.6618 -0.2525 -0.3471
    9MOL   H262 6518   7.580   7.845   7.840  0.2169 -0.5952 -1.3791
    9MOL   H263 6519   7.728   7.741   7.866  0.6449  0.1674 -0.6501
    9MOL   H264 6520   7.940   7.922   7.873  0.1592  1.0319 -0.1961
    9MOL   H265 6521   7.938   7.769   7.794  0.4192 -0.5341  0.8357
    9MOL   H266 6522   0.069   7.909   7.682  0.4993  0.8265  0.9367
    9MOL   H267 6523   7.998   0.006   7.665 -0.2691  0.1940  0.6174
    9MOL   H268 6524   7.945   7.781   7.519  0.7818 -0.3493  1.8149
    9MOL   H269 6525   8.030   7.897   7.301 -0.2098  0.1407 -0.2420
    9MOL   H270 6526   0.032   8.029   7.397  1.5768 -0.2576  3.1440
    9MOL   H271 6527   0.222   7.467   7.402 -0.1505  0.8198  1.3563
    9MOL   H272 6528   0.437   7.383   7.386 -0.5888  0.1444 -0.0744
    9MOL   H273 6529   0.602   7.766   7.400  0.9400 -1.6192 -1.5996
    9MOL   H274 6530   0.379   7.872   7.359 -1.1404 -0.5482  1.6813
    9MOL   C275 6531   1.239   7.363   7.392 -0.8815  0.1723  0.2817
    9MOL   C276 6532   1.083   7.377   7.406 -0.8545 -0.1455 -0.2026
    9MOL   C277 6533   1.018   7.302   7.290  0.0808  0.0284 -0.5939
    9MOL   C278 6534   0.867   7.319   7.284  0.4412 -0.2246 -0.4002
    9MOL   O279 6535   0.815   7.332   7.418 -0.5776  0.1451  0.7150
    9MOL   C280 6536   1.080   7.340   7.155  0.4902  0.1109 -0.1465
    9MOL   C281 6537   1.232   7.326   7.148 -0.3292  0.1118  0.5738
    9MOL   C282 6538   1.291   7.413   7.258  0.1103  0.6704  0.2378
    9MOL   C283 6539   1.443   7.434   7.242  0.4815  0.1872  0.4585
    9MOL   O284 6540   1.461   7.486   7.108 -0.2081 -0.1567 -0.6046
    9MOL   C285 6541   1.462   7.617   7.074  0.1387 -0.4558 -0.0526
    9MOL   O286 6542   1.481   7.706   7.151  0.3373  0.3745 -0.1437
    9MOL   C287 6543   1.443   7.637   6.935 -0.0645 -0.0133 -0.9858
    9MOL   C288 6544   1.439   7.762   6.879 -0.2720  0.0937 -0.3270
    9MOL   C289 6545   1.422   7.774   6.739  0.5991  0.7244 -0.7488
    9MOL   C290 6546   1.408   7.661   6.651 -0.8892 -0.2730 -0.1795
    9MOL   C291 6547   1.389   7.677   6.502  0.2398 -0.0272 -0.2168
    9MOL   O292 6548   1.397   7.576   6.434  0.7679 -0.1470  0.1520
    9MOL   O293 6549   1.374   7.806   6.457 -0.8550  0.1175  0.3939
    9MOL   C294 6550   1.412   7.539   6.713  0.1453  0.2792 -0.5459
    9MOL   C295 6551   1.431   7.525   6.848 -0.0529 -0.3593  0.2326
    9MOL   H296 6552   1.282   7.427   7.469  1.1337 -0.9651  0.1486
    9MOL   H297 6553   1.271   7.264   7.424 -1.8245 -0.0595  0.5396
    9MOL   H298 6554   1.053   7.341   7.505  1.4429 -2.0612 -0.1701
    9MOL   H299 6555   1.055   7.482   7.399 -2.9286 -0.7974 -2.2523
    9MOL   H300 6556   1.038   7.196   7.299 -0.1113  0.0012 -0.4829
    9MOL   H301 6557   0.845   7.413   7.231  0.0985 -0.6500 -1.0215
    9MOL   H302 6558   0.817   7.244   7.222  3.5773 -0.9155 -2.2073
    9MOL   H303 6559   1.033   7.281   7.077  2.3266 -0.1944 -1.0634
    9MOL   H304 6560   1.049   7.442   7.132 -3.6079 -0.5828  1.9663
    9MOL   H305 6561   1.273   7.365   7.055  1.3653  0.5601  1.4802
    9MOL   H306 6562   1.253   7.220   7.151  0.2019  0.1697 -0.7521
    9MOL   H307 6563   1.241   7.510   7.246  2.4992  2.0546  1.0884
    9MOL   H308 6564   1.488   7.504   7.313 -0.3138 -1.1442  2.3326
    9MOL   H309 6565   1.502   7.342   7.250 -1.4389 -0.9228  2.1527
    9MOL   H310 6566   1.454   7.856   6.931  2.0125 -0.1861 -0.4095
    9MOL   H311 6567   1.419   7.879   6.712  1.3741  0.7368 -0.7829
    9MOL   H312 6568   1.399   7.447   6.658 -1.7027 -0.1346  0.5569
    9MOL   H313 6569   1.423   7.426   6.892  2.5991 -0.8586 -0.3144
    9MOL   C314 6570   1.386   7.772   5.891  0.1254  0.7157  0.1748
    9MOL   C315 6571   1.384   7.746   6.042  0.5241 -0.1046  0.7779
    9MOL   C316 6572   1.459   7.857   6.111  0.0956 -0.0884 -0.3510
    9MOL   C317 6573   1.478   7.829   6.256  0.6669  0.0377 -0.0676
    9MOL   O318 6574   1.350   7.819   6.314  0.3075 -0.1902 -0.5611
    9MOL   C319 6575   1.598   7.872   6.051  0.1749  0.0581 -0.6329
    9MOL   C320 6576   1.598   7.913   5.903 -0.1033 -0.3354 -0.2692
    9MOL   C321 6577   1.526   7.796   5.830  0.4627 -0.0743  0.2118
    9MOL   C322 6578   1.525   7.831   5.679  0.5544  0.4559  0.5123
    9MOL   O323 6579   1.442   7.746   5.603  0.3125  0.7247 -0.2040
    9MOL   C324 6580   1.487   7.631   5.551 -0.4727 -0.1050 -0.4940
    9MOL   O325 6581   1.591   7.565   5.582 -0.2131  0.2658 -0.2645
    9MOL   C326 6582   1.393   7.575   5.452  0.1254  0.1538 -0.6344
    9MOL   C327 6583   1.299   7.653   5.381 -0.2390 -0.1686 -0.5434
    9MOL   C328 6584   1.217   7.595   5.281 -0.1084 -0.1456 -0.3934
    9MOL   C329 6585   1.236   7.460   5.241  0.5740  0.5301 -0.4201
    9MOL   C330 6586   1.165   7.411   5.120 -0.0357  1.1402  0.2460
    9MOL   O331 6587   1.108   7.484   5.040  0.1228 -0.1413 -0.4912
    9MOL   O332 6588   1.164   7.282   5.108 -0.0139  0.1042 -0.2935
    9MOL   C333 6589   1.326   7.381   5.318  0.5245  0.6578  0.0627
    9MOL   C334 6590   1.396   7.433   5.427 -0.7369  0.1164  0.4632
    9MOL   H335 6591   1.341   7.680   5.855  0.7592 -0.5569  2.4727
    9MOL   H336 6592   1.311   7.847   5.868  0.1660  0.5544 -0.4783
    9MOL   H337 6593   1.280   7.749   6.074 -0.4944  2.6596 -2.4014
    9MOL   H338 6594   1.431   7.654   6.074  0.6705  0.3619  1.9319
    9MOL   H339 6595   1.406   7.950   6.094  0.4251 -0.1194 -1.5954
    9MOL   H340 6596   1.540   7.739   6.254 -1.5979 -1.5610 -2.1285
    9MOL   H341 6597   1.538   7.904   6.307  0.2295 -0.1513  0.7376
    9MOL   H342 6598   1.662   7.944   6.103  0.5533 -0.1934 -0.7507
    9MOL   H343 6599   1.643   7.773   6.060 -5.0112 -2.6336 -2.3176
    9MOL   H344 6600   1.695   7.930   5.857 -0.3889  2.5621  0.0881
    9MOL   H345 6601   1.553   8.012   5.894  0.3693 -0.0063  0.9048
    9MOL   H346 6602   1.587   7.707   5.843  0.0149 -0.3650  0.3404
    9MOL   H347 6603   1.489   7.933   5.672 -0.3358  0.2061  1.2873
    9MOL   H348 6604   1.621   7.841   5.629 -0.8744  2.1241 -1.9738
    9MOL   H349 6605   1.296   7.760   5.398  1.5839  0.3313 -3.0217
    9MOL   H350 6606   1.148   7.660   5.230  1.2585  0.0324 -2.0703
    9MOL   H351 6607   1.336   7.277   5.290 -2.0640  0.2876  0.3825
    9MOL   H352 6608   1.463   7.363   5.474  1.7590  0.7285 -2.0674
    9MOL   C353 6609   0.795   6.926   4.762  0.0328  0.0451  0.4160
    9MOL   C354 6610   0.864   6.973   4.887 -0.5407 -0.0236 -0.1911
    9MOL   C355 6611   0.956   7.091   4.863 -0.1190  0.1321 -0.9530
    9MOL   C356 6612   1.023   7.140   4.992 -0.2882 -0.0760  0.0288
    9MOL   O357 6613   1.122   7.238   4.977  0.1633  0.8800  0.0455
    9MOL   C358 6614   1.066   7.033   4.769 -0.8780 -0.1116 -0.0328
    9MOL   C359 6615   1.006   6.993   4.630 -0.3895  0.7091 -0.3760
    9MOL   C360 6616   0.889   6.889   4.646  0.3689 -0.0303  0.2884
    9MOL   C361 6617   0.815   6.855   4.511  0.2954 -0.5704 -0.2901
    9MOL   O362 6618   0.748   6.734   4.536  0.4327  0.4562 -0.2522
    9MOL   C363 6619   0.689   6.661   4.436 -0.3020  0.2817 -0.3953
    9MOL   O364 6620   0.658   6.700   4.324  0.4451 -0.2732 -0.4088
    9MOL   C365 6621   0.663   6.523   4.480  0.1635 -0.5231  0.0883
    9MOL   C366 6622   0.618   6.427   4.383 -0.4596 -0.3479 -0.0871
    9MOL   C367 6623   0.602   6.294   4.411 -0.2302  0.7728 -0.0282
    9MOL   C368 6624   0.650   6.242   4.529  0.4301  0.2852 -0.2803
    9MOL   C369 6625   0.653   6.101   4.560 -0.2938  0.5892 -0.3225
    9MOL   O370 6626   0.700   6.049   4.664 -0.0153  0.2843 -0.5889
    9MOL   O371 6627   0.605   6.027   4.462 -0.4605  0.2616 -0.0953
    9MOL   C372 6628   0.685   6.333   4.631 -0.1581  0.3723  0.7233
    9MOL   C373 6629   0.696   6.473   4.607 -0.4150 -0.1182  0.6375
    9MOL   H374 6630   0.725   6.844   4.780 -1.5071  0.8094 -1.7728
    9MOL   H375 6631   0.725   7.001   4.726 -0.6503 -0.4451  0.7124
    9MOL   H376 6632   0.791   7.005   4.962 -0.2582 -0.6525  0.3606
    9MOL   H377 6633   0.916   6.891   4.936  1.6966  1.2081 -0.4417
    9MOL   H378 6634   0.895   7.169   4.819  0.1357 -0.1195 -1.7621
    9MOL   H379 6635   0.957   7.156   5.077 -1.0313 -0.3582 -0.4875
    9MOL   H380 6636   1.065   7.052   5.039 -0.7762  0.5824  1.7438
    9MOL   H381 6637   1.134   7.115   4.745 -0.0265 -0.4772  1.0714
    9MOL   H382 6638   1.120   6.951   4.816 -0.1805  0.2006 -0.2757
    9MOL   H383 6639   1.083   6.953   4.565  0.7836 -0.0925  1.4750
    9MOL   H384 6640   0.951   7.072   4.578  2.6335  1.8454 -2.0316
    9MOL   H385 6641   0.932   6.793   4.674 -2.1152 -1.6115 -1.0710
    9MOL   H386 6642   0.733   6.924   4.494  0.7990  0.3388  0.9444
    9MOL   H387 6643   0.889   6.842   4.431 -0.5763 -1.6180 -0.9469
    9MOL   H388 6644   0.592   6.461   4.283 -0.8970 -2.4191 -0.7123
    9MOL   H389 6645   0.583   6.218   4.337  0.0209 -0.4977  1.1845
    9MOL   H390 6646   0.720   6.298   4.727  1.3176 -2.0505 -0.6437
    9MOL   H391 6647   0.739   6.536   4.682  0.7881  1.3439 -1.2359
    9MOL   C392 6648   0.109   5.846   4.465  0.4939  0.3323  0.7469
    9MOL   C393 6649   0.233   5.820   4.543 -0.0090  0.0190 -0.2740
    9MOL   C394 6650   0.357   5.880   4.473 -0.4119 -0.4674 -0.3927
    9MOL   C395 6651   0.487   5.840   4.556  0.5468  0.1989 -0.0698
    9MOL   O396 6652   0.608   5.880   4.493 -0.6654 -0.5278  0.4545
    9MOL   C397 6653   0.373   5.838   4.326 -0.4708  0.2622  0.1221
    9MOL   C398 6654   0.240   5.856   4.246  1.0559  0.3019 -1.2069
    9MOL   C399 6655   0.115   5.803   4.322 -0.2384 -0.0280  0.6424
    9MOL   C400 6656   8.016   5.837   4.259  0.3478 -0.7561 -0.5310
    9MOL   O401 6657   8.020   5.781   4.123  0.5057 -0.1391 -0.1132
    9MOL   C402 6658   0.014   5.868   4.021 -0.2909  0.2522 -0.0529
    9MOL   O403 6659   7.999   5.978   4.018  0.2214 -0.5017  0.2518
    9MOL   C404 6660   0.092   5.806   3.909 -0.2504  0.2018  0.5257
    9MOL   C405 6661   0.109   5.666   3.898 -0.4327  0.1713 -0.4850
    9MOL   C406 6662   0.194   5.611   3.806  0.1381 -0.7972  0.2659
    9MOL   C407 6663   0.244   5.692   3.701  0.0094  0.8265  0.5832
    9MOL   C408 6664   0.334   5.626   3.606 -0.7449 -0.6788 -1.0531
    9MOL   O409 6665   0.371   5.509   3.615 -0.4798 -0.0463 -0.3133
    9MOL   O410 6666   0.379   5.705   3.505 -0.2157  0.8040 -0.9521
    9MOL   C411 6667   0.227   5.833   3.697  0.2703  0.3349 -0.2153
    9MOL   C412 6668   0.142   5.886   3.802 -0.5895 -0.4095 -0.3316
    9MOL   H413 6669   0.027   5.800   4.520 -2.2646  1.4097 -2.3226
    9MOL   H414 6670   0.088   5.953   4.475  0.4449  0.4069 -0.1229
    9MOL   H415 6671   0.226   5.843   4.649  0.0439 -0.2982 -0.2018
    9MOL   H416 6672   0.246   5.712   4.536  0.8538  0.1461 -0.7478
    9MOL   H417 6673   0.344   5.988   4.472  1.8743 -0.1664  0.4470
    9MOL   H418 6674   0.497   5.889   4.653 -1.3028 -0.4288  0.4571
    9MOL   H419 6675   0.490   5.732   4.568  1.6026 -0.2638 -3.8710
    9MOL   H420 6676   0.457   5.885   4.276  2.7446 -3.4693  1.6673
    9MOL   H421 6677   0.405   5.733   4.326 -0.3036  0.3133 -0.0526
    9MOL   H422 6678   0.254   5.826   4.142 -0.7783  0.4698 -1.5185
    9MOL   H423 6679   0.213   5.961   4.237  1.0197  0.4968  0.8644
    9MOL   H424 6680   0.146   5.699   4.308  0.0997  0.2863 -1.0509
    9MOL   H425 6681   7.940   5.786   4.318  1.1932 -0.8152  0.5234
    9MOL   H426 6682   8.017   5.946   4.260 -1.0698 -0.7245  1.9560
    9MOL   H427 6683   0.068   5.598   3.970 -0.3555 -0.5500 -1.1147
    9MOL   H428 6684   0.218   5.506   3.812  0.5991 -0.6988  0.1549
    9MOL   H429 6685   0.260   5.906   3.624 -0.6942 -0.7850 -1.8237
    9MOL   H430 6686   0.126   5.993   3.806 -0.4979 -0.3923 -0.4059
    9MOL   C431 6687   0.699   5.866   3.115  1.1816 -0.1858 -0.0296
    9MOL   C432 6688   0.626   5.828   3.246  0.2974  0.0630  0.7488
    9MOL   C433 6689   0.656   5.681   3.289 -0.0462 -1.0856  0.1742
    9MOL   C434 6690   0.592   5.634   3.419 -0.2836  0.5382  0.1204
    9MOL   O435 6691   0.454   5.629   3.393  0.1719 -0.4541 -0.1392
    9MOL   C436 6692   0.629   5.583   3.171  0.4133  0.2787 -0.3610
    9MOL   C437 6693   0.695   5.624   3.033  0.6274  0.0749 -0.0370
    9MOL   C438 6694   0.667   5.771   3.001  0.3264 -0.0882  0.5196
    9MOL   C439 6695   0.747   5.806   2.874  0.0582  0.1270 -0.1911
    9MOL   O440 6696   0.683   5.918   2.823  0.1723  0.0233 -0.3929
    9MOL   C441 6697   0.750   6.023   2.764 -0.6158 -0.0687 -0.3583
    9MOL   O442 6698   0.874   6.025   2.740 -0.2318 -0.4229 -0.4835
    9MOL   C443 6699   0.659   6.135   2.719 -0.3505 -0.8298 -0.0530
    9MOL   C444 6700   0.701   6.251   2.647 -0.1342 -0.1872  0.0754
    9MOL   C445 6701   0.611   6.349   2.609 -0.3875  0.0919  0.8603
    9MOL   C446 6702   0.469   6.333   2.622 -1.3178 -0.1187  0.4162
    9MOL   C447 6703   0.364   6.425   2.562  0.6619 -0.5296  0.4430
    9MOL   O448 6704   0.245   6.428   2.602 -0.2345  0.4533 -0.1671
    9MOL   O449 6705   0.414   6.498   2.464 -0.0947 -0.1215  0.4444
    9MOL   C450 6706   0.424   6.217   2.687  0.3816  0.1579 -0.2717
    9MOL   C451 6707   0.518   6.121   2.736 -0.0078 -0.3521  0.5165
    9MOL   H452 6708   0.674   5.967   3.084 -1.6003  0.6013  4.2937
    9MOL   H453 6709   0.807   5.864   3.122  1.3816 -0.5039 -2.5747
    9MOL   H454 6710   0.668   5.892   3.323 -0.3709  1.6513 -0.1963
    9MOL   H455 6711   0.517   5.833   3.242  0.3452  1.2536  0.8668
    9MOL   H456 6712   0.763   5.676   3.308  0.5517  1.2684 -2.1740
    9MOL   H457 6713   0.631   5.534   3.437 -0.7650  0.3728  0.2675
    9MOL   H458 6714   0.623   5.708   3.493  2.6166  0.6505 -1.1359
    9MOL   H459 6715   0.659   5.481   3.194 -1.2801 -0.0951  0.2411
    9MOL   H460 6716   0.521   5.584   3.161  0.3093 -1.2297  0.5426
    9MOL   H461 6717   0.663   5.554   2.956  1.0913  0.4436 -0.5756
    9MOL   H462 6718   0.804   5.629   3.041  0.7245  0.4048 -1.4222
    9MOL   H463 6719   0.560   5.777   2.980  0.1953  0.3221  1.2894
    9MOL   H464 6720   0.854   5.813   2.894 -0.0317 -1.7352  1.0694
    9MOL   H465 6721   0.739   5.731   2.795  1.9663 -0.8685  0.5420
    9MOL   H466 6722   0.805   6.261   2.620 -0.1548 -0.3266 -0.0583
    9MOL   H467 6723   0.647   6.435   2.556 -1.7640 -0.9624 -1.8573
    9MOL   H468 6724   0.319   6.201   2.705  0.1839  0.1876 -1.3277
    9MOL   H469 6725   0.471   6.035   2.781  0.9804 -1.8746 -1.3361
    9MOL   C470 6726   0.300   6.878   2.060  0.3781 -0.4344  0.5467
    9MOL   C471 6727   0.365   6.815   2.182 -0.5318 -0.1376  0.3393
    9MOL   C472 6728   0.253   6.792   2.285  0.5911  0.2272 -0.0937
    9MOL   C473 6729   0.302   6.697   2.404  0.2460 -0.0770  0.7831
    9MOL   O474 6730   0.321   6.561   2.365 -0.3480  0.1414  0.0211
    9MOL   C475 6731   0.194   6.920   2.331  0.2632 -0.2856  0.3711
    9MOL   C476 6732   0.136   6.995   2.208 -0.2462 -0.5980  0.4302
    9MOL   C477 6733   0.238   7.014   2.094 -0.4092 -0.0263 -0.6031
    9MOL   C478 6734   0.179   7.083   1.967 -0.1471 -0.1339  0.1923
    9MOL   O479 6735   0.236   7.205   1.926 -0.3475 -0.0750 -0.1807
    9MOL   C480 6736   0.359   7.205   1.859 -0.0185  0.3743 -0.5783
    9MOL   O481 6737   0.424   7.103   1.833  0.1672  0.4146  0.3718
    9MOL   C482 6738   0.419   7.338   1.841  0.5041 -0.0743 -0.5276
    9MOL   C483 6739   0.554   7.356   1.845 -0.3106 -0.1667  0.7626
    9MOL   C484 6740   0.611   7.485   1.847  0.1600  0.6587  0.2233
    9MOL   C485 6741   0.533   7.600   1.838  0.0273  0.5031 -0.4945
    9MOL   C486 6742   0.590   7.737   1.844 -0.2488  0.2650  0.6103
    9MOL   O487 6743   0.529   7.848   1.842 -0.5060 -0.8697 -0.2525
    9MOL   O488 6744   0.720   7.736   1.862 -0.6993 -0.2611  0.2804
    9MOL   C489 6745   0.396   7.577   1.821  0.9016  0.0005  0.5620
    9MOL   C490 6746   0.336   7.452   1.830 -0.0335 -1.2419 -0.5569
    9MOL   H491 6747   0.376   6.896   1.984 -1.6960  1.8085 -1.0732
    9MOL   H492 6748   0.233   6.809   2.009 -1.0558  1.3635 -0.0546
    9MOL   H493 6749   0.412   6.719   2.157 -0.5386  0.5666 -2.5506
    9MOL   H494 6750   0.450   6.872   2.220 -1.7038  0.3799  2.2330
    9MOL   H495 6751   0.174   6.740   2.231 -1.4299  2.1002  0.9728
    9MOL   H496 6752   0.392   6.748   2.437  0.1120  0.5617  0.1846
    9MOL   H497 6753   0.230   6.703   2.486  0.8924  0.1203  1.3416
    9MOL   H498 6754   0.118   6.913   2.408 -0.2482 -3.1680 -0.3486
    9MOL   H499 6755   0.269   6.987   2.375  0.2579 -0.4595  0.6520
    9MOL   H500 6756   0.101   7.094   2.236 -0.6066 -0.7458  0.5076
    9MOL   H501 6757   0.042   6.949   2.176 -0.2169  0.7732 -1.7381
    9MOL   H502 6758   0.322   7.074   2.128 -1.0643 -0.5009  1.9528
    9MOL   H503 6759   0.191   7.012   1.885 -1.3798 -1.3251  1.0128
    9MOL   H504 6760   0.073   7.101   1.983 -0.6968 -1.8468 -1.3727
    9MOL   H505 6761   0.625   7.275   1.850 -1.2531 -1.1978 -1.6895
    9MOL   H506 6762   0.718   7.483   1.853  0.1965 -1.2679 -0.7604
    9MOL   H507 6763   0.335   7.665   1.810 -0.9894 -1.2364  0.9632
    9MOL   H508 6764   0.230   7.433   1.824 -0.3719 -0.7669  3.0537
    9MOL   C509 6765   1.184   0.038   1.897 -0.5119  0.3134 -0.2143
    9MOL   C510 6766   1.072   7.969   1.890  0.1003  0.0478  1.5842
    9MOL   C511 6767   0.982   7.976   1.769  0.0655 -0.2213 -0.0048
    9MOL   C512 6768   0.886   7.868   1.768 -0.1357  0.6129  0.5808
    9MOL   O513 6769   0.783   7.875   1.859 -0.0481  0.6834 -0.0456
    9MOL   C514 6770   0.914   0.082   1.749  0.2361  0.1423 -0.0091
    9MOL   C515 6771   1.025   0.188   1.754  0.2258 -0.3031 -0.0131
    9MOL   C516 6772   1.112   0.180   1.879 -0.5933  0.2294  0.2021
    9MOL   C517 6773   1.205   0.298   1.896 -0.5265 -0.0644 -0.1572
    9MOL   O518 6774   1.294   0.298   1.788  0.5436 -0.1882 -0.0712
    9MOL   C519 6775   1.424   0.337   1.802 -0.9407 -0.2452  0.0390
    9MOL   O520 6776   1.462   0.384   1.908  0.2554  0.0000 -0.6763
    9MOL   C521 6777   1.515   0.309   1.684 -0.1363 -0.6638  0.3632
    9MOL   C522 6778   1.637   0.375   1.674 -0.1838 -0.0897  0.1011
    9MOL   C523 6779   1.728   0.359   1.568 -0.5978  0.1947 -0.2948
    9MOL   C524 6780   1.684   0.274   1.465 -0.2790 -0.6703  0.2180
    9MOL   C525 6781   1.782   0.243   1.356  0.0070 -0.4510  0.1409
    9MOL   O526 6782   1.756   0.153   1.279  0.2248 -0.1319 -0.2331
    9MOL   O527 6783   1.898   0.311   1.360 -0.4424 -0.0326  0.1332
    9MOL   C528 6784   1.557   0.213   1.466  0.4967 -0.1224 -0.1231
    9MOL   C529 6785   1.472   0.230   1.578 -0.2924 -0.1431 -0.5170
    9MOL   H530 6786   1.234   0.041   1.994 -1.3315 -0.7486  0.2592
    9MOL   H531 6787   1.258   0.023   1.818 -0.4140 -0.3458 -0.0029
    9MOL   H532 6788   1.118   7.870   1.899  0.9978  0.3532  0.4174
    9MOL   H533 6789   1.011   7.984   1.979 -1.0590  0.7048  0.6860
    9MOL   H534 6790   1.045   7.958   1.681  0.4857  0.4025  0.1609
    9MOL   H535 6791   0.842   7.861   1.668 -1.6438  0.3837  1.2482
    9MOL   H536 6792   0.934   7.775   1.799 -1.1442 -1.0507 -2.5532
    9MOL   H537 6793   0.869   0.074   1.650 -1.1014  1.4323  0.4790
    9MOL   H538 6794   0.838   0.087   1.826 -0.1039 -0.9691 -0.2645
    9MOL   H539 6795   0.976   0.285   1.759  0.8904 -0.0959  4.4194
    9MOL   H540 6796   1.085   0.195   1.664  0.7473 -0.6791  0.3017
    9MOL   H541 6797   1.045   0.181   1.965 -0.4299  1.3768  0.3281
    9MOL   H542 6798   1.151   0.391   1.913  1.8582  1.0465  1.6685
    9MOL   H543 6799   1.263   0.274   1.985 -1.2918 -3.1859 -0.4192
    9MOL   H544 6800   1.657   0.440   1.758  0.7410 -2.2461  1.6200
    9MOL   H545 6801   1.825   0.405   1.576 -0.4405 -0.2982  0.7480
    9MOL   H546 6802   1.527   0.146   1.387 -0.8238 -0.4169  0.5997
    9MOL   H547 6803   1.370   0.195   1.589 -0.7894  1.7619  1.2006
    9MOL   C548 6804   2.330   0.335   1.605  0.0935 -0.9131  0.1227
    9MOL   C549 6805   2.288   0.256   1.482  0.0447 -0.5906  0.2499
    9MOL   C550 6806   2.136   0.222   1.492 -0.2807 -0.0695 -0.1098
    9MOL   C551 6807   2.085   0.161   1.362  0.4175  0.0190  0.1533
    9MOL   O552 6808   2.016   0.258   1.286 -0.5071  0.3475 -0.5257
    9MOL   C553 6809   2.113   0.135   1.612  0.3361 -0.4866 -0.5393
    9MOL   C554 6810   2.157   0.204   1.747  0.0202  0.2983  0.1190
    9MOL   C555 6811   2.301   0.251   1.738 -0.1172  0.7816 -0.0063
    9MOL   C556 6812   2.340   0.334   1.859  0.0107  0.2786 -0.0355
    9MOL   O557 6813   2.480   0.345   1.873 -0.4416 -0.4584  0.5101
    9MOL   C558 6814   2.540   0.466   1.849 -0.3751 -0.5177  0.2856
    9MOL   O559 6815   2.484   0.568   1.816  0.1427 -0.4747 -0.3970
    9MOL   C560 6816   2.689   0.453   1.846  0.1440  0.3540 -0.3104
    9MOL   C561 6817   2.762   0.541   1.767  0.1320 -0.4108 -0.1809
    9MOL   C562 6818   2.901   0.548   1.769  0.7585 -0.7256  0.2329
    9MOL   C563 6819   2.971   0.448   1.835  0.2686 -0.6293 -0.4440
    9MOL   C564 6820   3.120   0.440   1.818  0.2380 -0.2005 -0.0920
    9MOL   O565 6821   3.187   0.527   1.761 -0.0594 -0.0926  0.5522
    9MOL   O566 6822   3.177   0.330   1.866 -0.0871 -0.1423  0.0982
    9MOL   C567 6823   2.900   0.354   1.913 -1.1666 -0.5831  0.6452
    9MOL   C568 6824   2.759   0.353   1.916 -0.5688 -0.1788 -0.6815
    9MOL   H569 6825   2.438   0.346   1.601  0.0774 -0.9980 -0.5879
    9MOL   H570 6826   2.286   0.435   1.598  0.1325 -1.0362 -2.4592
    9MOL   H571 6827   2.294   0.331   1.403 -0.1416 -1.4911 -0.6396
    9MOL   H572 6828   2.363   0.180   1.465  0.4621 -0.4828  1.6128
    9MOL   H573 6829   2.087   0.316   1.518 -2.0255 -1.0407  0.1833
    9MOL   H574 6830   2.167   0.116   1.306  0.1706 -2.3712  1.6352
    9MOL   H575 6831   2.030   0.067   1.365 -3.1217  1.9081 -1.6427
    9MOL   H576 6832   2.009   0.102   1.617  0.5313 -0.6756  2.8984
    9MOL   H577 6833   2.160   0.038   1.589 -0.0309 -0.8295  0.1618
    9MOL   H578 6834   2.142   0.143   1.836 -1.5772  0.7706  0.1968
    9MOL   H579 6835   2.087   0.284   1.772 -0.1457  1.0966 -2.7017
    9MOL   H580 6836   2.363   0.162   1.736  2.0416  2.2641 -0.8065
    9MOL   H581 6837   2.286   0.428   1.867  1.2789  1.0122  0.2069
    9MOL   H582 6838   2.314   0.278   1.949  2.2571 -0.9081 -0.0693
    9MOL   H583 6839   2.713   0.623   1.717  1.9762 -0.6471 -2.4620
    9MOL   H584 6840   2.948   0.630   1.716 -2.0610  0.5704 -0.3447
    9MOL   H585 6841   2.953   0.275   1.964  2.2125  2.1780  1.6170
    9MOL   H586 6842   2.711   0.284   1.984 -0.9624  1.3035  0.5852
    9MOL   C587 6843   3.747   0.251   1.969  0.6474  0.5360 -0.2236
    9MOL   C588 6844   3.594   0.231   1.936  0.2767  1.2957  0.3871
    9MOL   C589 6845   3.547   0.308   1.810 -0.8236 -0.0472 -0.3857
    9MOL   C590 6846   3.398   0.286   1.790  0.4361  1.0972 -0.4345
    9MOL   O591 6847   3.327   0.340   1.891 -0.1966 -0.3695  0.4065
    9MOL   C592 6848   3.586   0.455   1.831  0.3635 -1.0482 -0.2749
    9MOL   C593 6849   3.730   0.477   1.859 -0.0911  0.5164  0.3007
    9MOL   C594 6850   3.787   0.404   1.985  0.5317  0.1831 -0.7047
    9MOL   C595 6851   3.939   0.422   1.998  0.4547 -0.7774 -0.1440
    9MOL   O596 6852   3.978   0.560   1.994  0.3776 -0.9809  0.7075
    9MOL   C597 6853   3.965   0.630   2.106  0.3611 -0.2286 -0.1891
    9MOL   O598 6854   3.915   0.587   2.211 -1.0970  0.4938  0.0153
    9MOL   C599 6855   4.001   0.775   2.094  0.5523  0.0501 -0.3453
    9MOL   C600 6856   3.989   0.870   2.202  0.3600  0.7048 -0.0574
    9MOL   C601 6857   4.013   1.007   2.186  0.2842 -0.0928  0.0483
    9MOL   C602 6858   4.054   1.062   2.061  0.4234 -0.0893  0.0766
    9MOL   C603 6859   4.106   1.197   2.046 -0.1293 -0.2114  0.5829
    9MOL   O604 6860   4.096   1.282   2.135 -0.2813 -0.1234 -0.3846
    9MOL   O605 6861   4.186   1.221   1.933 -0.6239  0.2485  0.7879
    9MOL   C606 6862   4.059   0.964   1.959 -0.0239 -0.0205  0.1887
    9MOL   C607 6863   4.038   0.831   1.968 -0.5291  0.0878  0.5126
    9MOL   H608 6864   3.777   0.181   2.047  2.0193  1.0241 -0.3112
    9MOL   H609 6865   3.801   0.224   1.878 -0.7549  0.8538 -1.1736
    9MOL   H610 6866   3.573   0.125   1.918 -0.8650  1.2201  2.1143
    9MOL   H611 6867   3.526   0.256   2.017 -0.4286  1.3056 -0.2036
    9MOL   H612 6868   3.615   0.275   1.732 -0.4168  0.1065 -0.0974
    9MOL   H613 6869   3.365   0.345   1.705  1.4491  0.5456 -1.2269
    9MOL   H614 6870   3.380   0.179   1.774 -0.5782  0.9166  1.6406
    9MOL   H615 6871   3.549   0.526   1.758  1.0663  0.0616  0.4474
    9MOL   H616 6872   3.529   0.481   1.920 -1.0532 -2.0805 -0.8606
    9MOL   H617 6873   3.728   0.584   1.880 -3.4406  0.9792 -2.0075
    9MOL   H618 6874   3.786   0.455   1.768 -0.8844  0.5229 -0.1948
    9MOL   H619 6875   3.733   0.447   2.070  1.1282 -0.2119 -0.1212
    9MOL   H620 6876   3.984   0.378   2.086  0.1935 -0.6048  0.0767
    9MOL   H621 6877   3.987   0.377   1.911 -0.5804 -1.7223 -0.2359
    9MOL   H622 6878   3.961   0.828   2.298  2.0011 -2.1329 -0.7447
    9MOL   H623 6879   4.016   1.069   2.274  0.3772 -0.6420  0.4372
    9MOL   H624 6880   4.078   1.007   1.862  3.3552  2.6141  1.9108
    9MOL   H625 6881   4.051   0.773   1.879  0.8072 -0.5012  1.0756
    9MOL   C626 6882   4.666   1.572   1.870  1.0117  0.4206  0.5234
    9MOL   C627 6883   4.543   1.471   1.865  0.5682 -0.0743 -0.2671
    9MOL   C628 6884   4.483   1.431   2.005  0.1066  0.2774 -0.2731
    9MOL   C629 6885   4.394   1.307   1.992 -0.6538 -0.2937 -0.4237
    9MOL   O630 6886   4.266   1.347   1.944  0.1479  0.1111  0.1430
    9MOL   C631 6887   4.596   1.399   2.116 -0.5064 -1.4634 -0.3591
    9MOL   C632 6888   4.705   1.505   2.110 -0.0423  0.4818  0.1815
    9MOL   C633 6889   4.765   1.520   1.968  0.2870  1.1177 -0.3629
    9MOL   C634 6890   4.891   1.605   1.965 -0.6730 -0.4600  0.1747
    9MOL   O635 6891   4.958   1.577   1.843 -0.3909  0.0379 -0.1817
    9MOL   C636 6892   5.061   1.503   1.840 -1.0044  0.5039 -0.1097
    9MOL   O637 6893   5.107   1.442   1.941  0.7106  0.0323  0.3035
    9MOL   C638 6894   5.123   1.486   1.703 -0.4667  0.1096  0.0510
    9MOL   C639 6895   5.224   1.392   1.690 -0.6059 -0.1636  0.3429
    9MOL   C640 6896   5.285   1.375   1.566  0.0778 -0.5116 -0.4569
    9MOL   C641 6897   5.236   1.456   1.455 -0.2635  0.7048 -0.2142
    9MOL   C642 6898   5.302   1.435   1.321 -0.2870 -0.1621  0.1382
    9MOL   O643 6899   5.370   1.334   1.298 -0.0832  0.0077  0.0661
    9MOL   O644 6900   5.287   1.532   1.237  0.7619  0.1306  0.0626
    9MOL   C645 6901   5.143   1.559   1.476  0.4806 -0.3814  0.0198
    9MOL   C646 6902   5.078   1.566   1.598 -0.0377  0.9303  0.0454
    9MOL   H647 6903   4.700   1.574   1.767 -1.9096  0.9685 -0.4727
    9MOL   H648 6904   4.640   1.674   1.897  1.8850  0.6971  0.3423
    9MOL   H649 6905   4.459   1.512   1.808 -0.0190  1.5703  1.7229
    9MOL   H650 6906   4.574   1.374   1.825 -0.5200 -1.0250  1.1122
    9MOL   H651 6907   4.426   1.515   2.046  1.1183  1.3397 -1.0368
    9MOL   H652 6908   4.424   1.213   1.945  0.7028  0.6736 -1.5397
    9MOL   H653 6909   4.379   1.282   2.097  1.1172 -0.4511 -0.1959
    9MOL   H654 6910   4.556   1.389   2.217  1.4718 -1.5728  0.4344
    9MOL   H655 6911   4.650   1.306   2.099  1.7922 -0.4423  1.1536
    9MOL   H656 6912   4.783   1.474   2.181 -0.5732  1.3348  1.1490
    9MOL   H657 6913   4.682   1.606   2.145  1.5170  1.3438 -1.2029
    9MOL   H658 6914   4.792   1.422   1.928 -1.0861  0.2081  0.8993
    9MOL   H659 6915   4.854   1.708   1.963 -0.3695 -0.3090  2.0776
    9MOL   H660 6916   4.957   1.597   2.051 -0.8972 -0.3424  0.3578
    9MOL   H661 6917   5.248   1.324   1.770 -1.0712 -0.1857  0.4646
    9MOL   H662 6918   5.364   1.303   1.554  1.9379  1.5431 -0.9688
    9MOL   H663 6919   5.096   1.624   1.404 -1.0738  0.6787  1.9370
    9MOL   H664 6920   4.994   1.633   1.610  0.7150  2.0399 -0.8740
    9MOL   C665 6921   5.590   1.568   0.741 -0.1347  0.0614  0.4398
    9MOL   C666 6922   5.492   1.585   0.854 -0.3916 -0.1816  0.0683
    9MOL   C667 6923   5.566   1.567   0.991  0.4406 -0.0151  0.7867
    9MOL   C668 6924   5.479   1.585   1.113  0.2018 -0.1340  0.6770
    9MOL   O669 6925   5.361   1.508   1.109  0.0368  0.0890 -0.1408
    9MOL   C670 6926   5.628   1.432   0.994 -0.0843 -0.1000  0.4185
    9MOL   C671 6927   5.731   1.419   0.880  0.1470 -0.2682  0.0012
    9MOL   C672 6928   5.665   1.435   0.746  0.9843  0.7390 -0.3201
    9MOL   C673 6929   5.764   1.415   0.633 -0.0672  0.1545 -0.2189
    9MOL   O674 6930   5.714   1.439   0.500 -0.4709 -0.1962 -0.1773
    9MOL   C675 6931   5.674   1.325   0.428 -0.1913 -0.0344  0.8221
    9MOL   O676 6932   5.667   1.213   0.480  0.1767 -0.1900 -0.0331
    9MOL   C677 6933   5.655   1.360   0.283 -0.4966 -0.4267  0.0902
    9MOL   C678 6934   5.669   1.263   0.182  0.1217  0.3028  0.1921
    9MOL   C679 6935   5.657   1.298   0.043  0.1071 -0.4709 -0.2345
    9MOL   C680 6936   5.642   1.434   0.007  0.5980  0.4701 -0.6514
    9MOL   C681 6937   5.621   1.463   7.900  0.4028  0.0664 -0.7424
    9MOL   O682 6938   5.662   1.388   7.809 -0.4522 -0.3999  0.4488
    9MOL   O683 6939   5.556   1.571   7.874 -0.4052  0.0915 -0.4271
    9MOL   C684 6940   5.633   1.537   0.110  0.6428  0.2401 -0.3608
    9MOL   C685 6941   5.638   1.498   0.247  0.0945 -0.9125  0.7135
    9MOL   H686 6942   5.539   1.587   0.647 -0.2584 -2.8690 -0.1292
    9MOL   H687 6943   5.664   1.648   0.747  0.9660 -0.9533  0.3962
    9MOL   H688 6944   5.437   1.679   0.848 -3.0873 -1.6030  1.5572
    9MOL   H689 6945   5.406   1.519   0.843 -0.9196  0.9070 -2.6788
    9MOL   H690 6946   5.641   1.646   0.995 -0.3124  0.7832 -0.4715
    9MOL   H691 6947   5.537   1.561   1.202  0.7580 -1.8710 -0.1539
    9MOL   H692 6948   5.445   1.688   1.100 -0.8976 -0.7898 -1.8857
    9MOL   H693 6949   5.688   1.415   1.084  0.0937  0.3026  0.3729
    9MOL   H694 6950   5.548   1.358   0.998 -0.8287  0.7313  0.9097
    9MOL   H695 6951   5.778   1.321   0.885 -1.0282 -0.8520 -0.3214
    9MOL   H696 6952   5.822   1.477   0.894  0.1631 -0.5621  1.2052
    9MOL   H697 6953   5.585   1.361   0.736 -0.4681  2.3869 -1.1949
    9MOL   H698 6954   5.836   1.493   0.657 -0.5450  0.1651  1.2045
    9MOL   H699 6955   5.822   1.323   0.634 -1.6428 -0.8450  0.7100
    9MOL   H700 6956   5.702   1.162   0.202  0.5778  0.1564 -1.2730
    9MOL   H701 6957   5.679   1.225   8.002  2.1278  0.2009 -0.3304
    9MOL   H702 6958   5.621   1.642   0.089 -0.2800  0.3836  0.8433
    9MOL   H703 6959   5.624   1.580   0.317 -3.7823  0.5941 -1.6980
    9MOL   C704 6960   5.359   1.677   7.296  0.0515  0.7839 -0.3502
    9MOL   C705 6961   5.349   1.629   7.446 -0.6375  0.1168 -0.4046
    9MOL   C706 6962   5.484   1.654   7.516 -0.3222 -0.6671  0.2351
    9MOL   C707 6963   5.472   1.601   7.660 -0.1297  0.6019 -0.2694
    9MOL   O708 6964   5.586   1.634   7.736 -0.3627 -0.2215  0.6682
    9MOL   C709 6965   5.594   1.589   7.443 -0.5044 -0.2451  0.5656
    9MOL   C710 6966   5.608   1.646   7.306 -0.0190 -0.4288 -0.0818
    9MOL   C711 6967   5.488   1.622   7.227 -0.8041 -0.0287 -0.2343
    9MOL   C712 6968   5.500   1.662   7.076 -0.4672  0.4189 -0.0400
    9MOL   O713 6969   5.603   1.586   7.011 -0.5847  0.3454 -0.4793
    9MOL   C714 6970   5.588   1.464   6.953  0.0706 -0.2124 -0.2678
    9MOL   O715 6971   5.483   1.403   6.942  0.3240 -0.1178  0.4406
    9MOL   C716 6972   5.718   1.407   6.904 -0.6991 -0.5121 -0.9595
    9MOL   C717 6973   5.828   1.488   6.890  0.1860 -0.3328  0.5747
    9MOL   C718 6974   5.950   1.445   6.831  0.2925  0.0552  0.1215
    9MOL   C719 6975   5.948   1.305   6.795 -0.1245 -0.7811 -0.3388
    9MOL   C720 6976   6.072   1.245   6.738 -0.2299  0.5297 -0.6448
    9MOL   O721 6977   6.069   1.155   6.653  0.0816 -0.0801 -0.0250
    9MOL   O722 6978   6.183   1.287   6.792 -0.8398 -0.5360  0.0396
    9MOL   C723 6979   5.841   1.220   6.829  0.1310 -0.1524  0.0934
    9MOL   C724 6980   5.717   1.267   6.880 -0.0748 -0.2658  0.2677
    9MOL   H725 6981   5.270   1.647   7.239 -0.4242 -3.1128  2.2128
    9MOL   H726 6982   5.354   1.786   7.293 -2.5620  0.7164  0.0529
    9MOL   H727 6983   5.274   1.686   7.500  0.0641 -1.1488  1.9674
    9MOL   H728 6984   5.332   1.522   7.454  0.5829 -0.2231 -2.1026
    9MOL   H729 6985   5.489   1.762   7.520 -0.8493 -0.5733 -1.0847
    9MOL   H730 6986   5.388   1.655   7.703  0.4998  0.9935  0.4750
    9MOL   H731 6987   5.461   1.492   7.658  0.8396  0.5053 -1.6496
    9MOL   H732 6988   5.686   1.606   7.501  2.2245 -0.0588 -3.6189
    9MOL   H733 6989   5.578   1.482   7.441 -0.7872 -0.3045  3.2737
    9MOL   H734 6990   5.688   1.596   7.250  2.2968  1.0860  1.7915
    9MOL   H735 6991   5.635   1.751   7.313  2.0869 -0.8884 -0.9507
    9MOL   H736 6992   5.485   1.513   7.233 -1.1377  0.0527  1.3891
    9MOL   H737 6993   5.401   1.644   7.032 -0.3367  0.2258 -0.2540
    9MOL   H738 6994   5.526   1.768   7.072  1.6435 -0.1424 -1.4547
    9MOL   H739 6995   5.828   1.585   6.938  2.9610 -0.1754  0.3377
    9MOL   H740 6996   6.041   1.501   6.821  1.4790 -2.1136 -1.5780
    9MOL   H741 6997   5.855   1.115   6.806  0.4781  0.2176 -1.4248
    9MOL   H742 6998   5.631   1.204   6.898 -1.6933  2.0668  0.8215
    9MOL   C743 6999   6.442   1.382   6.268 -0.2882  0.2023  0.1079
    9MOL   C744 7000   6.352   1.349   6.387 -0.7770 -0.4458 -0.7583
    9MOL   C745 7001   6.391   1.425   6.512  0.1899  0.2474 -0.8527
    9MOL   C746 7002   6.280   1.427   6.621  0.1712  0.2958 -0.0779
    9MOL   O747 7003   6.289   1.296   6.687  0.3470 -0.0126 -0.0331
    9MOL   C748 7004   6.535   1.387   6.554  0.0229  0.3970 -0.2808
    9MOL   C749 7005   6.628   1.394   6.434  0.0728 -0.9620 -0.3831
    9MOL   C750 7006   6.578   1.328   6.302  0.1124 -0.3001 -0.0001
    9MOL   C751 7007   6.665   1.331   6.184  0.4767  0.2566 -0.1563
    9MOL   O752 7008   6.694   1.461   6.140 -0.1493 -0.3067  0.7132
    9MOL   C753 7009   6.814   1.521   6.156  0.5050  0.0838  0.2221
    9MOL   O754 7010   6.910   1.456   6.198 -0.1154  0.0273  0.1381
    9MOL   C755 7011   6.810   1.668   6.141 -0.2184  0.0830 -0.0821
    9MOL   C756 7012   6.896   1.742   6.227  0.2538 -0.2464  0.1076
    9MOL   C757 7013   6.902   1.881   6.216 -0.8486 -0.7444  0.1272
    9MOL   C758 7014   6.823   1.947   6.119  0.3546 -0.2063 -0.1827
    9MOL   C759 7015   6.821   2.100   6.102  1.2561  0.5313 -0.5554
    9MOL   O760 7016   6.908   2.173   6.145  0.6339  0.3891  0.5557
    9MOL   O761 7017   6.707   2.149   6.039 -0.6403  0.1301  0.5022
    9MOL   C762 7018   6.730   1.870   6.040  0.5743  0.4865 -0.2253
    9MOL   C763 7019   6.720   1.731   6.058 -0.9145  0.3362  0.5205
    9MOL   H764 7020   6.398   1.337   6.180  0.7523 -0.2340 -0.2028
    9MOL   H765 7021   6.450   1.485   6.234 -0.0541  0.8323  1.9713
    9MOL   H766 7022   6.249   1.379   6.365 -1.0915 -1.5635 -0.8395
    9MOL   H767 7023   6.351   1.244   6.417  2.8490 -0.4487 -0.4459
    9MOL   H768 7024   6.405   1.526   6.472 -0.0637  0.7433  0.2938
    9MOL   H769 7025   6.293   1.504   6.698 -0.7845  0.2915  0.0919
    9MOL   H770 7026   6.190   1.458   6.569  0.1132  0.5659  0.1811
    9MOL   H771 7027   6.567   1.452   6.635  1.5459  2.4378 -2.4466
    9MOL   H772 7028   6.539   1.286   6.594  1.4162 -0.1665 -1.7818
    9MOL   H773 7029   6.726   1.350   6.454  0.3695 -1.1472 -2.1767
    9MOL   H774 7030   6.647   1.500   6.419 -0.9617 -0.2384  2.8532
    9MOL   H775 7031   6.571   1.221   6.326 -1.2246  0.0850  1.4179
    9MOL   H776 7032   6.761   1.286   6.207 -0.4239 -0.8315  1.5887
    9MOL   H777 7033   6.630   1.266   6.103  2.5358 -0.6847 -0.3341
    9MOL   H778 7034   6.965   1.695   6.296 -0.6751  0.7933  1.7920
    9MOL   H779 7035   6.979   1.934   6.271 -1.0447  0.7686 -1.0285
    9MOL   H780 7036   6.657   1.915   5.974  1.5911 -1.1383 -2.5426
    9MOL   H781 7037   6.654   1.674   5.995  0.8942  0.5236 -1.5915
    9MOL   H782 7038   6.709   2.243   6.052 -4.5940  0.4878 -0.7844
   10MOL     C1 7039   3.645   2.821   1.466 -0.0267 -0.4964  0.2348
   10MOL     C2 7040   3.535   2.932   1.434 -0.7986 -1.2806 -0.0383
   10MOL     C3 7041   3.595   3.079   1.429  0.2334 -0.2270  0.0114
   10MOL     C4 7042   3.491   3.188   1.418  0.2292  0.5322 -0.6188
   10MOL     O5 7043   3.389   3.158   1.330  0.7947  0.0751  0.1851
   10MOL     C6 7044   3.690   3.104   1.554  0.3415  0.2857 -0.0085
   10MOL     C7 7045   3.787   2.995   1.593  0.0419  0.1460  0.1534
   10MOL     C8 7046   3.724   2.857   1.594 -0.1675 -0.1639 -0.2859
   10MOL     C9 7047   3.820   2.737   1.637 -0.4764 -0.5412  0.5754
   10MOL    O10 7048   3.897   2.764   1.755  0.4261  0.0855 -0.2956
   10MOL    C11 7049   4.020   2.715   1.770 -0.8414  0.1656 -0.4978
   10MOL    O12 7050   4.069   2.637   1.687 -0.0473 -0.7357  0.2730
   10MOL    C13 7051   4.091   2.757   1.893 -0.7284  0.0259 -0.5638
   10MOL    C14 7052   4.226   2.716   1.931  0.0457  0.4005 -0.3384
   10MOL    C15 7053   4.282   2.765   2.051  0.4381  0.4461  0.3814
   10MOL    C16 7054   4.219   2.865   2.129 -0.6783  0.8608  0.6506
   10MOL    C17 7055   4.287   2.919   2.248  0.2522 -0.6874 -0.3027
   10MOL    O18 7056   4.258   3.026   2.293  0.2808 -0.6483  0.5573
   10MOL    O19 7057   4.381   2.835   2.294  0.5348 -0.4064 -0.8754
   10MOL    C20 7058   4.096   2.911   2.081  0.1384  0.7399 -0.3646
   10MOL    C21 7059   4.029   2.861   1.969  0.5960  0.1574 -0.0942
   10MOL    H22 7060   3.601   2.722   1.481  0.2440 -0.9209 -1.7259
   10MOL    H23 7061   3.714   2.808   1.383  0.5658 -1.1936  0.8225
   10MOL    H24 7062   3.482   2.903   1.344 -4.0012 -1.9900  2.0029
   10MOL    H25 7063   3.461   2.940   1.514 -0.1387  1.4383  0.3669
   10MOL    H26 7064   3.651   3.074   1.336 -0.8107 -0.5535 -0.6154
   10MOL    H27 7065   3.438   3.194   1.513  2.1395 -0.8591  0.5738
   10MOL    H28 7066   3.538   3.286   1.413  1.3343 -0.0951 -3.2630
   10MOL    H29 7067   3.745   3.198   1.546 -0.1625  0.5956  0.1428
   10MOL    H30 7068   3.631   3.125   1.643 -0.7366  0.0899 -0.6565
   10MOL    H31 7069   3.830   3.012   1.692  0.2796  1.1356 -0.1243
   10MOL    H32 7070   3.866   2.993   1.518 -1.2033 -0.7089 -1.1768
   10MOL    H33 7071   3.645   2.856   1.669 -0.5909 -0.6920 -0.7370
   10MOL    H34 7072   3.764   2.645   1.653 -1.7973  0.2756  0.7371
   10MOL    H35 7073   3.883   2.714   1.550 -0.8743  0.6141 -0.0339
   10MOL    H36 7074   4.265   2.631   1.876 -0.1633 -0.6034  1.0220
   10MOL    H37 7075   4.378   2.723   2.079  0.3088 -1.4501 -1.8839
   10MOL    H38 7076   4.053   2.988   2.143  1.2217 -1.4702  3.3318
   10MOL    H39 7077   3.931   2.902   1.951  0.7312  0.7531  0.5186
   10MOL    H40 7078   3.328   3.229   1.341 -0.4121 -1.2569  2.5213
   10MOL    C41 7079   4.952   3.029   2.410 -0.1854 -0.0108  0.2628
   10MOL    C42 7080   4.834   2.984   2.324 -0.6315 -0.6027  0.3889
   10MOL    C43 7081   4.708   2.959   2.411  0.1054  0.3854  0.4595
   10MOL    C44 7082   4.588   2.927   2.324  0.1386 -0.5018 -0.7624
   10MOL    O45 7083   4.479   2.889   2.397 -0.2719  0.0012 -0.2516
   10MOL    C46 7084   4.738   2.842   2.509  0.4833  0.5498  0.4157
   10MOL    C47 7085   4.866   2.869   2.596 -0.3242 -0.5026  0.4418
   10MOL    C48 7086   4.988   2.909   2.505  0.6468 -0.4415  0.4082
   10MOL    C49 7087   5.114   2.947   2.590  0.2475 -0.5870  0.0201
   10MOL    O50 7088   5.104   3.082   2.634 -0.2555 -0.2736  0.6172
   10MOL    C51 7089   5.172   3.122   2.751 -0.1672  0.3221 -0.0897
   10MOL    O52 7090   5.248   3.054   2.820  0.4811 -0.0967  0.8873
   10MOL    C53 7091   5.148   3.263   2.782 -0.2245  0.1726  0.2974
   10MOL    C54 7092   5.081   3.344   2.689  0.2324 -0.0467 -0.2934
   10MOL    C55 7093   5.067   3.483   2.706  0.4918 -0.3683  0.4168
   10MOL    C56 7094   5.127   3.538   2.820  0.1279  0.4639  0.5272
   10MOL    C57 7095   5.099   3.682   2.850  0.0525 -0.1770  1.1714
   10MOL    O58 7096   4.999   3.748   2.825 -0.3241 -0.1240 -0.3840
   10MOL    O59 7097   5.203   3.735   2.912  0.1313  0.5733 -0.1043
   10MOL    C60 7098   5.187   3.458   2.917 -0.3940 -0.5438 -0.1643
   10MOL    C61 7099   5.202   3.318   2.899  0.4736 -0.3426  0.0864
   10MOL    H62 7100   5.033   3.062   2.346 -1.6424  0.5742 -1.3433
   10MOL    H63 7101   4.921   3.118   2.465 -2.8645 -0.4421 -0.4572
   10MOL    H64 7102   4.815   3.066   2.254  2.4317  0.0694  0.2765
   10MOL    H65 7103   4.859   2.896   2.265  0.3765  0.6153 -1.0591
   10MOL    H66 7104   4.685   3.044   2.476 -0.7376  0.7997 -0.3845
   10MOL    H67 7105   4.552   3.008   2.261 -0.7638 -0.0257  0.3381
   10MOL    H68 7106   4.613   2.840   2.265  1.7483 -1.0259  0.6541
   10MOL    H69 7107   4.649   2.832   2.571  0.3997  2.4610  0.6276
   10MOL    H70 7108   4.761   2.748   2.458  1.0093  0.1504  1.3730
   10MOL    H71 7109   4.892   2.786   2.661  0.1205  0.9979  2.2384
   10MOL    H72 7110   4.852   2.949   2.669  0.0742 -0.0608  0.0437
   10MOL    H73 7111   5.012   2.824   2.440  0.4605 -0.1398 -0.0554
   10MOL    H74 7112   5.114   2.880   2.675 -0.9607  0.7437  1.0959
   10MOL    H75 7113   5.205   2.928   2.533  0.7579 -1.4452  1.1106
   10MOL    H76 7114   5.039   3.304   2.598  0.6748  0.9584 -0.9390
   10MOL    H77 7115   4.990   3.535   2.651  1.5590 -0.2657 -1.0091
   10MOL    H78 7116   5.229   3.488   3.013  2.9865 -0.2811 -1.6470
   10MOL    H79 7117   5.253   3.259   2.974  3.2612  1.3460 -0.4100
   10MOL    C80 7118   5.363   3.872   2.425  0.1414  0.5971 -0.0128
   10MOL    C81 7119   5.406   3.887   2.573  0.2850  0.2747  0.3941
   10MOL    C82 7120   5.289   3.910   2.664  0.2361  0.1465  0.4863
   10MOL    C83 7121   5.330   3.906   2.816  0.0395  0.1885  0.1223
   10MOL    O84 7122   5.217   3.882   2.898  0.1043  0.2150 -0.1712
   10MOL    C85 7123   5.206   4.032   2.626 -0.4053 -0.3645 -0.0379
   10MOL    C86 7124   5.158   4.028   2.480 -0.9987  0.8851  0.2123
   10MOL    C87 7125   5.280   3.998   2.383 -0.1284  0.1364  0.1389
   10MOL    C88 7126   5.233   3.978   2.245 -0.2472  0.2746 -0.0397
   10MOL    O89 7127   5.174   4.092   2.188 -0.4428  0.5003  0.3038
   10MOL    C90 7128   5.097   4.081   2.078 -0.1454 -0.1387  0.6090
   10MOL    O91 7129   5.057   3.976   2.033  1.0535  0.1647  0.6680
   10MOL    C92 7130   5.068   4.205   2.018 -0.3765 -1.0033  0.2471
   10MOL    C93 7131   5.074   4.329   2.087 -1.1057  0.1231 -1.0676
   10MOL    C94 7132   5.048   4.451   2.022 -0.7622 -0.5955  1.1168
   10MOL    C95 7133   4.999   4.453   1.890  0.2724 -0.2135 -0.7029
   10MOL    C96 7134   4.967   4.580   1.819 -0.8980  0.6265  0.7030
   10MOL    O97 7135   4.977   4.598   1.698 -0.4772  0.0019 -0.3999
   10MOL    O98 7136   4.948   4.679   1.901 -0.2074 -0.3726  0.0568
   10MOL    C99 7137   5.003   4.328   1.821  0.8708  0.4375  0.3885
   10MOL   C100 7138   5.039   4.207   1.881 -0.9818  0.1556 -0.2894
   10MOL   H101 7139   5.453   3.859   2.365 -0.8322 -1.1460 -1.1472
   10MOL   H102 7140   5.303   3.783   2.408  1.4751 -0.3970  0.3994
   10MOL   H103 7141   5.456   3.794   2.600 -1.6288 -0.6850  0.6898
   10MOL   H104 7142   5.469   3.976   2.581  0.5615  0.1643 -0.4960
   10MOL   H105 7143   5.225   3.823   2.648  0.1915 -0.1434  2.1345
   10MOL   H106 7144   5.401   3.824   2.826 -1.8368 -1.6199 -0.9291
   10MOL   H107 7145   5.375   3.997   2.855 -0.5348  0.7398 -0.5006
   10MOL   H108 7146   5.126   4.059   2.694 -0.0543  1.3370 -0.2784
   10MOL   H109 7147   5.270   4.121   2.631  0.2536 -0.7925 -0.7109
   10MOL   H110 7148   5.138   4.133   2.458 -0.5223  0.7617 -0.8607
   10MOL   H111 7149   5.077   3.956   2.470  0.3141 -0.5796 -0.0183
   10MOL   H112 7150   5.355   4.077   2.384  0.8494 -0.7807  1.0977
   10MOL   H113 7151   5.314   3.948   2.178  0.7412  1.8056  0.4258
   10MOL   H114 7152   5.177   3.886   2.234 -0.2240  0.3915 -1.1357
   10MOL   H115 7153   5.106   4.327   2.191 -0.0226  3.5494 -1.2636
   10MOL   H116 7154   5.050   4.548   2.070 -2.1350 -0.2136  0.4056
   10MOL   H117 7155   4.948   4.312   1.729 -0.4535 -1.6293  1.4927
   10MOL   H118 7156   5.045   4.113   1.829  0.4825 -0.3417  0.7373
   10MOL   C119 7157   4.648   5.142   1.780 -0.1557  0.6438  0.4118
   10MOL   C120 7158   4.729   5.035   1.843  0.0972 -0.2655 -0.3719
   10MOL   C121 7159   4.882   5.029   1.803 -0.0791 -0.1384 -0.5130
   10MOL   C122 7160   4.961   4.914   1.860  0.1776 -0.0114  0.0856
   10MOL   O123 7161   4.894   4.798   1.825  0.2620  0.2107  0.2744
   10MOL   C124 7162   4.899   5.037   1.654 -0.6466  0.3467  0.9254
   10MOL   C125 7163   4.813   5.149   1.591 -0.3520  0.6357 -0.2531
   10MOL   C126 7164   4.660   5.128   1.620 -0.0284 -0.8825 -0.5303
   10MOL   C127 7165   4.576   5.227   1.557 -0.2943  0.2948 -0.6809
   10MOL   O128 7166   4.449   5.180   1.510  0.8547 -0.5761 -0.1276
   10MOL   C129 7167   4.368   5.269   1.445  0.0396 -0.1034 -0.3188
   10MOL   O130 7168   4.391   5.390   1.439 -0.0350 -0.1652  0.1943
   10MOL   C131 7169   4.256   5.202   1.374  0.3541 -0.0219  0.3907
   10MOL   C132 7170   4.270   5.072   1.337 -0.1552  0.5554  0.2479
   10MOL   C133 7171   4.172   5.004   1.263 -0.1719 -0.7081  0.0468
   10MOL   C134 7172   4.067   5.078   1.207 -0.0121 -0.3828  0.0556
   10MOL   C135 7173   3.978   5.004   1.107 -0.5584  0.3704 -0.6509
   10MOL   O136 7174   3.983   4.885   1.079  0.0469  0.3995  0.2364
   10MOL   O137 7175   3.888   5.088   1.043 -0.1157 -0.8170  0.1711
   10MOL   C138 7176   4.041   5.210   1.246 -0.6881 -0.1439 -0.0357
   10MOL   C139 7177   4.137   5.273   1.335  0.8735 -0.4468  0.6267
   10MOL   H140 7178   4.544   5.132   1.810 -0.4968  0.2683 -0.8769
   10MOL   H141 7179   4.678   5.243   1.809  1.2824 -0.2775  2.2691
   10MOL   H142 7180   4.727   5.035   1.952  0.7405  1.5084 -0.3350
   10MOL   H143 7181   4.691   4.939   1.811 -2.8758  2.0347 -4.0930
   10MOL   H144 7182   4.919   5.118   1.854 -1.2716  1.0958 -1.7406
   10MOL   H145 7183   5.067   4.903   1.835  0.3925 -0.9865  1.3655
   10MOL   H146 7184   4.948   4.915   1.968  0.3590  0.9092  0.0979
   10MOL   H147 7185   5.004   5.037   1.624 -1.0060  0.4415 -0.3534
   10MOL   H148 7186   4.864   4.941   1.617  1.4060  0.9535 -2.8312
   10MOL   H149 7187   4.830   5.160   1.484  0.8443 -0.7413 -0.2240
   10MOL   H150 7188   4.848   5.244   1.631  1.3977 -0.5703  1.1718
   10MOL   H151 7189   4.622   5.031   1.587 -0.3497 -0.5672 -1.1021
   10MOL   H152 7190   4.569   5.309   1.629  0.2770  1.4284 -1.9014
   10MOL   H153 7191   4.630   5.271   1.474 -0.3945 -1.4950 -1.7263
   10MOL   H154 7192   4.352   5.004   1.355 -0.4074 -0.9926 -4.0087
   10MOL   H155 7193   4.180   4.898   1.243  0.8255 -0.5941 -0.1595
   10MOL   H156 7194   3.968   5.269   1.194 -0.2861 -0.2346 -0.7024
   10MOL   H157 7195   4.116   5.375   1.363  2.4652  0.5996 -1.7607
   10MOL   C158 7196   3.548   5.372   0.809  0.6575 -0.3060  0.1375
   10MOL   C159 7197   3.633   5.253   0.833 -0.1936  0.5470  0.3766
   10MOL   C160 7198   3.594   5.169   0.952  0.2475  0.3247 -0.2702
   10MOL   C161 7199   3.672   5.029   0.978  0.7689  0.0698 -0.4829
   10MOL   O162 7200   3.806   5.023   0.942  0.5426 -0.0783 -0.2455
   10MOL   C163 7201   3.605   5.260   1.081 -0.4677 -0.0417  0.3322
   10MOL   C164 7202   3.508   5.384   1.055  0.0836 -0.0488  0.2947
   10MOL   C165 7203   3.550   5.468   0.930  0.4813 -0.3359 -0.2549
   10MOL   C166 7204   3.457   5.594   0.917 -0.9921 -0.3344  0.1089
   10MOL   O167 7205   3.455   5.663   1.040 -0.3223 -0.3613  0.0370
   10MOL   C168 7206   3.549   5.755   1.079 -0.2688 -0.4847  0.0963
   10MOL   O169 7207   3.624   5.810   1.001  0.6412 -0.7973 -0.2522
   10MOL   C170 7208   3.536   5.806   1.224  0.6825 -0.0423  0.8600
   10MOL   C171 7209   3.567   5.937   1.254  0.5140 -0.4790 -0.4944
   10MOL   C172 7210   3.550   5.998   1.380 -0.7786 -0.3355 -0.4403
   10MOL   C173 7211   3.485   5.923   1.478  0.3843  0.4618 -0.5760
   10MOL   C174 7212   3.451   5.984   1.614 -0.1690 -0.9362 -0.3290
   10MOL   O175 7213   3.371   5.930   1.687  0.1069  0.1539  0.3503
   10MOL   O176 7214   3.519   6.091   1.647  0.5180 -0.1464 -0.4708
   10MOL   C177 7215   3.452   5.788   1.449 -0.1796  0.6198 -0.7301
   10MOL   C178 7216   3.486   5.725   1.327 -0.1715  0.2639 -0.9173
   10MOL   H179 7217   3.583   5.425   0.720  1.2081  0.6191  0.8908
   10MOL   H180 7218   3.445   5.340   0.794 -0.3703  2.1464  1.6823
   10MOL   H181 7219   3.637   5.195   0.741  0.7518  0.7938  0.2595
   10MOL   H182 7220   3.734   5.290   0.848  0.4895  0.5551 -3.6671
   10MOL   H183 7221   3.490   5.141   0.944  0.6267 -0.9201 -1.0055
   10MOL   H184 7222   3.665   4.993   1.081 -1.0631 -0.6545 -0.8333
   10MOL   H185 7223   3.624   4.959   0.910 -1.0072  1.2041 -0.4486
   10MOL   H186 7224   3.586   5.217   1.179 -3.0023  2.3983  0.9848
   10MOL   H187 7225   3.705   5.302   1.097 -0.1219 -0.5999 -0.3214
   10MOL   H188 7226   3.504   5.449   1.143 -2.8330 -0.9401  0.9075
   10MOL   H189 7227   3.402   5.358   1.062 -0.4634  2.0206  0.2759
   10MOL   H190 7228   3.652   5.503   0.943  0.0746  1.1958 -1.0456
   10MOL   H191 7229   3.483   5.661   0.836  0.6776 -2.9766 -1.6022
   10MOL   H192 7230   3.353   5.563   0.902 -1.2009  1.0482 -1.5308
   10MOL   H193 7231   3.599   5.997   1.171 -0.1905 -0.7185 -0.9434
   10MOL   H194 7232   3.567   6.103   1.397  1.3274 -0.7826  0.3000
   10MOL   H195 7233   3.397   5.747   1.532  1.9365  1.9953  1.4181
   10MOL   H196 7234   3.456   5.622   1.313 -1.2697  0.3551  0.6335
   10MOL   C197 7235   3.235   6.364   2.060 -0.0439 -0.1653  0.4928
   10MOL   C198 7236   3.346   6.332   1.957 -0.2940  0.0788 -0.0638
   10MOL   C199 7237   3.276   6.302   1.818  0.7014  0.2486  0.1001
   10MOL   C200 7238   3.380   6.265   1.717  0.3181  0.2216  0.8323
   10MOL   O201 7239   3.470   6.165   1.765 -0.2713 -0.3926  0.0638
   10MOL   C202 7240   3.167   6.192   1.836 -0.7598 -0.0863  0.3096
   10MOL   C203 7241   3.072   6.213   1.951  0.6834  0.2439  1.5006
   10MOL   C204 7242   3.135   6.250   2.086  0.1461  0.4195  0.5748
   10MOL   C205 7243   3.026   6.282   2.178  0.4692  0.5275  0.1956
   10MOL   O206 7244   3.081   6.351   2.295 -0.2970 -0.5019  0.1853
   10MOL   C207 7245   3.137   6.276   2.398  0.2292 -0.1570 -0.0700
   10MOL   O208 7246   3.121   6.152   2.410 -0.5354 -0.3623  0.1108
   10MOL   C209 7247   3.218   6.364   2.481 -0.0089 -0.8677  0.0965
   10MOL   C210 7248   3.305   6.310   2.580 -0.0900  0.4847 -0.8700
   10MOL   C211 7249   3.383   6.397   2.660 -0.7630  0.0308  0.1199
   10MOL   C212 7250   3.377   6.536   2.648  0.5723  0.1270  0.3547
   10MOL   C213 7251   3.460   6.634   2.722 -0.4703  0.4254 -0.4647
   10MOL   O214 7252   3.425   6.746   2.746  0.4608 -0.0204 -0.9987
   10MOL   O215 7253   3.576   6.592   2.754 -0.0115 -0.0542 -0.1852
   10MOL   C216 7254   3.289   6.591   2.552  0.2836 -0.5684  0.6645
   10MOL   C217 7255   3.213   6.509   2.468  0.1093  0.4605 -0.3270
   10MOL   H218 7256   3.280   6.409   2.148 -0.6610  1.9314 -0.2286
   10MOL   H219 7257   3.182   6.443   2.007  3.0897  0.7348 -1.4351
   10MOL   H220 7258   3.415   6.415   1.971 -1.5391  1.6601 -2.9106
   10MOL   H221 7259   3.392   6.241   1.997 -0.2462 -0.5202 -1.4531
   10MOL   H222 7260   3.227   6.395   1.788 -0.0382 -0.4960 -1.0376
   10MOL   H223 7261   3.335   6.243   1.621  1.9873 -2.6953  0.6523
   10MOL   H224 7262   3.439   6.355   1.698 -0.0725  0.2823 -0.0893
   10MOL   H225 7263   3.108   6.168   1.747  0.2053 -1.3846  0.0168
   10MOL   H226 7264   3.212   6.098   1.869  0.9019 -0.2170 -2.1541
   10MOL   H227 7265   2.997   6.135   1.962 -0.1652  0.8186 -0.0759
   10MOL   H228 7266   3.011   6.299   1.923 -0.1394 -0.8509 -0.1638
   10MOL   H229 7267   3.197   6.163   2.107 -0.3624  0.1682  1.0592
   10MOL   H230 7268   2.971   6.366   2.135  2.0817 -0.3530 -3.8153
   10MOL   H231 7269   2.958   6.199   2.198  0.6349  0.4372  0.3864
   10MOL   H232 7270   3.307   6.203   2.596 -0.5205  0.4612 -0.9489
   10MOL   H233 7271   3.454   6.358   2.731  0.1448 -2.0091 -1.8680
   10MOL   H234 7272   3.292   6.697   2.534 -0.4761 -0.5762  0.4932
   10MOL   H235 7273   3.139   6.550   2.400  1.0847  2.9259  0.0702
   10MOL   C236 7274   3.903   6.530   2.471  0.4768 -0.3250  0.5905
   10MOL   C237 7275   3.785   6.576   2.556 -0.1156 -0.5160 -0.3492
   10MOL   C238 7276   3.832   6.701   2.630 -0.5087 -0.2438  1.1121
   10MOL   C239 7277   3.720   6.773   2.707 -0.5698 -0.0039 -0.7827
   10MOL   O240 7278   3.666   6.698   2.814  0.0721  0.1608  0.2476
   10MOL   C241 7279   3.956   6.676   2.724 -0.0630  0.5841 -0.1232
   10MOL   C242 7280   4.072   6.634   2.641  0.4310 -0.3253 -0.3061
   10MOL   C243 7281   4.037   6.508   2.557  0.5037  0.8963 -0.0185
   10MOL   C244 7282   4.159   6.462   2.475 -0.3831  0.3302  0.0039
   10MOL   O245 7283   4.128   6.339   2.413  1.0739 -0.1085 -0.0495
   10MOL   C246 7284   4.199   6.289   2.307  0.2523  0.5359 -0.8713
   10MOL   O247 7285   4.290   6.350   2.257 -0.3149  0.1714  0.2986
   10MOL   C248 7286   4.163   6.147   2.269  0.3853 -0.2770 -0.2384
   10MOL   C249 7287   4.074   6.070   2.341  0.0577 -0.4528  0.0711
   10MOL   C250 7288   4.048   5.936   2.317 -0.3583  0.6795  0.1380
   10MOL   C251 7289   4.095   5.883   2.199  0.9811 -0.1476 -0.4296
   10MOL   C252 7290   4.032   5.760   2.149  0.3520 -0.0271 -0.3090
   10MOL   O253 7291   4.045   5.720   2.033  0.0335 -0.1878 -0.5577
   10MOL   O254 7292   3.957   5.700   2.234  0.2506 -0.1886 -1.1809
   10MOL   C255 7293   4.192   5.953   2.126 -0.3036 -0.4338  0.4709
   10MOL   C256 7294   4.228   6.084   2.162 -0.3110  0.2606  0.5417
   10MOL   H257 7295   3.880   6.439   2.414  0.5809  0.2266 -0.3461
   10MOL   H258 7296   3.913   6.604   2.392  3.6274 -0.1225  1.0853
   10MOL   H259 7297   3.692   6.583   2.499 -0.2197  0.1210 -0.1020
   10MOL   H260 7298   3.772   6.503   2.636  2.3322  0.0874  0.6540
   10MOL   H261 7299   3.864   6.766   2.548  0.6181 -0.3898  1.4330
   10MOL   H262 7300   3.753   6.871   2.742  0.4672 -0.7523  0.3658
   10MOL   H263 7301   3.636   6.809   2.647 -2.2585 -1.7254  0.4780
   10MOL   H264 7302   3.988   6.771   2.768  2.9557 -1.0433  1.3128
   10MOL   H265 7303   3.933   6.597   2.796  1.3592  1.1528  0.9785
   10MOL   H266 7304   4.155   6.627   2.710 -0.6832  0.0430  1.0854
   10MOL   H267 7305   4.107   6.718   2.581  0.8857 -0.5630 -0.3831
   10MOL   H268 7306   4.017   6.419   2.617 -0.3968  0.2783 -1.2172
   10MOL   H269 7307   4.185   6.544   2.408  1.4700 -0.2667 -0.0417
   10MOL   H270 7308   4.251   6.447   2.530  0.2222 -1.2660 -1.4084
   10MOL   H271 7309   4.027   6.120   2.425 -2.7455  0.4757 -1.9910
   10MOL   H272 7310   3.974   5.890   2.381  1.6639 -1.4038  1.0493
   10MOL   H273 7311   4.222   5.929   2.025  0.0678  0.2883  0.4041
   10MOL   H274 7312   4.302   6.132   2.099 -0.3737  0.4596  0.6199
   10MOL   C275 7313   3.665   5.516   1.794 -0.0283 -0.0870  0.7988
   10MOL   C276 7314   3.750   5.575   1.912 -0.0108 -0.6159 -0.0485
   10MOL   C277 7315   3.677   5.556   2.044 -0.2519 -0.2667 -0.0489
   10MOL   C278 7316   3.745   5.616   2.169 -0.6013 -0.1247 -0.0006
   10MOL   O279 7317   3.881   5.579   2.177  0.2916  0.1325  0.1873
   10MOL   C280 7318   3.536   5.615   2.042 -0.3252 -0.3753  0.5250
   10MOL   C281 7319   3.455   5.551   1.926  0.2001  0.9916 -0.0158
   10MOL   C282 7320   3.528   5.567   1.786 -0.9310  0.5104  0.7045
   10MOL   C283 7321   3.458   5.492   1.668  0.8957  0.3567  0.0109
   10MOL   O284 7322   3.334   5.544   1.671 -0.4620  0.1679  0.4309
   10MOL   C285 7323   3.233   5.498   1.592  1.1978 -0.3862  0.4771
   10MOL   O286 7324   3.250   5.419   1.504  0.0454  0.7131 -0.0046
   10MOL   C287 7325   3.113   5.572   1.615  0.3733 -0.0584 -0.4390
   10MOL   C288 7326   2.991   5.526   1.558  0.0166 -0.4692  0.2679
   10MOL   C289 7327   2.878   5.590   1.584  0.1729 -0.0408  0.2770
   10MOL   C290 7328   2.873   5.715   1.659  0.0544  0.3295 -0.1199
   10MOL   C291 7329   2.745   5.791   1.675  0.2147 -0.3267 -0.6589
   10MOL   O292 7330   2.728   5.885   1.748  0.3926  0.1613  0.6597
   10MOL   O293 7331   2.658   5.757   1.589 -0.4741  0.2223  0.0428
   10MOL   C294 7332   2.994   5.763   1.717  0.4000 -0.6805  0.3871
   10MOL   C295 7333   3.110   5.687   1.700 -0.1492  0.5193  1.2573
   10MOL   H296 7334   3.729   5.552   1.713 -0.7154  3.0685  1.5630
   10MOL   H297 7335   3.666   5.408   1.804  1.4741 -0.3117 -1.4014
   10MOL   H298 7336   3.849   5.530   1.921  0.6916  0.5400 -1.7959
   10MOL   H299 7337   3.758   5.683   1.897 -0.9454 -0.6805 -1.0050
   10MOL   H300 7338   3.674   5.447   2.050 -1.7331 -0.2983 -1.0460
   10MOL   H301 7339   3.739   5.724   2.182 -2.3087 -0.1797 -0.2188
   10MOL   H302 7340   3.702   5.576   2.261 -0.1643  1.2292  0.8060
   10MOL   H303 7341   3.478   5.583   2.128 -1.6222  2.7197  0.8786
   10MOL   H304 7342   3.523   5.723   2.035  0.2528 -0.4223 -1.7874
   10MOL   H305 7343   3.351   5.578   1.937  0.0853 -0.2846  2.4058
   10MOL   H306 7344   3.454   5.444   1.948 -0.1344  1.0678  0.3402
   10MOL   H307 7345   3.535   5.672   1.756 -1.0063 -0.0930 -1.4651
   10MOL   H308 7346   3.510   5.514   1.575 -2.5147  0.5942 -1.9360
   10MOL   H309 7347   3.454   5.383   1.673  0.2544  0.3817  0.0135
   10MOL   H310 7348   2.990   5.431   1.506  1.8938 -0.0496 -0.5848
   10MOL   H311 7349   2.796   5.548   1.529  0.4580 -0.7608  0.3945
   10MOL   H312 7350   2.995   5.857   1.769 -1.9104 -0.3259 -0.1339
   10MOL   H313 7351   3.203   5.721   1.745  0.4840  1.6102 -0.7914
   10MOL   C314 7352   2.324   6.225   1.691  0.1489 -0.5999 -0.4688
   10MOL   C315 7353   2.399   6.089   1.695  0.1872 -0.7145  0.3701
   10MOL   C316 7354   2.350   5.977   1.607  1.2819  0.5886  0.0393
   10MOL   C317 7355   2.440   5.851   1.636 -0.4049  0.3923  0.2650
   10MOL   O318 7356   2.561   5.873   1.560 -0.2466  0.4703 -0.3843
   10MOL   C319 7357   2.198   5.954   1.634 -0.6940  0.2379  0.8341
   10MOL   C320 7358   2.123   6.086   1.601 -0.6153 -0.4441 -0.0192
   10MOL   C321 7359   2.167   6.201   1.690 -0.3817 -0.5036  0.3475
   10MOL   C322 7360   2.087   6.324   1.665  0.5715 -0.1964 -0.6815
   10MOL   O323 7361   1.971   6.286   1.727 -0.1527  0.2303  0.7146
   10MOL   C324 7362   1.870   6.372   1.744  0.1131 -0.3471 -0.0923
   10MOL   O325 7363   1.881   6.499   1.757 -0.2202 -0.3235  0.6468
   10MOL   C326 7364   1.748   6.300   1.766 -0.5368 -0.1929 -0.2216
   10MOL   C327 7365   1.715   6.195   1.680  0.0987  0.7019  0.1809
   10MOL   C328 7366   1.592   6.129   1.698  0.1770  0.0750 -0.1348
   10MOL   C329 7367   1.507   6.161   1.807 -0.6735  0.1589  0.0841
   10MOL   C330 7368   1.381   6.095   1.845  0.7807  0.5895  0.5957
   10MOL   O331 7369   1.308   6.136   1.937  0.6133 -0.8041 -0.3897
   10MOL   O332 7370   1.356   5.971   1.783 -0.3199 -0.3213 -0.3052
   10MOL   C333 7371   1.547   6.271   1.893  0.1471 -0.4067  0.5766
   10MOL   C334 7372   1.663   6.342   1.871  0.2354  0.6158  0.2001
   10MOL   H335 7373   2.356   6.279   1.781  0.9464 -2.4518  0.3953
   10MOL   H336 7374   2.343   6.288   1.604 -0.3357 -1.0276 -0.8796
   10MOL   H337 7375   2.507   6.102   1.685  0.5407 -4.2145 -1.4134
   10MOL   H338 7376   2.401   6.059   1.799 -1.1072  0.7420  0.8291
   10MOL   H339 7377   2.377   5.997   1.503  0.9867 -0.1826 -0.1901
   10MOL   H340 7378   2.464   5.848   1.742 -1.8516  1.2181  0.6214
   10MOL   H341 7379   2.399   5.755   1.606  1.1744 -0.1575 -0.2074
   10MOL   H342 7380   2.162   5.870   1.575  0.8243  0.1952 -0.0425
   10MOL   H343 7381   2.187   5.931   1.740  0.9866 -1.4622  0.6667
   10MOL   H344 7382   2.016   6.069   1.617 -0.0657 -1.0387  3.2551
   10MOL   H345 7383   2.136   6.119   1.498  2.2519  0.4183  0.5736
   10MOL   H346 7384   2.143   6.178   1.794 -1.1377 -1.8760 -0.1151
   10MOL   H347 7385   2.132   6.404   1.724  1.1175 -0.9758 -0.0469
   10MOL   H348 7386   2.073   6.343   1.558 -0.4501 -0.3135 -0.5761
   10MOL   H349 7387   1.778   6.169   1.596 -2.7661  0.6012 -2.0192
   10MOL   H350 7388   1.571   6.055   1.623  1.8611  1.8592 -2.4659
   10MOL   H351 7389   1.478   6.307   1.968  3.0758  0.7437  2.8060
   10MOL   H352 7390   1.682   6.435   1.923 -2.1679  0.9977  0.4385
   10MOL   C353 7391   1.120   5.470   1.888  0.3724  0.0822  0.5622
   10MOL   C354 7392   1.127   5.619   1.906  0.0763 -0.7283  0.0567
   10MOL   C355 7393   1.277   5.669   1.915  0.4242  0.1849  0.0962
   10MOL   C356 7394   1.277   5.816   1.947 -0.1157 -0.5590 -0.2107
   10MOL   O357 7395   1.235   5.903   1.846 -0.1685 -0.2313  0.6321
   10MOL   C358 7396   1.360   5.587   2.018  0.1975  0.4021  0.3114
   10MOL   C359 7397   1.336   5.436   2.009 -0.2771 -0.0865  0.3764
   10MOL   C360 7398   1.196   5.398   2.008  0.2290  0.2072 -0.1589
   10MOL   C361 7399   1.185   5.245   2.012  0.1736  0.2946  0.1812
   10MOL   O362 7400   1.043   5.200   1.994  0.2763 -0.2515 -0.4868
   10MOL   C363 7401   1.002   5.132   1.882 -0.3038 -0.6871 -0.4966
   10MOL   O364 7402   1.084   5.102   1.793 -0.1606 -0.0401 -0.1494
   10MOL   C365 7403   0.857   5.118   1.875  0.4259 -0.5352 -0.4070
   10MOL   C366 7404   0.769   5.182   1.976  0.2485 -0.1983  0.6291
   10MOL   C367 7405   0.628   5.179   1.962 -0.6502  0.4013  0.3652
   10MOL   C368 7406   0.578   5.102   1.859 -0.2055 -0.5008 -0.0755
   10MOL   C369 7407   0.431   5.096   1.835  0.5919 -0.9001  0.4096
   10MOL   O370 7408   0.342   5.132   1.916  0.6377 -0.0538 -0.2388
   10MOL   O371 7409   0.401   5.031   1.717  0.0764 -0.3730 -0.5671
   10MOL   C372 7410   0.665   5.035   1.767 -0.4243 -0.2824  0.2379
   10MOL   C373 7411   0.803   5.053   1.764 -0.1328  0.1432 -0.2206
   10MOL   H374 7412   1.017   5.442   1.868 -0.0290  2.4447 -0.9313
   10MOL   H375 7413   1.164   5.447   1.791 -1.3136 -1.5919  0.1615
   10MOL   H376 7414   1.080   5.669   1.822 -0.6913  1.4253  1.7232
   10MOL   H377 7415   1.068   5.663   1.987 -1.1991  1.3016 -1.9257
   10MOL   H378 7416   1.322   5.662   1.816  3.5794  0.5713  1.4486
   10MOL   H379 7417   1.214   5.837   2.034  0.7344  1.1324  0.0289
   10MOL   H380 7418   1.378   5.847   1.976 -1.0193  2.7823 -0.4491
   10MOL   H381 7419   1.464   5.621   2.014 -0.7013  3.2826  0.2116
   10MOL   H382 7420   1.333   5.624   2.117 -1.4736  0.5030 -0.1727
   10MOL   H383 7421   1.387   5.395   2.096 -1.0735  0.0175  0.8916
   10MOL   H384 7422   1.379   5.402   1.915  0.2890  0.5871  0.3808
   10MOL   H385 7423   1.160   5.440   2.101 -0.4517  0.2268 -0.4309
   10MOL   H386 7424   1.244   5.219   1.924 -0.9933  0.3679 -0.6498
   10MOL   H387 7425   1.220   5.197   2.103 -1.4648 -2.1742 -0.4215
   10MOL   H388 7426   0.812   5.232   2.062 -0.7702 -0.2038  1.1451
   10MOL   H389 7427   0.562   5.213   2.040 -0.7208 -1.6275  1.2242
   10MOL   H390 7428   0.638   4.977   1.680 -0.2413 -0.4534  0.2941
   10MOL   H391 7429   0.864   5.008   1.687 -0.3745 -2.3761  0.9888
   10MOL   C392 7430   0.178   4.528   1.582  0.7031  0.1431 -0.1753
   10MOL   C393 7431   0.160   4.632   1.686  0.3952 -0.1617 -0.1425
   10MOL   C394 7432   0.241   4.769   1.648  0.2558 -0.1168  0.1062
   10MOL   C395 7433   0.219   4.882   1.750  0.3165 -0.2849 -0.2032
   10MOL   O396 7434   0.251   5.010   1.698 -0.0829 -0.0441 -0.3465
   10MOL   C397 7435   0.382   4.742   1.598 -0.4938  0.2121 -0.1419
   10MOL   C398 7436   0.388   4.620   1.510 -0.8336  0.0835  0.0683
   10MOL   C399 7437   0.320   4.493   1.559 -0.7735 -0.9749  0.2042
   10MOL   C400 7438   0.344   4.367   1.473 -0.1980 -0.4114 -0.4838
   10MOL   O401 7439   0.305   4.249   1.538 -0.5336  0.2490 -0.5273
   10MOL   C402 7440   0.206   4.171   1.494 -0.0041 -0.8727  0.0635
   10MOL   O403 7441   0.158   4.167   1.379  0.3987  0.1262  0.5717
   10MOL   C404 7442   0.156   4.074   1.599 -0.4648  0.0365 -0.0261
   10MOL   C405 7443   0.066   3.970   1.558  0.2549 -1.0370 -0.5176
   10MOL   C406 7444   0.005   3.891   1.658  0.6003 -0.3531  0.6406
   10MOL   C407 7445   0.032   3.906   1.794 -0.4485  0.1288  0.2358
   10MOL   C408 7446   8.018   3.814   1.897 -0.0845  0.6922  0.2981
   10MOL   O409 7447   0.044   3.804   2.004 -0.3223  0.5336 -0.4733
   10MOL   O410 7448   7.885   3.777   1.871  0.8712  0.1000  0.2182
   10MOL   C411 7449   0.122   4.008   1.834  0.2751 -0.3006 -0.3467
   10MOL   C412 7450   0.187   4.091   1.737 -0.0944  0.5572  0.1564
   10MOL   H413 7451   0.126   4.440   1.619 -0.1814 -0.3161 -2.4030
   10MOL   H414 7452   0.133   4.560   1.488  0.3969  0.2587  0.0111
   10MOL   H415 7453   0.056   4.657   1.707  0.6153 -0.4090  1.3216
   10MOL   H416 7454   0.212   4.592   1.774 -0.8268 -0.4209  0.4760
   10MOL   H417 7455   0.193   4.809   1.559  1.6601  3.5553  0.8850
   10MOL   H418 7456   0.116   4.882   1.786  0.1651  1.0272 -0.6278
   10MOL   H419 7457   0.275   4.854   1.840 -2.0922 -1.9679  0.8291
   10MOL   H420 7458   0.438   4.819   1.544 -2.0340 -0.1234 -2.2887
   10MOL   H421 7459   0.448   4.727   1.683  2.1289  0.0312 -2.1539
   10MOL   H422 7460   0.488   4.597   1.474 -1.2855 -2.0893  0.1330
   10MOL   H423 7461   0.335   4.651   1.420  0.9704 -2.4555 -1.9554
   10MOL   H424 7462   0.361   4.461   1.654  0.1762  1.1381  0.5268
   10MOL   H425 7463   0.279   4.385   1.387  0.8684  1.4550 -0.9317
   10MOL   H426 7464   0.450   4.364   1.448  0.1301 -0.1587  0.8629
   10MOL   H427 7465   0.040   3.947   1.456 -0.6860 -3.1893  0.1747
   10MOL   H428 7466   7.978   3.808   1.628  0.2221  0.8648 -2.1044
   10MOL   H429 7467   0.136   4.022   1.940 -1.3888  0.7894 -0.2512
   10MOL   H430 7468   0.245   4.179   1.761  0.6210  0.7810 -2.2865
   10MOL   C431 7469   7.834   3.928   2.395 -0.1091 -0.0694  0.8531
   10MOL   C432 7470   7.779   3.857   2.269 -0.2104 -0.0008 -0.6256
   10MOL   C433 7471   7.801   3.945   2.144  0.1039  0.2485 -0.0403
   10MOL   C434 7472   7.736   3.866   2.031  0.3479  1.3289 -0.1994
   10MOL   O435 7473   7.805   3.745   2.000 -0.1403 -0.2859 -0.3656
   10MOL   C436 7474   7.745   4.085   2.157  0.0935  0.2950  0.6438
   10MOL   C437 7475   7.807   4.146   2.282 -0.5599 -0.0806  0.3191
   10MOL   C438 7476   7.767   4.066   2.406  0.2432  0.1582  0.5273
   10MOL   C439 7477   7.826   4.129   2.538  0.0005 -0.0253  0.4531
   10MOL   O440 7478   7.754   4.243   2.586  0.1100  0.3677  0.2048
   10MOL   C441 7479   7.805   4.372   2.569 -0.6332 -0.5734  0.3744
   10MOL   O442 7480   7.899   4.404   2.498  0.7239 -0.0070  0.3786
   10MOL   C443 7481   7.725   4.477   2.634  0.5532 -0.0263  0.4151
   10MOL   C444 7482   7.764   4.614   2.638 -0.7505  0.5535  0.1526
   10MOL   C445 7483   7.679   4.713   2.693 -0.3275  0.3468 -0.5543
   10MOL   C446 7484   7.551   4.684   2.739 -0.1544  0.3245  0.3221
   10MOL   C447 7485   7.469   4.791   2.800 -0.3020 -0.4808 -0.2432
   10MOL   O448 7486   7.348   4.789   2.794  0.3885 -0.1260 -0.0910
   10MOL   O449 7487   7.541   4.892   2.859 -0.3788  0.0555  0.4734
   10MOL   C450 7488   7.512   4.546   2.743 -1.0238 -0.7785 -0.5991
   10MOL   C451 7489   7.595   4.445   2.687  0.4307  0.0862 -0.2612
   10MOL   H452 7490   7.811   3.869   2.483 -0.4845 -0.8166  0.2615
   10MOL   H453 7491   7.942   3.937   2.384  0.0635  0.0702  2.5933
   10MOL   H454 7492   7.818   3.756   2.264  1.3286  0.3821  2.5697
   10MOL   H455 7493   7.673   3.863   2.293 -0.1598  2.2539 -0.8890
   10MOL   H456 7494   7.908   3.956   2.129  0.2352 -0.4191  0.4231
   10MOL   H457 7495   7.641   3.826   2.067  1.2276  0.9343  1.7673
   10MOL   H458 7496   7.707   3.925   1.945 -0.4974 -0.4781 -1.1800
   10MOL   H459 7497   7.775   4.146   2.072  0.1017  0.5922  0.8597
   10MOL   H460 7498   7.636   4.094   2.168 -0.1002  0.6363 -1.3820
   10MOL   H461 7499   7.761   4.244   2.288 -0.9684 -0.0570 -2.4395
   10MOL   H462 7500   7.916   4.151   2.282 -0.5690  0.1500  1.0436
   10MOL   H463 7501   7.658   4.060   2.403  0.1953  1.1566  0.0672
   10MOL   H464 7502   7.827   4.059   2.622  0.3362 -1.9948 -1.1565
   10MOL   H465 7503   7.930   4.156   2.519  0.4833 -2.1454 -0.0370
   10MOL   H466 7504   7.862   4.650   2.609 -0.0390 -0.3519  1.4029
   10MOL   H467 7505   7.714   4.816   2.696 -0.4620  0.3570  0.9959
   10MOL   H468 7506   7.415   4.539   2.790 -1.7424 -0.7547 -2.0294
   10MOL   H469 7507   7.563   4.342   2.692 -1.6770  0.8532  3.0133
   10MOL   C470 7508   7.252   5.259   3.266 -0.0965 -0.1398 -0.4643
   10MOL   C471 7509   7.339   5.148   3.221  0.6084  0.2658 -0.2819
   10MOL   C472 7510   7.334   5.129   3.067 -0.0356 -0.0438  0.9860
   10MOL   C473 7511   7.422   5.009   3.025  0.0230  0.6903 -0.5943
   10MOL   O474 7512   7.470   5.017   2.886  0.5085  0.3784 -0.1621
   10MOL   C475 7513   7.190   5.107   3.023  0.5337  0.4966 -0.6748
   10MOL   C476 7514   7.088   5.210   3.080  0.1281  0.4485 -0.7320
   10MOL   C477 7515   7.109   5.226   3.235  0.0648 -0.0715  0.0808
   10MOL   C478 7516   7.026   5.339   3.307 -0.7274  0.2352  0.0595
   10MOL   O479 7517   7.017   5.311   3.452 -0.0816 -0.0005 -0.4949
   10MOL   C480 7518   6.925   5.372   3.523  0.0358 -1.1649 -0.0444
   10MOL   O481 7519   6.847   5.458   3.476 -0.0217 -0.6181 -0.5452
   10MOL   C482 7520   6.933   5.333   3.669 -0.1640 -0.0573 -0.2638
   10MOL   C483 7521   7.026   5.236   3.713 -0.3377 -0.4654 -0.2467
   10MOL   C484 7522   7.028   5.199   3.849  0.1824 -0.5204 -0.2557
   10MOL   C485 7523   6.928   5.246   3.937  1.0907 -0.3761  0.4026
   10MOL   C486 7524   6.903   5.181   4.081 -0.0858  0.1503  0.6773
   10MOL   O487 7525   6.972   5.089   4.125  0.2735 -0.4862  0.0545
   10MOL   O488 7526   6.801   5.241   4.146  0.7036 -0.0613  0.0356
   10MOL   C489 7527   6.842   5.348   3.896 -0.6264  0.1499 -0.2129
   10MOL   C490 7528   6.846   5.394   3.767  0.1880  0.5297  0.0726
   10MOL   H491 7529   7.266   5.282   3.371 -2.7233  2.8061 -0.6721
   10MOL   H492 7530   7.273   5.353   3.215  0.7525  0.2752  0.6369
   10MOL   H493 7531   7.442   5.155   3.255 -0.1945 -2.2380  2.9720
   10MOL   H494 7532   7.297   5.058   3.267 -1.6430  0.0877 -2.5848
   10MOL   H495 7533   7.369   5.224   3.028  1.9782 -1.5053 -0.8725
   10MOL   H496 7534   7.510   5.012   3.090  0.7093 -0.3399 -1.4725
   10MOL   H497 7535   7.359   4.922   3.040 -0.9944  1.3649 -0.9520
   10MOL   H498 7536   7.195   5.101   2.915  3.7997 -0.7257 -0.5072
   10MOL   H499 7537   7.160   5.008   3.060  0.3179  0.8852  0.2058
   10MOL   H500 7538   6.986   5.183   3.056  0.1406  0.1271 -0.4149
   10MOL   H501 7539   7.102   5.313   3.044 -1.0907  0.5319 -0.9656
   10MOL   H502 7540   7.086   5.138   3.295 -1.2441 -0.2501 -0.6508
   10MOL   H503 7541   7.075   5.436   3.290  0.0337 -0.5241 -2.2795
   10MOL   H504 7542   6.933   5.327   3.251 -0.8968  0.3989  0.3062
   10MOL   H505 7543   7.099   5.202   3.641 -0.2337 -1.8076  0.4673
   10MOL   H506 7544   7.100   5.127   3.884 -0.2095 -0.3857  0.8707
   10MOL   H507 7545   6.768   5.395   3.958 -0.8873  0.4992 -0.7788
   10MOL   H508 7546   6.778   5.474   3.742 -0.7606  0.3187  1.9093
   10MOL   C509 7547   6.381   4.920   4.452  0.0532 -0.3858 -0.1512
   10MOL   C510 7548   6.442   5.015   4.356 -0.2282  0.4028 -0.1301
   10MOL   C511 7549   6.590   5.051   4.381  0.3799 -0.3723  0.1583
   10MOL   C512 7550   6.633   5.133   4.255 -0.4597  0.8755  0.0529
   10MOL   O513 7551   6.767   5.183   4.272  0.3779 -0.2101  0.1472
   10MOL   C514 7552   6.615   5.100   4.520  0.7209  0.0598  0.6930
   10MOL   C515 7553   6.559   4.995   4.617 -0.4771 -0.1055  0.0090
   10MOL   C516 7554   6.402   4.967   4.595 -0.0368  0.8099 -0.4272
   10MOL   C517 7555   6.340   4.872   4.701 -0.1711 -0.4021 -0.1430
   10MOL   O518 7556   6.354   4.921   4.837  0.1796 -0.3132  0.0315
   10MOL   C519 7557   6.436   4.850   4.924  0.1331  0.0347  0.5046
   10MOL   O520 7558   6.523   4.769   4.888  0.3726 -0.2139  0.0917
   10MOL   C521 7559   6.385   4.849   5.061 -0.7058 -0.0626 -0.8058
   10MOL   C522 7560   6.332   4.967   5.112 -0.0932  0.1969 -0.7325
   10MOL   C523 7561   6.299   4.972   5.248  0.0640 -0.0605  0.1918
   10MOL   C524 7562   6.305   4.860   5.334  0.1337  0.0951 -0.4475
   10MOL   C525 7563   6.263   4.859   5.481 -0.5098  0.3785  0.1935
   10MOL   O526 7564   6.224   4.965   5.538 -0.2433 -0.3747  0.0140
   10MOL   O527 7565   6.256   4.734   5.539  0.0726  1.1206  0.3176
   10MOL   C528 7566   6.363   4.740   5.284 -0.2528  0.0726  0.3848
   10MOL   C529 7567   6.392   4.737   5.146 -0.7133 -0.4220 -0.7295
   10MOL   H530 7568   6.276   4.904   4.430  0.2217 -0.6536 -0.7820
   10MOL   H531 7569   6.432   4.824   4.440 -0.2367 -0.6157  0.4199
   10MOL   H532 7570   6.424   4.973   4.256 -2.2480  0.9960 -0.0355
   10MOL   H533 7571   6.380   5.104   4.357  0.5422  0.9389 -0.0210
   10MOL   H534 7572   6.645   4.956   4.382  0.9494 -0.0886 -1.9107
   10MOL   H535 7573   6.618   5.069   4.169  0.6384  2.0896 -1.0707
   10MOL   H536 7574   6.568   5.218   4.235 -2.3033 -0.8471 -1.5166
   10MOL   H537 7575   6.721   5.121   4.538  0.8373  1.8674 -1.7248
   10MOL   H538 7576   6.568   5.196   4.537  0.0677 -0.4742  1.9110
   10MOL   H539 7577   6.569   5.040   4.716 -0.0169 -1.2999  0.5200
   10MOL   H540 7578   6.621   4.906   4.629  1.2426  0.8311 -1.6540
   10MOL   H541 7579   6.349   5.060   4.614  1.2622  0.9102  3.2713
   10MOL   H542 7580   6.232   4.865   4.686 -0.4996  0.9730  1.5334
   10MOL   H543 7581   6.382   4.771   4.694  1.3212  0.2936 -1.3782
   10MOL   H544 7582   6.319   5.056   5.052 -0.8120  1.2780  0.9900
   10MOL   H545 7583   6.261   5.063   5.294  0.0650 -0.4512  0.9754
   10MOL   H546 7584   6.379   4.648   5.339 -0.6117 -0.7729 -0.9047
   10MOL   H547 7585   6.431   4.647   5.101  0.2498 -0.7861  0.7828
   10MOL   C548 7586   6.371   4.665   6.143  0.3205  0.5988  0.5583
   10MOL   C549 7587   6.410   4.725   6.006  0.1343 -0.1156  0.5849
   10MOL   C550 7588   6.303   4.697   5.894  0.5277  0.1201  0.1191
   10MOL   C551 7589   6.342   4.755   5.761 -0.8145 -0.2697 -0.1590
   10MOL   O552 7590   6.223   4.737   5.684 -0.6424  1.0328  0.2018
   10MOL   C553 7591   6.259   4.553   5.887 -0.5910  0.7678 -0.4497
   10MOL   C554 7592   6.227   4.487   6.025 -0.4282  0.4085  0.1100
   10MOL   C555 7593   6.334   4.511   6.128 -0.5090 -0.1026  0.1159
   10MOL   C556 7594   6.278   4.456   6.264  0.0963 -0.3841 -0.9364
   10MOL   O557 7595   6.330   4.532   6.371 -0.0796  0.0245  0.1883
   10MOL   C558 7596   6.311   4.498   6.490  1.0273  0.6507  0.2730
   10MOL   O559 7597   6.260   4.391   6.521  0.4250  0.0188  0.4578
   10MOL   C560 7598   6.354   4.593   6.585  0.1767  0.8484  0.4017
   10MOL   C561 7599   6.310   4.587   6.717 -1.1316 -0.2906 -0.4781
   10MOL   C562 7600   6.349   4.677   6.813 -1.1076 -0.0247  0.1013
   10MOL   C563 7601   6.435   4.787   6.786  0.6371  0.6544  0.7882
   10MOL   C564 7602   6.458   4.895   6.887 -0.8350  0.7037  0.7724
   10MOL   O565 7603   6.391   4.925   6.985  0.6807  0.1110 -0.0571
   10MOL   O566 7604   6.571   4.966   6.856 -0.4173 -0.6226 -0.1187
   10MOL   C567 7605   6.492   4.785   6.657 -0.8334  0.4479 -0.4324
   10MOL   C568 7606   6.439   4.703   6.552 -0.0527  0.5595  0.0888
   10MOL   H569 7607   6.458   4.673   6.207  0.7396 -1.0946  0.2295
   10MOL   H570 7608   6.288   4.725   6.179 -0.5538  1.1457 -2.1990
   10MOL   H571 7609   6.430   4.831   6.019 -1.3695  0.4280 -1.2429
   10MOL   H572 7610   6.504   4.683   5.969 -0.8014 -0.5066 -1.4206
   10MOL   H573 7611   6.208   4.739   5.928  0.4273  1.0413 -1.2716
   10MOL   H574 7612   6.370   4.856   5.792 -0.3426 -0.9411  1.6704
   10MOL   H575 7613   6.433   4.720   5.713 -0.1460  1.3810 -0.1444
   10MOL   H576 7614   6.170   4.544   5.825 -1.6385 -1.8943  1.3653
   10MOL   H577 7615   6.336   4.495   5.837 -0.3286  0.7093  0.0192
   10MOL   H578 7616   6.226   4.378   6.018  2.8761  0.3598 -0.6122
   10MOL   H579 7617   6.132   4.532   6.053 -1.5964 -1.0008 -1.5289
   10MOL   H580 7618   6.427   4.461   6.102  1.0236  2.6345  0.0581
   10MOL   H581 7619   6.170   4.471   6.266 -0.1058 -1.8805 -0.1002
   10MOL   H582 7620   6.311   4.352   6.275  0.9655 -0.0309 -0.1177
   10MOL   H583 7621   6.252   4.502   6.752 -0.4153  0.2710  2.1661
   10MOL   H584 7622   6.313   4.667   6.915 -2.3766 -0.2470 -0.3563
   10MOL   H585 7623   6.568   4.859   6.636 -0.9458  1.9096  3.7736
   10MOL   H586 7624   6.475   4.714   6.451  2.9278  2.5929  1.2929
   10MOL   C587 7625   7.038   4.912   7.051 -0.3628 -0.5411  0.5163
   10MOL   C588 7626   6.915   4.976   7.112 -0.8008  0.3252  0.1694
   10MOL   C589 7627   6.812   4.999   7.002  0.6379 -0.1098  0.6384
   10MOL   C590 7628   6.678   5.050   7.058 -0.0752 -0.6865  0.6769
   10MOL   O591 7629   6.588   5.085   6.952  0.9357  0.2434 -0.4253
   10MOL   C592 7630   6.879   5.091   6.894 -1.1055  0.0406  0.6962
   10MOL   C593 7631   7.010   5.034   6.837 -0.7259 -0.1039  0.1087
   10MOL   C594 7632   7.106   5.008   6.950  0.1616  0.1834  0.5505
   10MOL   C595 7633   7.244   4.956   6.908 -0.0021 -0.5174  0.5069
   10MOL   O596 7634   7.307   5.036   6.800 -0.3901 -0.1899 -0.0225
   10MOL   C597 7635   7.429   5.098   6.810 -0.4019 -0.5177  0.2920
   10MOL   O598 7636   7.504   5.098   6.906 -0.5617  0.5316 -0.6565
   10MOL   C599 7637   7.460   5.161   6.680  0.2856 -0.4083  0.0349
   10MOL   C600 7638   7.597   5.180   6.638  0.0249 -0.1765  0.0857
   10MOL   C601 7639   7.623   5.227   6.507  0.0443  0.0718 -0.3402
   10MOL   C602 7640   7.516   5.250   6.416  0.9661  0.7865 -0.0824
   10MOL   C603 7641   7.545   5.285   6.268  0.6233  0.0957 -0.3073
   10MOL   O604 7642   7.658   5.285   6.222 -0.2255 -0.5936  0.5425
   10MOL   O605 7643   7.432   5.292   6.203 -0.2973  0.0707 -0.1724
   10MOL   C606 7644   7.380   5.239   6.458 -0.8343 -0.0226  0.3035
   10MOL   C607 7645   7.353   5.203   6.595 -0.3174  0.6822  0.9471
   10MOL   H608 7646   7.113   4.894   7.128  2.2234  2.6172 -1.1368
   10MOL   H609 7647   6.999   4.822   7.003 -0.2427  0.7397 -2.0490
   10MOL   H610 7648   6.875   4.912   7.190 -2.5953  1.9609  0.6134
   10MOL   H611 7649   6.944   5.066   7.165 -0.0571 -0.8078  1.7093
   10MOL   H612 7650   6.798   4.901   6.955 -0.4852 -0.1248  0.9889
   10MOL   H613 7651   6.637   4.969   7.119  2.8794 -2.9325 -0.2170
   10MOL   H614 7652   6.692   5.137   7.123  0.3013  1.4150 -2.1247
   10MOL   H615 7653   6.808   5.109   6.813 -1.5752 -1.3736  0.7786
   10MOL   H616 7654   6.896   5.187   6.943  0.0231 -0.9793  2.3628
   10MOL   H617 7655   7.057   5.108   6.772  2.4657 -1.2671  0.9943
   10MOL   H618 7656   6.981   4.945   6.781 -0.9698  0.7379 -1.1253
   10MOL   H619 7657   7.119   5.101   7.006  2.1132 -0.2650  0.8735
   10MOL   H620 7658   7.297   4.962   7.003 -0.7133  1.6008  0.7835
   10MOL   H621 7659   7.238   4.854   6.869  1.4343  0.2349 -1.8196
   10MOL   H622 7660   7.676   5.168   6.709  0.4603  0.8111 -0.2247
   10MOL   H623 7661   7.724   5.231   6.471 -0.8982  0.8997 -3.0090
   10MOL   H624 7662   7.296   5.281   6.403  0.0720  1.4120 -0.0289
   10MOL   H625 7663   7.251   5.212   6.629 -0.6858 -0.8510  0.2952
   10MOL   C626 7664   7.188   4.981   5.978  0.4413 -0.7063 -0.2434
   10MOL   C627 7665   7.293   5.069   6.034  0.8034  0.0041  0.8921
   10MOL   C628 7666   7.345   5.163   5.924  0.0411  1.2411  0.5684
   10MOL   C629 7667   7.465   5.246   5.963  0.5978 -0.3420 -0.5987
   10MOL   O630 7668   7.440   5.346   6.062 -0.0028 -0.2577 -0.3149
   10MOL   C631 7669   7.392   5.081   5.807  0.3966  0.2249 -0.1447
   10MOL   C632 7670   7.288   4.977   5.751 -1.0169 -0.9690 -0.4245
   10MOL   C633 7671   7.247   4.890   5.867  0.1637  0.0255 -0.0110
   10MOL   C634 7672   7.176   4.754   5.843  0.1493  0.7201 -0.0282
   10MOL   O635 7673   7.061   4.776   5.758 -0.1654  0.4541  0.1543
   10MOL   C636 7674   6.940   4.805   5.813  0.7136  0.2113  0.0058
   10MOL   O637 7675   6.908   4.777   5.929  0.0916  0.0575 -0.5055
   10MOL   C638 7676   6.847   4.894   5.732  0.3707  0.5709  0.0012
   10MOL   C639 7677   6.888   4.935   5.609  0.1876 -0.1102  0.2502
   10MOL   C640 7678   6.802   5.015   5.528 -0.2470 -0.0010  0.1217
   10MOL   C641 7679   6.673   5.048   5.563  0.3487  0.2536 -0.3778
   10MOL   C642 7680   6.592   5.127   5.468 -0.3970  0.2884  0.4790
   10MOL   O643 7681   6.631   5.174   5.363  0.0558  0.3614 -0.7261
   10MOL   O644 7682   6.472   5.148   5.512  0.4900  0.3948  0.9494
   10MOL   C645 7683   6.627   5.006   5.689 -0.1351 -0.2192  1.0306
   10MOL   C646 7684   6.712   4.932   5.773 -0.0958 -0.5043 -0.1617
   10MOL   H647 7685   7.155   4.923   6.063  1.0745 -0.5119  0.1350
   10MOL   H648 7686   7.101   5.034   5.938  0.3947  1.6993  2.8694
   10MOL   H649 7687   7.259   5.132   6.116  2.3745  0.4749  1.1915
   10MOL   H650 7688   7.374   5.005   6.068  1.1105  1.2361  2.5703
   10MOL   H651 7689   7.264   5.224   5.884 -0.9980 -1.0818 -1.0105
   10MOL   H652 7690   7.537   5.172   5.997  0.4287 -0.1698  0.1518
   10MOL   H653 7691   7.510   5.299   5.879  0.7653 -0.0074 -0.3006
   10MOL   H654 7692   7.432   5.143   5.727  0.0340  2.1628  1.1232
   10MOL   H655 7693   7.479   5.025   5.842 -1.8808 -1.4067  3.2504
   10MOL   H656 7694   7.339   4.916   5.676  0.4133  2.3404 -2.2259
   10MOL   H657 7695   7.197   5.012   5.702 -0.2300  0.5806 -0.7951
   10MOL   H658 7696   7.339   4.855   5.914 -0.6292 -0.6643  1.0472
   10MOL   H659 7697   7.248   4.688   5.796  0.9213  0.4728  1.4758
   10MOL   H660 7698   7.151   4.707   5.939 -1.4463 -2.2123 -1.8087
   10MOL   H661 7699   6.983   4.910   5.564 -1.1731 -1.0992 -2.1894
   10MOL   H662 7700   6.846   5.050   5.436  0.6679 -2.2944 -0.3531
   10MOL   H663 7701   6.523   5.018   5.713 -0.4000 -1.4591  0.5584
   10MOL   H664 7702   6.682   4.900   5.871 -0.6921 -1.4491 -0.6463
   10MOL   C665 7703   6.073   5.540   5.339 -0.0704 -0.3654  0.4211
   10MOL   C666 7704   6.155   5.439   5.417  0.2931  0.4524  0.1872
   10MOL   C667 7705   6.302   5.469   5.410 -0.3693 -0.4522 -0.1898
   10MOL   C668 7706   6.392   5.371   5.492 -0.5040  0.6605  0.3255
   10MOL   O669 7707   6.384   5.240   5.430 -0.0819  0.0138 -0.0595
   10MOL   C670 7708   6.341   5.472   5.255  0.6108 -0.4796 -0.0625
   10MOL   C671 7709   6.265   5.576   5.172 -0.0772 -0.0674 -0.0337
   10MOL   C672 7710   6.112   5.556   5.188 -0.7146 -0.0389 -0.2088
   10MOL   C673 7711   6.028   5.669   5.121 -0.1747 -0.4527  0.2393
   10MOL   O674 7712   5.903   5.615   5.098  0.3729  0.1120 -0.7443
   10MOL   C675 7713   5.870   5.539   4.987 -0.9282  0.2515 -0.8315
   10MOL   O676 7714   5.951   5.504   4.903 -0.0480  0.5381  0.4500
   10MOL   C677 7715   5.728   5.508   4.983 -0.3843 -0.2089 -0.1263
   10MOL   C678 7716   5.671   5.440   4.869  0.2830 -0.5486  0.2731
   10MOL   C679 7717   5.542   5.409   4.859  0.1883  0.5885 -0.2618
   10MOL   C680 7718   5.455   5.456   4.956 -0.0267 -0.0717 -0.3917
   10MOL   C681 7719   5.311   5.416   4.948 -0.0745 -0.0782  0.0465
   10MOL   O682 7720   5.257   5.349   4.856  0.8665  0.1189 -0.3643
   10MOL   O683 7721   5.243   5.459   5.055  0.2815 -0.3815 -0.0371
   10MOL   C684 7722   5.499   5.538   5.062 -0.3050 -0.1399  0.1696
   10MOL   C685 7723   5.640   5.562   5.075  0.7981  0.3358  0.9242
   10MOL   H686 7724   5.969   5.510   5.352 -0.8618  1.4702 -1.4243
   10MOL   H687 7725   6.081   5.630   5.400  0.5245 -0.4783  0.5098
   10MOL   H688 7726   6.129   5.426   5.522  2.3729 -1.9974  0.4485
   10MOL   H689 7727   6.134   5.343   5.370  1.8761  0.5465 -0.7741
   10MOL   H690 7728   6.323   5.567   5.454 -1.3422 -0.8544  1.2154
   10MOL   H691 7729   6.496   5.402   5.490 -1.1601  2.9726  0.9024
   10MOL   H692 7730   6.360   5.373   5.596  1.7250 -0.2337  1.0456
   10MOL   H693 7731   6.447   5.492   5.242  0.7493 -1.0977  0.0810
   10MOL   H694 7732   6.320   5.370   5.221 -1.5923  0.0475 -0.3923
   10MOL   H695 7733   6.288   5.553   5.068 -2.8752 -0.6236 -0.5537
   10MOL   H696 7734   6.273   5.684   5.184 -1.6226  0.0552 -0.0665
   10MOL   H697 7735   6.103   5.468   5.124  0.6419  1.2187 -2.2273
   10MOL   H698 7736   6.016   5.751   5.192 -0.7411 -2.1100  2.1033
   10MOL   H699 7737   6.065   5.709   5.027 -0.3401 -1.0659 -0.0880
   10MOL   H700 7738   5.737   5.401   4.793 -1.3687  1.3555 -2.2369
   10MOL   H701 7739   5.507   5.338   4.785 -1.3184  2.2244 -1.1506
   10MOL   H702 7740   5.437   5.571   5.144 -0.1679  0.4788  0.0205
   10MOL   H703 7741   5.679   5.629   5.151  1.2787  1.1066  0.0092
   10MOL   C704 7742   4.716   5.248   4.976 -0.0185  0.3337  0.0427
   10MOL   C705 7743   4.863   5.264   4.985 -0.3251  0.3629 -0.2268
   10MOL   C706 7744   4.904   5.332   5.123 -0.3281  0.1155  0.4305
   10MOL   C707 7745   5.057   5.354   5.137  0.4649  0.3934  0.2889
   10MOL   O708 7746   5.101   5.438   5.036  0.0371 -0.1865 -0.5521
   10MOL   C709 7747   4.841   5.476   5.125  0.3942  0.2460 -0.1769
   10MOL   C710 7748   4.687   5.470   5.108  0.4840  0.5851 -0.0103
   10MOL   C711 7749   4.635   5.386   4.988  0.0299 -0.3085  0.5433
   10MOL   C712 7750   4.483   5.360   5.007  0.1649 -0.4370 -0.1559
   10MOL   O713 7751   4.411   5.478   4.979 -0.8364  0.0910 -0.0046
   10MOL   C714 7752   4.334   5.497   4.873 -0.8746  0.0482  0.4460
   10MOL   O715 7753   4.326   5.407   4.785  0.5107  0.6955 -0.5634
   10MOL   C716 7754   4.274   5.634   4.854 -0.1903 -0.2039  0.3615
   10MOL   C717 7755   4.167   5.644   4.764 -0.3086  0.5442 -0.3247
   10MOL   C718 7756   4.104   5.766   4.739 -0.1644  0.5393  0.1963
   10MOL   C719 7757   4.126   5.876   4.816  0.4835  0.1466 -0.1416
   10MOL   C720 7758   4.047   5.999   4.791 -0.4827  0.6339 -0.4937
   10MOL   O721 7759   3.952   6.002   4.712 -0.5111 -0.0562 -0.7074
   10MOL   O722 7760   4.107   6.108   4.849 -0.0031  0.3783 -0.2769
   10MOL   C723 7761   4.238   5.868   4.912 -0.5139  0.1129 -0.7700
   10MOL   C724 7762   4.314   5.744   4.930 -0.1719  0.5761  0.3653
   10MOL   H725 7763   4.683   5.196   4.886  3.4460 -0.8911 -0.5958
   10MOL   H726 7764   4.691   5.178   5.056  0.9889 -0.1994 -0.1028
   10MOL   H727 7765   4.918   5.171   4.970 -0.4311  0.3016 -0.2316
   10MOL   H728 7766   4.893   5.332   4.905  2.0353 -1.0316 -0.5717
   10MOL   H729 7767   4.860   5.272   5.203 -2.5644 -0.3906 -1.1162
   10MOL   H730 7768   5.070   5.404   5.233 -2.0556  0.6041  0.5473
   10MOL   H731 7769   5.121   5.265   5.135  0.2444  0.2343  0.2622
   10MOL   H732 7770   4.865   5.523   5.220 -1.0946 -1.3212  1.0198
   10MOL   H733 7771   4.888   5.537   5.048  1.4043  0.2522  0.4454
   10MOL   H734 7772   4.637   5.567   5.106 -0.4765  0.1071  1.1233
   10MOL   H735 7773   4.657   5.415   5.197 -0.2060  1.5959  0.3883
   10MOL   H736 7774   4.645   5.438   4.893 -0.2305  0.5902  1.0066
   10MOL   H737 7775   4.461   5.280   4.936  3.3974 -0.5486 -1.1271
   10MOL   H738 7776   4.453   5.317   5.102 -0.8912  1.2872  0.3206
   10MOL   H739 7777   4.143   5.561   4.699 -2.9857  0.5149  0.6596
   10MOL   H740 7778   4.025   5.767   4.664  1.1243  0.5179 -1.1787
   10MOL   H741 7779   4.250   5.948   4.983  0.4624 -1.2921  0.6602
   10MOL   H742 7780   4.389   5.752   5.008  0.5514  2.8926 -0.5298
   10MOL   C743 7781   4.335   6.576   4.884  0.0393 -0.3976  1.2812
   10MOL   C744 7782   4.200   6.521   4.854  1.2395 -0.2075  0.3889
   10MOL   C745 7783   4.213   6.396   4.765 -0.7335  0.9997 -0.0638
   10MOL   C746 7784   4.081   6.321   4.737  0.0308 -0.1644  0.4406
   10MOL   O747 7785   4.033   6.238   4.834 -0.5577  0.0601  0.0192
   10MOL   C748 7786   4.274   6.439   4.637 -0.3809  0.2947  0.4213
   10MOL   C749 7787   4.410   6.513   4.655  0.3108 -0.2069 -0.0933
   10MOL   C750 7788   4.401   6.625   4.761 -0.4872 -0.0475  0.1379
   10MOL   C751 7789   4.543   6.668   4.803  0.6356 -0.4159 -0.8119
   10MOL   O752 7790   4.548   6.792   4.883  0.2524 -0.1452  0.4448
   10MOL   C753 7791   4.502   6.903   4.846  0.0004  0.3700 -0.3727
   10MOL   O754 7792   4.486   6.928   4.726 -0.0103  0.3639 -0.5373
   10MOL   C755 7793   4.473   6.996   4.956  0.2626 -0.6702 -0.1114
   10MOL   C756 7794   4.493   6.956   5.090 -0.2732 -0.1751 -0.1388
   10MOL   C757 7795   4.460   7.046   5.192  0.7862  0.5819  0.2119
   10MOL   C758 7796   4.413   7.173   5.166  0.3223 -0.6842  0.6178
   10MOL   C759 7797   4.392   7.273   5.273 -0.5872 -0.3382  0.3335
   10MOL   O760 7798   4.376   7.392   5.254  0.0163  0.7837 -0.5991
   10MOL   O761 7799   4.400   7.222   5.404  0.6239  0.1844 -0.0703
   10MOL   C762 7800   4.389   7.207   5.031 -0.4036 -0.5477 -0.6113
   10MOL   C763 7801   4.420   7.122   4.924  0.3680 -0.0518 -0.1439
   10MOL   H764 7802   4.334   6.658   4.955  0.8350 -0.3592  1.2589
   10MOL   H765 7803   4.402   6.510   4.941  2.1907 -0.4967 -1.2458
   10MOL   H766 7804   4.151   6.493   4.948  0.6130 -2.3285 -0.5392
   10MOL   H767 7805   4.142   6.599   4.806  0.6957  0.3212  1.8555
   10MOL   H768 7806   4.285   6.330   4.813  0.1839 -0.9103 -3.8531
   10MOL   H769 7807   4.003   6.386   4.699 -1.7890 -2.0732  0.8077
   10MOL   H770 7808   4.090   6.255   4.650  1.1480 -0.3360  0.6801
   10MOL   H771 7809   4.285   6.355   4.568 -1.9029 -0.9677  1.6766
   10MOL   H772 7810   4.206   6.502   4.580 -0.0838  0.2713  0.0346
   10MOL   H773 7811   4.450   6.570   4.571 -1.5368  0.1658 -0.7559
   10MOL   H774 7812   4.488   6.444   4.688  0.2282 -0.7941 -1.0858
   10MOL   H775 7813   4.353   6.714   4.720 -0.9541  0.4375  1.7049
   10MOL   H776 7814   4.572   6.582   4.863  0.9680  1.8090  2.3110
   10MOL   H777 7815   4.600   6.685   4.712 -0.3027 -0.5189 -1.4280
   10MOL   H778 7816   4.537   6.859   5.109 -2.6125 -1.2252  0.0423
   10MOL   H779 7817   4.478   7.003   5.290 -2.2605 -2.3141 -0.4237
   10MOL   H780 7818   4.363   7.310   5.009 -0.1922 -0.0848  1.2572
   10MOL   H781 7819   4.401   7.149   4.821 -0.3900 -1.9103 -0.5172
   10MOL   H782 7820   4.378   7.287   5.469  2.7286 -0.1346  0.9780
   11MOL     C1 7821   1.199   7.910   0.242 -0.1199 -0.3254  0.5680
   11MOL     C2 7822   1.103   8.018   0.191 -0.1555  0.6466  0.7466
   11MOL     C3 7823   1.061   7.987   0.044  0.3909  0.2287  0.5759
   11MOL     C4 7824   0.967   0.054   8.019 -0.6020  0.8858  0.3869
   11MOL     O5 7825   0.846   0.038   0.051 -0.0537  0.2576 -0.2855
   11MOL     C6 7826   1.179   7.976   7.993 -0.3567 -0.5422 -0.3413
   11MOL     C7 7827   1.280   7.872   0.010  0.5486 -0.0200  0.1873
   11MOL     C8 7828   1.325   7.909   0.152  0.2469 -0.0369 -0.3735
   11MOL     C9 7829   1.425   7.806   0.195 -0.7402  0.3263  0.3029
   11MOL    O10 7830   1.543   7.828   0.119 -0.1919 -0.1514 -0.1157
   11MOL    C11 7831   1.642   7.736   0.110  0.4779  0.5465  0.2962
   11MOL    O12 7832   1.642   7.627   0.171  0.4470 -0.8002  0.8381
   11MOL    C13 7833   1.741   7.772   0.008 -0.1519  0.1399 -0.4908
   11MOL    C14 7834   1.867   7.711   0.010 -0.0530  0.3684 -0.5408
   11MOL    C15 7835   1.966   7.739   7.946  0.2059 -0.3155  0.3463
   11MOL    C16 7836   1.933   7.831   7.847 -0.0149 -0.2030  0.4112
   11MOL    C17 7837   2.020   7.862   7.727 -0.5428  0.2529  0.5057
   11MOL    O18 7838   1.984   7.912   7.621  0.5620  0.3045  0.2316
   11MOL    O19 7839   2.149   7.811   7.743 -0.0976  0.0403 -0.0452
   11MOL    C20 7840   1.811   7.898   7.852 -0.6759 -0.2137  0.2627
   11MOL    C21 7841   1.716   7.875   7.950  0.1873  0.0679 -0.7575
   11MOL    H22 7842   1.239   7.936   0.340 -0.1393 -0.3866  0.5916
   11MOL    H23 7843   1.157   7.810   0.248 -1.6165  0.3333  1.2166
   11MOL    H24 7844   1.018   8.023   0.259  1.2514  4.0245  2.4000
   11MOL    H25 7845   1.149   0.082   0.193 -0.7423  0.9156  1.0668
   11MOL    H26 7846   1.008   7.892   0.043  0.8010  0.0088 -1.2798
   11MOL    H27 7847   1.000   0.158   8.030  0.6304  0.5908 -0.4225
   11MOL    H28 7848   0.958   0.039   7.912 -2.2933  1.3262  0.4638
   11MOL    H29 7849   1.159   7.966   7.886 -0.5485  1.2412 -0.4878
   11MOL    H30 7850   1.230   0.037   8.000 -0.7350 -0.3712  0.0731
   11MOL    H31 7851   1.366   7.871   7.978 -0.7828 -0.3978 -1.5223
   11MOL    H32 7852   1.241   7.770   0.009  0.4970  0.0081 -0.5372
   11MOL    H33 7853   1.372   8.007   0.149 -0.9083  0.6407  2.0942
   11MOL    H34 7854   1.456   7.811   0.299  0.6135  0.2811 -0.0800
   11MOL    H35 7855   1.374   7.710   0.184 -1.1793  0.7940 -2.1527
   11MOL    H36 7856   1.896   7.641   0.087  1.0440  2.5445  1.0595
   11MOL    H37 7857   2.064   7.697   7.959  0.4754 -0.2431 -1.3178
   11MOL    H38 7858   1.778   7.957   7.768 -0.7891 -1.4240 -0.5515
   11MOL    H39 7859   1.627   7.936   7.954  0.7205  0.7296  1.4764
   11MOL    H40 7860   0.828   7.981   0.055 -2.7864  0.7177 -1.0765
   11MOL    C41 7861   2.624   7.710   7.653 -0.4703 -0.1207 -0.2340
   11MOL    C42 7862   2.484   7.774   7.678 -0.3123 -0.0106 -0.9985
   11MOL    C43 7863   2.454   7.877   7.580 -0.2610 -0.1760  0.5882
   11MOL    C44 7864   2.316   7.929   7.614 -0.0669 -0.2405 -0.0341
   11MOL    O45 7865   2.233   7.813   7.618  0.0154  0.1318 -0.4910
   11MOL    C46 7866   2.564   7.989   7.585 -0.1074 -0.1068  0.0756
   11MOL    C47 7867   2.702   7.933   7.558  0.3618  0.3541 -0.1685
   11MOL    C48 7868   2.737   7.819   7.663  0.7375  0.5773 -0.1736
   11MOL    C49 7869   2.871   7.753   7.642 -0.3027 -1.0585  0.2726
   11MOL    O50 7870   2.908   7.665   7.739 -0.6567  0.1817 -0.4735
   11MOL    C51 7871   3.021   7.590   7.722  0.1318 -1.1162  0.6658
   11MOL    O52 7872   3.079   7.581   7.616  0.3761 -1.0281  0.5153
   11MOL    C53 7873   3.056   7.515   7.847  0.2980  0.2077  0.1571
   11MOL    C54 7874   3.155   7.416   7.837 -0.4767  0.4591  0.8883
   11MOL    C55 7875   3.190   7.341   7.948 -0.4107 -0.3817 -0.1605
   11MOL    C56 7876   3.140   7.371   0.039 -0.2026 -0.4916 -0.3480
   11MOL    C57 7877   3.184   7.294   0.164 -0.5486  0.5080  0.2641
   11MOL    O58 7878   3.157   7.318   0.279  0.2854  0.3391 -0.0423
   11MOL    O59 7879   3.272   7.205   0.137 -0.1404  0.0754 -0.0029
   11MOL    C60 7880   3.055   7.479   0.054  0.8932  0.2125 -0.1745
   11MOL    C61 7881   3.007   7.542   7.973  0.1497 -0.1832 -0.4684
   11MOL    H62 7882   2.635   7.623   7.717  0.6595 -0.5448 -0.9873
   11MOL    H63 7883   2.620   7.657   7.558 -1.1754 -1.2553  0.4150
   11MOL    H64 7884   2.421   7.685   7.682 -0.1487 -0.2088 -2.3609
   11MOL    H65 7885   2.476   7.813   7.779 -0.5005 -1.2623 -0.5209
   11MOL    H66 7886   2.453   7.829   7.482 -1.7793  1.1517 -0.0681
   11MOL    H67 7887   2.314   7.965   7.717  0.3151  0.6843 -0.3531
   11MOL    H68 7888   2.276   8.004   7.546 -0.4121 -0.2631  0.1413
   11MOL    H69 7889   2.531   0.027   7.511 -2.0096 -0.3754  0.6204
   11MOL    H70 7890   2.556   8.027   7.687  0.1686 -0.2322  0.1449
   11MOL    H71 7891   2.775   8.013   7.572  1.6510 -0.6778 -0.8168
   11MOL    H72 7892   2.714   7.894   7.456 -0.2508  1.0846 -0.5259
   11MOL    H73 7893   2.728   7.858   7.764  0.4835 -1.4431  0.6190
   11MOL    H74 7894   2.884   7.703   7.546 -1.8274  1.5364 -1.3357
   11MOL    H75 7895   2.950   7.828   7.645 -2.5196  1.2997  1.4325
   11MOL    H76 7896   3.208   7.404   7.744 -1.7080  1.6029  0.0167
   11MOL    H77 7897   3.269   7.269   7.930 -1.4540 -1.4456 -0.6214
   11MOL    H78 7898   3.010   7.503   0.149 -1.9150 -0.9352 -1.1735
   11MOL    H79 7899   2.926   7.610   7.997  1.0763  0.9662 -0.5620
   11MOL    C80 7900   3.647   6.895   0.535  0.0698 -0.0601 -0.2352
   11MOL    C81 7901   3.598   7.023   0.468  0.5091  0.6885  0.2959
   11MOL    C82 7902   3.477   6.999   0.370  0.0167 -0.0922  0.7012
   11MOL    C83 7903   3.419   7.122   0.308  0.0117  0.8332 -0.3572
   11MOL    O84 7904   3.294   7.094   0.247 -0.4753 -0.5844 -0.5927
   11MOL    C85 7905   3.506   6.886   0.272  0.3758  0.3813  0.3463
   11MOL    C86 7906   3.544   6.755   0.343 -0.1703  0.4320  0.3899
   11MOL    C87 7907   3.664   6.780   0.434 -0.5663  0.1440  0.0345
   11MOL    C88 7908   3.708   6.652   0.507  0.5574 -0.0560 -0.2370
   11MOL    O89 7909   3.769   6.562   0.416  0.0450 -0.0507 -0.1383
   11MOL    C90 7910   3.820   6.440   0.454  0.1315  0.1390 -0.1326
   11MOL    O91 7911   3.806   6.391   0.569 -0.0511 -0.0408  0.2238
   11MOL    C92 7912   3.886   6.365   0.342  0.3328 -0.2817 -0.5256
   11MOL    C93 7913   3.954   6.431   0.240  0.3612 -0.9449  0.4812
   11MOL    C94 7914   4.018   6.360   0.137  0.5513  0.0471  0.1626
   11MOL    C95 7915   4.007   6.217   0.136  0.1171 -0.0251  1.1227
   11MOL    C96 7916   4.067   6.139   0.021  0.6555  0.8759 -1.0521
   11MOL    O97 7917   4.039   6.021   0.001  0.6726  0.2804 -0.1040
   11MOL    O98 7918   4.151   6.211   7.981 -0.1659 -0.0442  0.0401
   11MOL    C99 7919   3.938   6.154   0.241  0.1967 -0.6174  0.7263
   11MOL   C100 7920   3.871   6.227   0.340  0.8921 -0.3884 -0.0393
   11MOL   H101 7921   3.738   6.925   0.586  0.3373 -0.8200 -0.2579
   11MOL   H102 7922   3.572   6.867   0.609  0.8898 -0.3290  0.4937
   11MOL   H103 7923   3.577   7.100   0.542 -0.3808 -0.9726  1.8272
   11MOL   H104 7924   3.682   7.063   0.412  2.2305 -1.9786  0.8444
   11MOL   H105 7925   3.399   6.958   0.434 -1.4783  1.2945 -0.2004
   11MOL   H106 7926   3.405   7.204   0.378  1.2971  1.2418 -0.5769
   11MOL   H107 7927   3.476   7.165   0.226 -3.0758 -1.5068 -3.9496
   11MOL   H108 7928   3.416   6.866   0.213  2.3797 -2.8590 -1.7952
   11MOL   H109 7929   3.578   6.914   0.195  0.3094  1.3922  0.6476
   11MOL   H110 7930   3.577   6.674   0.278  0.9414  1.8787 -0.8928
   11MOL   H111 7931   3.468   6.721   0.413  0.0924 -2.5537 -0.7172
   11MOL   H112 7932   3.741   6.815   0.365 -1.9250  0.4616 -1.3369
   11MOL   H113 7933   3.782   6.685   0.580 -0.8502  1.0162  0.7378
   11MOL   H114 7934   3.622   6.608   0.557  1.2100 -2.3436 -1.0877
   11MOL   H115 7935   3.964   6.539   0.238 -1.8080 -0.7101  0.4025
   11MOL   H116 7936   4.063   6.412   0.054 -0.5359 -1.8167 -1.6433
   11MOL   H117 7937   3.931   6.046   0.235  0.3839 -0.5561 -0.9409
   11MOL   H118 7938   3.823   6.165   0.414 -0.6772  0.6534 -0.1690
   11MOL   C119 7939   4.104   6.590   7.653  0.0450  0.2891 -0.6274
   11MOL   C120 7940   4.109   6.437   7.622  0.5950  0.0069  0.0757
   11MOL   C121 7941   4.157   6.362   7.746  0.0475  0.1291 -0.5313
   11MOL   C122 7942   4.149   6.212   7.738  0.1104 -0.5248  0.0357
   11MOL   O123 7943   4.210   6.146   7.853 -0.4805 -0.3961  0.6816
   11MOL   C124 7944   4.303   6.418   7.786 -0.5218 -0.2599 -0.4211
   11MOL   C125 7945   4.292   6.567   7.812  0.3416 -0.1972 -0.3448
   11MOL   C126 7946   4.244   6.640   7.682  0.1173 -0.1346 -0.1132
   11MOL   C127 7947   4.265   6.791   7.703 -0.2203  0.4738 -0.8758
   11MOL   O128 7948   4.216   6.874   7.598 -0.2229 -0.6117  0.1366
   11MOL   C129 7949   4.207   7.005   7.621  0.3069  0.8055 -0.3450
   11MOL   O130 7950   4.250   7.067   7.717 -0.3145 -0.2773 -0.8383
   11MOL   C131 7951   4.164   7.082   7.499 -0.5967 -0.0078 -0.1876
   11MOL   C132 7952   4.130   7.221   7.513  0.0703 -0.4140  0.2087
   11MOL   C133 7953   4.105   7.293   7.396  0.0288  0.0719 -0.0655
   11MOL   C134 7954   4.108   7.233   7.271  1.0979 -0.1439  0.3348
   11MOL   C135 7955   4.101   7.316   7.146  0.1583 -0.6385 -0.1900
   11MOL   O136 7956   4.093   7.440   7.156  0.0044 -0.6624 -0.5380
   11MOL   O137 7957   4.096   7.253   7.033  0.4056 -0.4114 -0.4242
   11MOL   C138 7958   4.129   7.089   7.259 -0.4789 -0.3762 -0.1313
   11MOL   C139 7959   4.157   7.016   7.373  0.2750  0.8941  0.5363
   11MOL   H140 7960   4.068   6.638   7.562  0.9792  0.4703 -0.9087
   11MOL   H141 7961   4.045   6.613   7.742  2.9420 -0.3363  1.5438
   11MOL   H142 7962   4.012   6.402   7.587  0.4576  0.1021  0.3618
   11MOL   H143 7963   4.173   6.431   7.534  0.1436 -1.4766 -0.1569
   11MOL   H144 7964   4.086   6.396   7.821 -0.0912  0.3568 -0.7629
   11MOL   H145 7965   4.047   6.176   7.727 -1.3966  3.4493  0.0686
   11MOL   H146 7966   4.204   6.182   7.649  1.5802 -0.9254  1.0487
   11MOL   H147 7967   4.346   6.361   7.868 -0.9751 -0.1976 -0.1328
   11MOL   H148 7968   4.374   6.404   7.705  0.8854 -0.6444  0.8637
   11MOL   H149 7969   4.395   6.601   7.827  0.8757 -2.2157  0.7769
   11MOL   H150 7970   4.225   6.588   7.895 -0.6364  0.7836 -1.3662
   11MOL   H151 7971   4.307   6.599   7.603 -0.2493 -0.7707 -0.0876
   11MOL   H152 7972   4.234   6.823   7.802  0.1054  0.2828 -0.7105
   11MOL   H153 7973   4.371   6.817   7.712  0.1236 -1.2080 -0.0555
   11MOL   H154 7974   4.124   7.269   7.610  2.0961  0.6248 -0.1527
   11MOL   H155 7975   4.071   7.396   7.396 -2.6536 -0.7883  1.4951
   11MOL   H156 7976   4.135   7.040   7.163  0.2988 -1.4331  0.4348
   11MOL   H157 7977   4.191   6.914   7.367 -2.5258 -0.0455  0.2084
   11MOL   C158 7978   4.420   7.616   6.871 -0.0913  0.2185  0.0546
   11MOL   C159 7979   4.294   7.528   6.880  0.4051  0.1219 -0.2713
   11MOL   C160 7980   4.301   7.381   6.848 -0.2796 -0.3551 -0.7800
   11MOL   C161 7981   4.167   7.318   6.818 -0.5909  0.0070  0.0619
   11MOL   O162 7982   4.064   7.338   6.914 -0.3428  0.7359  0.1627
   11MOL   C163 7983   4.390   7.359   6.719 -0.0351  0.0711  0.6240
   11MOL   C164 7984   4.532   7.421   6.738  0.4300  0.6576 -0.3568
   11MOL   C165 7985   4.515   7.578   6.758  0.1462  0.5954  0.0204
   11MOL   C166 7986   4.654   7.629   6.792  0.4685  1.0330 -0.3098
   11MOL   O167 7987   4.733   7.557   6.884  0.2206 -0.1552 -0.3453
   11MOL   C168 7988   4.863   7.519   6.844  1.2390  0.4389  1.3183
   11MOL   O169 7989   4.908   7.541   6.730  0.6476 -0.2258  0.1864
   11MOL   C170 7990   4.931   7.453   6.952 -0.8060 -0.3482  0.3627
   11MOL   C171 7991   5.037   7.366   6.918 -0.5092 -0.0648 -0.0228
   11MOL   C172 7992   5.111   7.305   7.020  0.5368 -0.1032  1.0192
   11MOL   C173 7993   5.072   7.321   7.157  0.3102 -1.1213  0.6535
   11MOL   C174 7994   5.142   7.254   7.268  0.0088 -0.0887  0.1030
   11MOL   O175 7995   5.147   7.297   7.384 -0.3053 -0.0248  0.1490
   11MOL   O176 7996   5.209   7.147   7.234 -0.1358  0.5472  0.2852
   11MOL   C177 7997   4.970   7.413   7.184 -0.2735  0.0796 -0.2575
   11MOL   C178 7998   4.892   7.479   7.088  0.7769  0.3044  0.1449
   11MOL   H179 7999   4.397   7.723   6.865 -0.3605  0.0783 -1.4332
   11MOL   H180 8000   4.466   7.590   6.967 -0.7340 -2.0758 -0.2291
   11MOL   H181 8001   4.242   7.548   6.974 -0.6223 -2.7402 -0.1587
   11MOL   H182 8002   4.225   7.573   6.809 -1.5321 -1.8485  0.3055
   11MOL   H183 8003   4.349   7.338   6.937  3.3072  3.6493 -0.5974
   11MOL   H184 8004   4.115   7.369   6.736 -0.7072 -0.3803 -0.1052
   11MOL   H185 8005   4.179   7.213   6.792  2.3130  0.4570 -0.5894
   11MOL   H186 8006   4.399   7.252   6.700  0.1740  0.3904 -1.2512
   11MOL   H187 8007   4.342   7.402   6.631 -0.3929 -0.8029  0.3841
   11MOL   H188 8008   4.579   7.395   6.643 -1.6491  0.7275 -1.4423
   11MOL   H189 8009   4.569   7.362   6.822 -0.1257 -1.8782 -1.8384
   11MOL   H190 8010   4.471   7.614   6.664 -0.0218 -0.8409 -0.4689
   11MOL   H191 8011   4.705   7.636   6.696 -2.5489 -1.9824 -2.2239
   11MOL   H192 8012   4.649   7.733   6.824  1.6405  1.4410 -1.4018
   11MOL   H193 8013   5.075   7.351   6.818 -2.9215  0.5863 -1.0785
   11MOL   H194 8014   5.199   7.251   6.989 -1.0712 -0.0183 -4.3570
   11MOL   H195 8015   4.949   7.431   7.288  1.3172 -0.6885  0.2201
   11MOL   H196 8016   4.811   7.545   7.117  0.4328 -0.0673  0.0507
   11MOL   C197 8017   5.518   6.787   7.542  0.3576  0.9780 -0.0458
   11MOL   C198 8018   5.440   6.839   7.423  0.9673  1.0666 -0.0304
   11MOL   C199 8019   5.303   6.880   7.477  0.0302 -0.0638  0.7233
   11MOL   C200 8020   5.230   6.953   7.359  0.1235 -1.0550  0.4518
   11MOL   O201 8021   5.285   7.084   7.342  0.2738 -0.4700 -0.0400
   11MOL   C202 8022   5.224   6.757   7.536  0.8299  0.5042 -0.0253
   11MOL   C203 8023   5.301   6.708   7.664 -0.0863 -0.3018  0.6093
   11MOL   C204 8024   5.447   6.666   7.631 -0.3505 -0.2386  0.0360
   11MOL   C205 8025   5.535   6.643   7.757 -1.1154  0.5039  0.0419
   11MOL   O206 8026   5.523   6.745   7.846 -0.6840 -0.1292 -0.1886
   11MOL   C207 8027   5.554   6.735   7.975 -0.4025 -0.2591 -0.1224
   11MOL   O208 8028   5.613   6.641   8.023  0.9635  0.0637 -0.0855
   11MOL   C209 8029   5.513   6.852   0.020 -0.4443  0.0522  0.6331
   11MOL   C210 8030   5.455   6.966   8.003 -0.2953  0.1625  0.2066
   11MOL   C211 8031   5.415   7.071   0.054  0.5300 -0.0406  0.2121
   11MOL   C212 8032   5.421   7.061   0.193  0.3075  0.4285 -0.2520
   11MOL   C213 8033   5.340   7.153   0.280  0.2390 -0.3246 -0.5445
   11MOL   O214 8034   5.265   7.247   0.249  0.2918 -0.5160  0.2088
   11MOL   O215 8035   5.355   7.117   0.413 -0.2514 -0.2625 -0.2727
   11MOL   C216 8036   5.496   6.952   0.242  0.2072 -0.4450  0.7935
   11MOL   C217 8037   5.532   6.845   0.161  0.0529  0.1210  0.0591
   11MOL   H218 8038   5.610   6.743   7.502 -1.2714 -0.9367 -1.7899
   11MOL   H219 8039   5.542   6.874   7.603 -0.1940  2.3188 -1.7264
   11MOL   H220 8040   5.498   6.921   7.380 -0.2513  1.3328 -1.1965
   11MOL   H221 8041   5.436   6.758   7.350 -1.7615  0.4845  0.7304
   11MOL   H222 8042   5.310   6.953   7.558 -0.5257 -0.1731  0.8730
   11MOL   H223 8043   5.237   6.908   7.260  0.4736  3.5045 -1.6809
   11MOL   H224 8044   5.125   6.972   7.381  0.1510 -0.5509  0.1330
   11MOL   H225 8045   5.120   6.787   7.552  0.6782 -0.1257  0.1747
   11MOL   H226 8046   5.221   6.675   7.465 -3.0176  0.3000  0.2817
   11MOL   H227 8047   5.243   6.626   7.706 -0.7785 -0.3699 -0.4676
   11MOL   H228 8048   5.295   6.785   7.740  1.6688  0.2202  0.2385
   11MOL   H229 8049   5.434   6.574   7.575  0.6629 -0.0956 -0.4404
   11MOL   H230 8050   5.501   6.551   7.806  1.0763  0.0669  0.7828
   11MOL   H231 8051   5.640   6.623   7.736 -1.2068  1.0260 -0.9630
   11MOL   H232 8052   5.436   6.973   7.896  1.0819  3.8006  0.1126
   11MOL   H233 8053   5.375   7.161   0.010 -0.4021 -0.4022  0.3192
   11MOL   H234 8054   5.505   6.945   0.349  1.6861  1.8094  0.8459
   11MOL   H235 8055   5.565   6.760   0.217 -0.8624  0.8545  1.7573
   11MOL   C236 8056   4.966   7.103   0.866 -0.4498 -0.0443 -0.3800
   11MOL   C237 8057   4.994   7.102   0.716 -0.1404  0.9293  0.0907
   11MOL   C238 8058   5.126   7.171   0.681  0.4455  0.2538  0.2024
   11MOL   C239 8059   5.161   7.165   0.532  0.4493  0.6932  0.3285
   11MOL   O240 8060   5.289   7.208   0.511 -1.0807  0.7495 -0.1426
   11MOL   C241 8061   5.129   7.314   0.729 -0.0888 -0.2476  0.0091
   11MOL   C242 8062   5.108   7.320   0.883 -0.8575 -0.2588  0.6861
   11MOL   C243 8063   4.978   7.241   0.932 -0.9879  0.0678  0.4345
   11MOL   C244 8064   4.979   7.225   1.085 -0.1382  0.1411  0.2526
   11MOL   O245 8065   4.959   7.349   1.155 -0.2761 -0.5023 -0.1617
   11MOL   C246 8066   5.062   7.430   1.190  0.0264  0.3013  0.1749
   11MOL   O247 8067   5.177   7.407   1.159 -0.2396  0.0898  0.5367
   11MOL   C248 8068   5.019   7.551   1.257  0.5407 -0.1432 -0.0919
   11MOL   C249 8069   5.112   7.657   1.241  0.2095  0.1769  0.0068
   11MOL   C250 8070   5.084   7.786   1.289  0.0613  0.4199 -0.0588
   11MOL   C251 8071   4.958   7.811   1.347 -0.6556  1.4386 -0.4905
   11MOL   C252 8072   4.924   7.949   1.386 -0.9245 -0.1253 -0.0992
   11MOL   O253 8073   4.835   7.969   1.467  0.1779 -0.1218 -0.4083
   11MOL   O254 8074   5.008   0.006   1.330 -0.3380 -0.1978 -0.2878
   11MOL   C255 8075   4.871   7.704   1.367 -0.6069  0.0616 -0.3643
   11MOL   C256 8076   4.895   7.574   1.324  0.4473 -0.4314 -0.7384
   11MOL   H257 8077   4.862   7.076   0.888 -0.3536  0.7205  1.0449
   11MOL   H258 8078   5.036   7.029   0.905  2.3098  1.6871 -1.8951
   11MOL   H259 8079   4.983   7.000   0.680  1.9214  0.3013  1.1536
   11MOL   H260 8080   4.907   7.145   0.667 -1.1606  0.4247  1.4424
   11MOL   H261 8081   5.211   7.120   0.726  0.6527 -0.5505 -1.0713
   11MOL   H262 8082   5.159   7.058   0.511  2.6016  0.7519 -0.3408
   11MOL   H263 8083   5.100   7.230   0.470  0.6086 -0.5246 -1.1512
   11MOL   H264 8084   5.218   7.366   0.694  0.5043 -1.3237 -0.1209
   11MOL   H265 8085   5.047   7.372   0.685  2.1341  1.8233 -1.5023
   11MOL   H266 8086   5.105   7.421   0.923 -0.3818 -0.5399  1.4397
   11MOL   H267 8087   5.193   7.264   0.922 -0.1823  0.5591  0.3880
   11MOL   H268 8088   4.888   7.298   0.909 -1.3116 -2.0821 -4.1425
   11MOL   H269 8089   4.894   7.160   1.107  0.2030 -0.7063 -0.9134
   11MOL   H270 8090   5.066   7.175   1.127 -0.7260  0.8066  2.3130
   11MOL   H271 8091   5.207   7.649   1.190 -0.1434 -0.8307 -0.4989
   11MOL   H272 8092   5.164   7.854   1.266  0.1615  0.2721 -0.1530
   11MOL   H273 8093   4.778   7.716   1.421 -1.4194 -1.1079 -1.4669
   11MOL   H274 8094   4.826   7.494   1.345 -3.6808  2.9165 -0.9269
   11MOL   C275 8095   4.857   0.310   1.754  0.2178  0.6089 -0.0773
   11MOL   C276 8096   4.903   0.211   1.650  0.3486  0.0244  0.8123
   11MOL   C277 8097   5.043   0.257   1.592 -0.4363 -0.0659 -0.7177
   11MOL   C278 8098   5.091   0.160   1.487  0.4661 -0.8493  1.0713
   11MOL   O279 8099   4.990   0.141   1.390  0.2244 -0.1284 -0.3858
   11MOL   C280 8100   5.044   0.404   1.536 -0.1720 -0.8615  0.0485
   11MOL   C281 8101   4.988   0.498   1.647  0.3121 -0.2823 -0.2769
   11MOL   C282 8102   4.850   0.451   1.700 -0.8592  0.0038  0.1223
   11MOL   C283 8103   4.804   0.547   1.807  0.3461 -0.1923  0.6313
   11MOL   O284 8104   4.668   0.558   1.794 -0.2735  0.0496 -0.0927
   11MOL   C285 8105   4.611   0.656   1.721  0.0535 -1.0164  0.1899
   11MOL   O286 8106   4.674   0.738   1.651  0.2849 -0.3341  0.1693
   11MOL   C287 8107   4.458   0.639   1.710 -0.4887  0.2173  0.6179
   11MOL   C288 8108   4.395   0.529   1.764 -0.1032 -0.0238  0.3028
   11MOL   C289 8109   4.256   0.518   1.754  0.1394  0.0964 -0.2548
   11MOL   C290 8110   4.179   0.611   1.678 -0.2891 -0.1151  0.1778
   11MOL   C291 8111   4.041   0.578   1.649 -0.5602  0.3147 -0.1985
   11MOL   O292 8112   4.003   0.463   1.626 -0.8790  0.0595 -0.5391
   11MOL   O293 8113   3.953   0.679   1.668 -0.3070  0.2686 -0.0957
   11MOL   C294 8114   4.242   0.727   1.630  0.3896  0.1792 -0.2452
   11MOL   C295 8115   4.383   0.740   1.650  0.3025 -0.9643 -0.2186
   11MOL   H296 8116   4.757   0.279   1.784  0.9501 -0.4063  1.3533
   11MOL   H297 8117   4.936   0.309   1.829 -0.0686 -1.4924  0.2456
   11MOL   H298 8118   4.903   0.110   1.691  2.5074  0.0120  0.8178
   11MOL   H299 8119   4.833   0.214   1.566  1.7649 -0.3139 -0.3971
   11MOL   H300 8120   5.118   0.253   1.670 -0.4987 -1.0151 -0.7085
   11MOL   H301 8121   5.180   0.202   1.439 -0.1183  0.1098  0.8097
   11MOL   H302 8122   5.114   0.066   1.536 -0.7650 -0.7932  1.7714
   11MOL   H303 8123   5.142   0.436   1.500 -0.0046 -1.1769  0.2281
   11MOL   H304 8124   4.968   0.410   1.457  0.4936 -1.2012 -0.6213
   11MOL   H305 8125   4.982   0.600   1.609 -0.8953 -0.3182 -0.2037
   11MOL   H306 8126   5.063   0.520   1.723  0.5985  0.1460 -0.6828
   11MOL   H307 8127   4.793   0.450   1.607 -1.3559 -0.9810  0.4312
   11MOL   H308 8128   4.822   0.492   1.899 -1.9046  0.2217  1.3321
   11MOL   H309 8129   4.849   0.647   1.799 -1.1709  0.6317  2.2167
   11MOL   H310 8130   4.453   0.449   1.808  2.3334  1.6475  0.2447
   11MOL   H311 8131   4.206   0.430   1.793 -0.4180  0.7373  0.4835
   11MOL   H312 8132   4.189   0.800   1.571 -0.1821 -0.5841 -0.6890
   11MOL   H313 8133   4.438   0.813   1.592 -1.0563 -0.7403 -1.2507
   11MOL   C314 8134   3.690   0.390   1.272 -0.5646 -0.2329 -0.2564
   11MOL   C315 8135   3.765   0.470   1.387  0.5679  0.2344 -0.3781
   11MOL   C316 8136   3.707   0.611   1.405 -0.1899 -0.2497  0.4655
   11MOL   C317 8137   3.808   0.687   1.489  0.5280  0.0699 -0.2033
   11MOL   O318 8138   3.813   0.644   1.619  0.5703 -0.0502 -0.3146
   11MOL   C319 8139   3.676   0.684   1.278  0.6223 -0.4324 -0.5784
   11MOL   C320 8140   3.572   0.606   1.199 -0.2285  0.4191  0.0868
   11MOL   C321 8141   3.645   0.478   1.154 -0.3885 -0.5168 -0.1052
   11MOL   C322 8142   3.570   0.405   1.044  0.1484 -0.0149  0.2993
   11MOL   O323 8143   3.647   0.301   0.987 -0.6665 -0.3336 -0.3731
   11MOL   C324 8144   3.661   0.286   0.855  0.3772  0.1753  0.5360
   11MOL   O325 8145   3.608   0.354   0.770  0.0800  0.0766 -0.3365
   11MOL   C326 8146   3.760   0.178   0.828 -0.8066  0.5337  0.4654
   11MOL   C327 8147   3.786   0.081   0.928  0.3539 -0.2133 -0.8501
   11MOL   C328 8148   3.862   7.999   0.896 -1.1902  0.1439 -0.5054
   11MOL   C329 8149   3.921   7.989   0.767  0.4116 -0.0105  0.2428
   11MOL   C330 8150   3.983   7.854   0.725  1.5696 -0.5664 -0.3231
   11MOL   O331 8151   3.947   7.754   0.789 -0.2386 -0.0164  0.1597
   11MOL   O332 8152   4.070   7.852   0.619 -0.4280 -0.6615 -0.9573
   11MOL   C333 8153   3.905   0.056   0.677  0.5830  0.4920 -0.3070
   11MOL   C334 8154   3.831   0.171   0.711  0.6200 -0.3215 -0.6785
   11MOL   H335 8155   3.744   0.303   1.234 -0.9583 -0.2475 -0.7843
   11MOL   H336 8156   3.600   0.357   1.325  0.3722  2.4096  3.1416
   11MOL   H337 8157   3.778   0.423   1.485  2.0089  1.4386  0.0288
   11MOL   H338 8158   3.868   0.473   1.353  1.7682 -0.8823  3.0166
   11MOL   H339 8159   3.617   0.581   1.459 -0.2391 -2.1726 -0.6103
   11MOL   H340 8160   3.904   0.688   1.437  0.3791 -0.8147 -0.5076
   11MOL   H341 8161   3.771   0.790   1.485 -2.2742 -0.9229 -2.7321
   11MOL   H342 8162   3.627   0.775   1.313  0.0064 -1.4131  1.1686
   11MOL   H343 8163   3.752   0.711   1.204 -0.1952  1.9894 -0.5755
   11MOL   H344 8164   3.549   0.664   1.109  0.5200 -0.7320 -0.8773
   11MOL   H345 8165   3.477   0.591   1.249 -1.1298  0.2354 -1.6244
   11MOL   H346 8166   3.741   0.515   1.120 -0.0927 -0.8566  0.3558
   11MOL   H347 8167   3.474   0.367   1.080 -0.9876 -1.3048 -3.7410
   11MOL   H348 8168   3.543   0.473   0.963  0.2411 -2.8839 -2.2273
   11MOL   H349 8169   3.736   0.089   1.023 -2.5726 -0.5540 -2.3190
   11MOL   H350 8170   3.874   7.919   0.968  2.0260  0.9067 -0.1400
   11MOL   H351 8171   3.946   0.038   0.578 -3.0815 -2.5605 -1.3525
   11MOL   H352 8172   3.811   0.245   0.635  0.7788  0.6462  0.2074
   11MOL   C353 8173   4.000   7.833   0.117  0.6513 -0.5369  0.0740
   11MOL   C354 8174   3.982   7.725   0.228  0.4068  0.1055 -0.7874
   11MOL   C355 8175   4.065   7.765   0.348  0.5608  0.0604 -0.3496
   11MOL   C356 8176   4.050   7.673   0.473  0.4740 -0.6991  0.8807
   11MOL   O357 8177   4.120   7.720   0.584 -0.0406 -0.6174  0.2764
   11MOL   C358 8178   4.211   7.769   0.312  0.5119  0.4789  0.8023
   11MOL   C359 8179   4.238   7.866   0.193 -0.1769 -0.6320  0.4987
   11MOL   C360 8180   4.147   7.846   0.070  0.7443  0.0827  0.2350
   11MOL   C361 8181   4.160   7.963   8.010 -0.1665  0.3890  0.4992
   11MOL   O362 8182   4.292   7.997   7.970 -0.4273 -0.5029 -0.6114
   11MOL   C363 8183   4.358   7.938   7.863  0.2969  0.0370 -0.5249
   11MOL   O364 8184   4.312   7.849   7.789  0.4289 -0.1655 -0.1184
   11MOL   C365 8185   4.500   7.993   7.843  0.4124  0.0285  0.0262
   11MOL   C366 8186   4.583   0.001   7.952  0.2487 -0.3047  0.3025
   11MOL   C367 8187   4.710   0.043   7.925 -0.0715  0.7440  0.3656
   11MOL   C368 8188   4.762   0.054   7.795 -0.4662 -0.2384 -0.4151
   11MOL   C369 8189   4.905   0.090   7.780 -0.4943 -0.4003 -0.2860
   11MOL   O370 8190   4.984   0.107   7.875  0.5269  0.2860  0.0904
   11MOL   O371 8191   4.944   0.095   7.655 -0.0476  0.0816 -0.4161
   11MOL   C372 8192   4.675   0.023   7.685 -0.4141 -0.2030  0.5578
   11MOL   C373 8193   4.552   7.998   7.711 -0.3166  0.4730 -0.0180
   11MOL   H374 8194   3.948   7.801   0.026 -1.6498  1.6422  0.5836
   11MOL   H375 8195   3.963   7.931   0.145 -0.1987 -0.9047  0.2546
   11MOL   H376 8196   3.878   7.732   0.258  0.6933 -1.3914  0.6425
   11MOL   H377 8197   4.008   7.625   0.193 -0.7759 -0.7449  0.7070
   11MOL   H378 8198   4.042   7.868   0.374  0.4232  0.7511 -3.1348
   11MOL   H379 8199   3.944   7.657   0.490 -0.2272 -0.5268 -2.8697
   11MOL   H380 8200   4.089   7.575   0.445  1.2243 -0.4477  1.0291
   11MOL   H381 8201   4.273   7.807   0.393  1.1876  0.6615  0.2058
   11MOL   H382 8202   4.233   7.666   0.285 -1.7976  1.2239 -4.4063
   11MOL   H383 8203   4.342   7.878   0.164 -0.2176  0.9135  0.9683
   11MOL   H384 8204   4.209   7.959   0.240 -2.9983 -1.2379  0.0704
   11MOL   H385 8205   4.175   7.754   0.019  1.8409 -0.9060  2.5907
   11MOL   H386 8206   4.105   7.937   7.920  1.3963 -1.1046 -0.0403
   11MOL   H387 8207   4.108   0.015   0.014  2.4350  1.3596  1.8957
   11MOL   H388 8208   4.548   8.026   0.019  0.8752  1.5036  0.7200
   11MOL   H389 8209   4.777   0.056   8.009  0.4088 -0.3871  0.1710
   11MOL   H390 8210   4.718   0.018   7.586  0.4490  0.0458  0.9113
   11MOL   H391 8211   4.487   7.965   7.631  0.2686 -1.2122  0.1864
   11MOL   C392 8212   5.374   0.526   7.573 -0.1409 -0.1991  0.6115
   11MOL   C393 8213   5.238   0.454   7.567 -0.3386  0.1054  0.0784
   11MOL   C394 8214   5.243   0.309   7.604 -0.1045  0.8007 -0.0807
   11MOL   C395 8215   5.105   0.242   7.569 -0.3335 -0.0710  0.4542
   11MOL   O396 8216   5.095   0.122   7.640 -0.6131 -0.5650 -0.4677
   11MOL   C397 8217   5.353   0.236   7.526 -0.5943  0.1109 -0.3423
   11MOL   C398 8218   5.487   0.308   7.541 -0.1377  0.0211 -0.0926
   11MOL   C399 8219   5.485   0.455   7.493 -0.1099 -0.2862  0.6763
   11MOL   C400 8220   5.616   0.534   7.504  0.5694  0.3547  0.3181
   11MOL   O401 8221   5.658   0.545   7.637  0.0874 -0.4075 -0.0352
   11MOL   C402 8222   5.744   0.646   7.665 -0.2637  0.7451  0.3327
   11MOL   O403 8223   5.797   0.724   7.585 -0.2439 -0.8846  0.0351
   11MOL   C404 8224   5.767   0.659   7.809 -0.5908 -0.3711 -0.4941
   11MOL   C405 8225   5.729   0.564   7.908 -0.4477  0.2465  0.0674
   11MOL   C406 8226   5.746   0.583   0.006 -0.2836 -0.0888 -0.1821
   11MOL   C407 8227   5.794   0.705   0.055  0.9790 -0.2405  0.0158
   11MOL   C408 8228   5.803   0.724   0.200  0.0750  0.0529 -0.4296
   11MOL   O409 8229   5.809   0.640   0.290 -0.1102 -0.0378 -0.5298
   11MOL   O410 8230   5.810   0.858   0.237 -0.0789 -0.3997  0.8129
   11MOL   C411 8231   5.829   0.807   7.999 -0.3427 -0.4982  0.6310
   11MOL   C412 8232   5.821   0.781   7.862 -0.1643  0.0955  0.4087
   11MOL   H413 8233   5.367   0.627   7.535  1.8880  0.0393  0.8354
   11MOL   H414 8234   5.392   0.536   7.680  0.9453  0.4157  0.3744
   11MOL   H415 8235   5.162   0.512   7.620 -0.5068  0.2089 -0.2729
   11MOL   H416 8236   5.197   0.451   7.466 -0.4134  1.6584  0.0553
   11MOL   H417 8237   5.258   0.299   7.711 -1.4179  1.0611  0.1436
   11MOL   H418 8238   5.030   0.313   7.603  1.1003  2.1347 -0.8107
   11MOL   H419 8239   5.091   0.243   7.461  0.8482  2.9003  0.2688
   11MOL   H420 8240   5.362   0.132   7.557 -1.6949 -0.2305 -1.1441
   11MOL   H421 8241   5.324   0.232   7.421 -1.8309  1.7387 -0.0768
   11MOL   H422 8242   5.557   0.243   7.487  0.3488  0.1123  0.4284
   11MOL   H423 8243   5.538   0.296   7.636 -1.4266 -0.2056  0.5753
   11MOL   H424 8244   5.447   0.450   7.391 -0.6038  0.0194  0.8425
   11MOL   H425 8245   5.689   0.501   7.431 -1.5386 -2.5177 -0.5858
   11MOL   H426 8246   5.585   0.633   7.471  1.6592 -0.2854 -2.7697
   11MOL   H427 8247   5.677   0.474   7.877  0.2885 -0.7533  1.6821
   11MOL   H428 8248   5.704   0.507   0.071  0.3960 -1.5117 -1.3796
   11MOL   H429 8249   5.871   0.902   8.029 -0.8877  0.1833 -0.7001
   11MOL   H430 8250   5.849   0.856   7.790  0.8401  0.7187  1.4410
   11MOL   C431 8251   6.272   0.861   0.648 -0.4267 -0.4018 -0.6669
   11MOL   C432 8252   6.211   0.919   0.520  0.4421 -0.4540 -0.4289
   11MOL   C433 8253   6.076   0.858   0.484  0.4086  0.3806 -0.8149
   11MOL   C434 8254   5.997   0.921   0.363  0.8549  0.0334 -0.3876
   11MOL   O435 8255   5.866   0.869   0.371 -0.4445  0.8320  0.2380
   11MOL   C436 8256   6.096   0.700   0.476 -1.2305  0.1699 -0.2403
   11MOL   C437 8257   6.156   0.654   0.611  0.8842 -0.3227  0.4209
   11MOL   C438 8258   6.297   0.717   0.641  0.0173  0.2773 -0.1645
   11MOL   C439 8259   6.382   0.666   0.756 -0.2266 -0.0869 -0.0932
   11MOL   O440 8260   6.313   0.668   0.879  0.0931  0.1068 -0.5782
   11MOL   C441 8261   6.246   0.556   0.931  0.1828 -0.2228 -0.5480
   11MOL   O442 8262   6.258   0.443   0.888 -0.2157  0.0476 -0.9411
   11MOL   C443 8263   6.153   0.594   1.039 -0.4574  0.6380 -0.0193
   11MOL   C444 8264   6.064   0.490   1.078 -0.4113  0.6261  0.0645
   11MOL   C445 8265   5.979   0.509   1.185  0.6948  0.8018  0.2259
   11MOL   C446 8266   5.961   0.636   1.243 -0.8058 -0.3224 -0.0509
   11MOL   C447 8267   5.857   0.660   1.349  0.1501 -0.2950 -0.9053
   11MOL   O448 8268   5.780   0.566   1.387  0.3616 -0.1266 -0.0313
   11MOL   O449 8269   5.850   0.786   1.399  0.0248 -0.2400 -0.3033
   11MOL   C450 8270   6.047   0.740   1.199  0.0468 -0.4846  0.2412
   11MOL   C451 8271   6.141   0.724   1.094 -0.4074 -0.6789 -0.8973
   11MOL   H452 8272   6.366   0.912   0.670 -0.8550 -0.1144  0.5551
   11MOL   H453 8273   6.214   0.885   0.737  1.1601  0.8462  0.0742
   11MOL   H454 8274   6.208   1.023   0.554  0.5417 -0.7733  0.5740
   11MOL   H455 8275   6.273   0.903   0.432  0.3914  0.7066 -0.6895
   11MOL   H456 8276   6.020   0.858   0.578  1.6932 -0.2064 -0.0276
   11MOL   H457 8277   6.004   1.030   0.368 -2.3426  0.2020  2.0431
   11MOL   H458 8278   6.055   0.908   0.272  0.5114  0.6722 -0.7069
   11MOL   H459 8279   6.006   0.642   0.452 -1.5361  0.2759  0.6330
   11MOL   H460 8280   6.164   0.681   0.393 -2.5301 -0.8961 -1.0830
   11MOL   H461 8281   6.162   0.545   0.605 -2.9677 -0.6559  0.7437
   11MOL   H462 8282   6.087   0.673   0.694 -1.8630 -2.0293 -1.3831
   11MOL   H463 8283   6.358   0.698   0.552 -1.6260 -1.3883 -0.9708
   11MOL   H464 8284   6.412   0.563   0.735  1.0629  0.7886 -2.8713
   11MOL   H465 8285   6.474   0.723   0.767 -0.1742  0.1680 -1.6443
   11MOL   H466 8286   6.064   0.393   1.030 -2.0557 -0.2201  1.6997
   11MOL   H467 8287   5.918   0.424   1.213 -0.1772  1.5720  0.6582
   11MOL   H468 8288   6.026   0.836   1.244 -0.0068  0.1406 -1.0981
   11MOL   H469 8289   6.197   0.811   1.063  0.0271 -0.4017  0.6471
   11MOL   C470 8290   5.552   1.089   1.788  0.6315  0.3319 -0.7147
   11MOL   C471 8291   5.652   1.028   1.690 -0.0314 -0.0645 -0.1373
   11MOL   C472 8292   5.671   0.871   1.703 -0.3609  0.4792 -0.3841
   11MOL   C473 8293   5.773   0.805   1.620  0.2237  0.2976 -1.3991
   11MOL   O474 8294   5.732   0.817   1.488  0.2156 -0.3289  1.0740
   11MOL   C475 8295   5.702   0.836   1.853  0.2252  0.0642 -0.3839
   11MOL   C476 8296   5.590   0.894   1.947  0.1391  0.1543 -0.0757
   11MOL   C477 8297   5.588   1.051   1.940  0.4798 -0.8151  0.7842
   11MOL   C478 8298   5.483   1.114   2.033  0.1108  0.4997  0.0911
   11MOL   O479 8299   5.347   1.110   1.995 -0.2975  0.5102  0.4584
   11MOL   C480 8300   5.265   1.008   2.045  0.1936 -0.4632 -0.4049
   11MOL   O481 8301   5.305   0.923   2.129 -0.1001 -0.3335 -0.2231
   11MOL   C482 8302   5.126   1.008   1.999 -0.5032  0.1582 -0.4888
   11MOL   C483 8303   5.040   0.901   2.038 -0.2449  0.5846  0.0807
   11MOL   C484 8304   4.904   0.894   2.013 -0.1016  0.2147  0.3633
   11MOL   C485 8305   4.841   0.999   1.940 -0.3321  0.5573  0.1647
   11MOL   C486 8306   4.698   0.998   1.903  0.8257  0.3064  0.2412
   11MOL   O487 8307   4.639   1.089   1.838 -0.6948  0.3480  0.1182
   11MOL   O488 8308   4.640   0.878   1.940  0.0638 -0.5580 -0.0489
   11MOL   C489 8309   4.925   1.097   1.892 -0.1871 -0.0405  0.4798
   11MOL   C490 8310   5.065   1.102   1.918  0.2066  0.0095  0.3717
   11MOL   H491 8311   5.566   1.197   1.786  0.9759  0.3206  0.6477
   11MOL   H492 8312   5.452   1.058   1.758  0.0823 -1.0823  2.4560
   11MOL   H493 8313   5.624   1.056   1.589 -0.9264 -0.2662  0.0465
   11MOL   H494 8314   5.747   1.070   1.720 -0.2901  0.1675  0.3679
   11MOL   H495 8315   5.580   0.817   1.679 -0.1899 -2.4002  4.6216
   11MOL   H496 8316   5.868   0.857   1.635  0.0821  0.1870 -0.0295
   11MOL   H497 8317   5.788   0.699   1.644  0.5317  0.4741 -0.7830
   11MOL   H498 8318   5.712   0.728   1.868  2.7915  0.0950 -1.4899
   11MOL   H499 8319   5.801   0.876   1.875  0.1077  0.8708 -1.2928
   11MOL   H500 8320   5.606   0.855   2.048  1.1244 -0.0948 -0.3210
   11MOL   H501 8321   5.492   0.859   1.914 -0.8285  0.1448  2.7065
   11MOL   H502 8322   5.687   1.088   1.965  0.7169 -0.5242 -0.5641
   11MOL   H503 8323   5.489   1.087   2.139  1.8824  1.3509  0.2156
   11MOL   H504 8324   5.507   1.220   2.037  1.5203  0.1367  2.0396
   11MOL   H505 8325   5.082   0.825   2.103 -0.5579  1.6155  1.5002
   11MOL   H506 8326   4.844   0.810   2.044 -0.5588 -0.1184 -1.3625
   11MOL   H507 8327   4.880   1.172   1.829 -1.8050  0.0952  1.7898
   11MOL   H508 8328   5.121   1.185   1.877  0.9412 -1.0276 -0.7556
   11MOL   C509 8329   4.317   0.619   2.309 -0.1737  0.1053 -0.3485
   11MOL   C510 8330   4.357   0.758   2.261  0.4088 -0.1965  0.0217
   11MOL   C511 8331   4.408   0.757   2.116  0.0334 -0.0100 -0.0627
   11MOL   C512 8332   4.442   0.896   2.062 -0.2886 -0.1289 -0.4630
   11MOL   O513 8333   4.491   0.893   1.926 -0.3125 -0.4670 -0.1164
   11MOL   C514 8334   4.520   0.649   2.092 -0.1333  0.1753 -0.0827
   11MOL   C515 8335   4.467   0.516   2.134 -0.0845  0.0160  0.1937
   11MOL   C516 8336   4.427   0.513   2.281  0.2939  0.6766 -0.0932
   11MOL   C517 8337   4.380   0.375   2.338 -0.5940 -0.3326 -0.6525
   11MOL   O518 8338   4.365   0.372   2.478  0.1933  0.0010  0.4508
   11MOL   C519 8339   4.467   0.367   2.559 -0.4439  0.2183 -0.2260
   11MOL   O520 8340   4.581   0.340   2.525  0.6635  0.1285  0.1825
   11MOL   C521 8341   4.427   0.408   2.692 -0.0644 -0.4938 -0.1533
   11MOL   C522 8342   4.296   0.460   2.725  0.5810 -0.0735  0.5177
   11MOL   C523 8343   4.269   0.515   2.853  1.2138 -0.3735 -0.5245
   11MOL   C524 8344   4.370   0.521   2.949 -0.7433  0.4358  0.3044
   11MOL   C525 8345   4.341   0.587   3.078 -0.0775 -0.0795 -0.3975
   11MOL   O526 8346   4.389   0.552   3.186  0.6991  0.2760  0.4335
   11MOL   O527 8347   4.255   0.691   3.061  0.0198  0.7140  0.2346
   11MOL   C528 8348   4.497   0.464   2.916  0.1835 -0.4223  0.2075
   11MOL   C529 8349   4.527   0.412   2.792 -0.3032 -0.4970 -0.2910
   11MOL   H530 8350   4.301   0.629   2.417 -1.5444 -0.5029 -0.4880
   11MOL   H531 8351   4.226   0.597   2.254  1.8239  0.7071 -4.0425
   11MOL   H532 8352   4.268   0.820   2.272  0.7142  0.8156 -2.8152
   11MOL   H533 8353   4.428   0.802   2.330  0.7827 -0.7785  0.0113
   11MOL   H534 8354   4.328   0.715   2.055 -0.0416  0.5395 -0.3513
   11MOL   H535 8355   4.349   0.953   2.068 -0.8420 -0.9569 -1.0423
   11MOL   H536 8356   4.511   0.950   2.126 -0.8695 -2.0474  1.8416
   11MOL   H537 8357   4.516   0.650   1.983 -1.0492  1.4979 -0.0452
   11MOL   H538 8358   4.623   0.672   2.119  0.6884 -2.9321 -0.3575
   11MOL   H539 8359   4.534   0.437   2.100  0.9794  0.9270  0.1578
   11MOL   H540 8360   4.377   0.483   2.082  0.9397 -0.6733 -1.1791
   11MOL   H541 8361   4.513   0.527   2.346 -0.0138 -0.8671  0.6638
   11MOL   H542 8362   4.293   0.339   2.284 -0.4173 -0.3887 -0.9021
   11MOL   H543 8363   4.456   0.299   2.319  1.8762  1.4215  1.7567
   11MOL   H544 8364   4.216   0.464   2.652 -0.5931 -0.2374  1.7838
   11MOL   H545 8365   4.170   0.553   2.870  2.7686  3.4671  0.3593
   11MOL   H546 8366   4.580   0.479   2.984  0.1337  1.4219 -0.1202
   11MOL   H547 8367   4.627   0.375   2.772  0.5125  0.1383  2.3130
   11MOL   C548 8368   4.029   1.080   2.942 -0.8546 -0.4640  0.9784
   11MOL   C549 8369   4.128   0.975   2.987 -0.0498 -0.1755  0.2103
   11MOL   C550 8370   4.216   1.014   3.107 -0.2760 -0.5263 -0.4814
   11MOL   C551 8371   4.318   0.909   3.154  0.2550  0.8033 -1.1178
   11MOL   O552 8372   4.245   0.790   3.176 -0.2544 -0.2293 -0.1340
   11MOL   C553 8373   4.283   1.147   3.069 -0.2381  0.6961 -1.2912
   11MOL   C554 8374   4.182   1.253   3.047 -0.0409  0.0761 -0.2095
   11MOL   C555 8375   4.097   1.214   2.925  0.6996  0.5151 -0.1954
   11MOL   C556 8376   3.994   1.319   2.889 -0.5295 -0.9061  0.4143
   11MOL   O557 8377   4.060   1.427   2.837 -0.3511 -0.2910  0.2448
   11MOL   C558 8378   3.998   1.542   2.834  0.2421 -0.3628 -0.1171
   11MOL   O559 8379   3.885   1.567   2.875 -0.4644  0.2456  0.3316
   11MOL   C560 8380   4.091   1.656   2.802 -0.4321  0.4949  0.4562
   11MOL   C561 8381   4.048   1.790   2.821 -0.1253  0.5094 -0.5246
   11MOL   C562 8382   4.135   1.897   2.795  0.6114  0.5343 -0.1536
   11MOL   C563 8383   4.265   1.874   2.749  0.0130 -0.8490 -0.2325
   11MOL   C564 8384   4.347   1.988   2.705  0.3261  0.4741  0.0589
   11MOL   O565 8385   4.302   2.101   2.684  0.1609  0.3206  0.1299
   11MOL   O566 8386   4.485   1.962   2.705 -0.0953  0.4325 -0.0698
   11MOL   C567 8387   4.304   1.741   2.730  0.3076  0.2275  0.1356
   11MOL   C568 8388   4.224   1.629   2.761  0.0010 -0.2520  0.9372
   11MOL   H569 8389   3.988   1.059   2.843 -1.5704  2.7310  0.5212
   11MOL   H570 8390   3.948   1.093   3.014  0.0684 -0.2182  1.9937
   11MOL   H571 8391   4.074   0.883   3.010  1.5456 -0.9214  0.9997
   11MOL   H572 8392   4.192   0.956   2.901 -0.2925 -0.3407  0.0653
   11MOL   H573 8393   4.150   1.040   3.190 -0.5194  2.3172 -1.4897
   11MOL   H574 8394   4.393   0.890   3.077  0.6407 -0.6265 -0.3957
   11MOL   H575 8395   4.381   0.936   3.238  1.3920  0.1770 -1.7549
   11MOL   H576 8396   4.344   1.176   3.155 -2.4476  2.0940 -0.1387
   11MOL   H577 8397   4.341   1.142   2.978  0.6155  0.9198 -0.7668
   11MOL   H578 8398   4.234   1.346   3.025 -0.7911  0.4306 -0.5081
   11MOL   H579 8399   4.116   1.268   3.133 -0.2226 -1.2902 -0.0974
   11MOL   H580 8400   4.158   1.204   2.835  1.3997 -0.5651  0.3886
   11MOL   H581 8401   3.929   1.282   2.809  0.3255  0.6397 -1.0268
   11MOL   H582 8402   3.931   1.349   2.972 -2.7762 -0.0149 -1.5348
   11MOL   H583 8403   3.945   1.815   2.841  0.3629  2.0530  0.1594
   11MOL   H584 8404   4.093   1.996   2.805 -0.1000  0.3780 -1.4972
   11MOL   H585 8405   4.404   1.720   2.696  1.0462 -1.2907  3.0566
   11MOL   H586 8406   4.263   1.529   2.745  0.1888 -0.0943  0.4120
   11MOL   C587 8407   4.423   1.821   2.187  0.0949 -0.4665 -0.3236
   11MOL   C588 8408   4.511   1.841   2.310 -0.2235 -0.7891 -0.1642
   11MOL   C589 8409   4.471   1.958   2.405 -0.1897 -0.3873  0.4911
   11MOL   C590 8410   4.587   1.973   2.503  0.3729  0.1407 -0.8114
   11MOL   O591 8411   4.564   2.049   2.620 -0.5348  0.2343 -0.0334
   11MOL   C592 8412   4.445   2.086   2.328  0.2279 -0.0840  0.4588
   11MOL   C593 8413   4.357   2.061   2.197 -0.9607 -0.0795  0.7109
   11MOL   C594 8414   4.409   1.951   2.106 -0.6574  0.0923  0.1941
   11MOL   C595 8415   4.325   1.922   1.982 -0.1626  0.8399  0.1640
   11MOL   O596 8416   4.413   1.862   1.886 -0.5252  0.1384 -0.2520
   11MOL   C597 8417   4.366   1.837   1.755 -0.1616 -0.0117 -0.2310
   11MOL   O598 8418   4.246   1.852   1.725 -0.1335 -0.4420  0.3267
   11MOL   C599 8419   4.477   1.803   1.667 -0.7222  0.2718  0.0529
   11MOL   C600 8420   4.446   1.722   1.555 -0.1162 -0.3989 -0.4870
   11MOL   C601 8421   4.546   1.689   1.464 -0.9047 -0.2346 -0.1009
   11MOL   C602 8422   4.676   1.733   1.489 -0.0535 -0.2110  0.1626
   11MOL   C603 8423   4.786   1.720   1.387  0.2635  0.6979 -0.5846
   11MOL   O604 8424   4.889   1.781   1.406  0.1508  0.0607 -0.1731
   11MOL   O605 8425   4.763   1.632   1.300  0.6609  0.0684  0.0950
   11MOL   C606 8426   4.709   1.807   1.604  0.9822  0.2875  0.4597
   11MOL   C607 8427   4.608   1.847   1.693  0.1547 -0.0826 -0.1677
   11MOL   H608 8428   4.473   1.749   2.122  1.4007 -0.3656  0.5406
   11MOL   H609 8429   4.322   1.788   2.212  0.2747 -0.2257  0.7525
   11MOL   H610 8430   4.511   1.750   2.370 -0.1680 -1.7060 -1.5354
   11MOL   H611 8431   4.613   1.855   2.273  0.2386  0.3840  1.5085
   11MOL   H612 8432   4.378   1.915   2.441 -1.2947  1.4395 -0.0665
   11MOL   H613 8433   4.623   1.872   2.522  0.3869  0.1245 -0.9288
   11MOL   H614 8434   4.675   2.013   2.452 -0.6454  1.0029 -1.9196
   11MOL   H615 8435   4.399   2.162   2.391  2.8896  2.5446 -0.7027
   11MOL   H616 8436   4.540   2.119   2.286  1.7952 -1.7562  2.5176
   11MOL   H617 8437   4.331   2.159   2.155 -0.7648  0.9829  2.9911
   11MOL   H618 8438   4.260   2.019   2.223 -0.8978 -0.6643  0.0346
   11MOL   H619 8439   4.505   1.986   2.068 -0.6921  0.5133  0.4940
   11MOL   H620 8440   4.246   1.849   2.000 -0.1043  0.5545 -0.7140
   11MOL   H621 8441   4.279   2.014   1.944 -0.4209  1.3789  1.7667
   11MOL   H622 8442   4.341   1.700   1.538 -0.5122 -0.8903  2.3847
   11MOL   H623 8443   4.527   1.634   1.374 -0.4624 -0.3994 -0.0944
   11MOL   H624 8444   4.812   1.832   1.625  1.2212 -0.9604  0.8234
   11MOL   H625 8445   4.637   1.887   1.789  3.2272 -0.0275 -1.0620
   11MOL   C626 8446   4.542   1.335   1.064  0.0456 -0.4875  1.2977
   11MOL   C627 8447   4.636   1.413   1.161  0.2938  0.6067  0.7976
   11MOL   C628 8448   4.780   1.376   1.133  0.2742  0.2480  0.5135
   11MOL   C629 8449   4.876   1.441   1.235  0.4997  0.1663  0.5351
   11MOL   O630 8450   4.884   1.580   1.234  0.4193 -0.3678 -1.2849
   11MOL   C631 8451   4.800   1.223   1.124  0.1921 -0.4815  0.2796
   11MOL   C632 8452   4.708   1.159   1.020  0.0270  0.5688 -0.0965
   11MOL   C633 8453   4.567   1.182   1.057  0.3322  0.0615 -0.4983
   11MOL   C634 8454   4.464   1.089   0.969 -0.3421 -0.1135  0.4895
   11MOL   O635 8455   4.330   1.112   1.003 -0.2269 -0.0568 -0.7841
   11MOL   C636 8456   4.245   1.191   0.939 -0.6026 -0.1106 -0.2549
   11MOL   O637 8457   4.277   1.282   0.856  0.1377 -0.1371  0.0446
   11MOL   C638 8458   4.106   1.185   0.993 -0.2651  0.1533  0.1608
   11MOL   C639 8459   4.053   1.069   1.057 -0.2040  0.2664  0.5873
   11MOL   C640 8460   3.916   1.058   1.086  0.6064  0.2885  0.1162
   11MOL   C641 8461   3.825   1.165   1.059 -1.1751  0.0634  0.0107
   11MOL   C642 8462   3.681   1.168   1.088  0.2585  0.0561 -0.0581
   11MOL   O643 8463   3.604   1.253   1.044  0.2463  0.5316 -0.9209
   11MOL   O644 8464   3.639   1.064   1.164 -0.2181 -0.1693  0.0909
   11MOL   C645 8465   3.878   1.282   0.999  0.5274  0.0459  0.3818
   11MOL   C646 8466   4.017   1.283   0.960 -0.6700  0.1523  0.0818
   11MOL   H647 8467   4.436   1.347   1.085 -0.4438  1.1771 -1.7851
   11MOL   H648 8468   4.538   1.365   0.959  0.5758 -2.0501  0.8295
   11MOL   H649 8469   4.621   1.516   1.126 -3.1647 -0.7965 -2.1974
   11MOL   H650 8470   4.606   1.401   1.265 -0.5332  1.1957  0.6328
   11MOL   H651 8471   4.790   1.419   1.034 -0.0414  0.0027  0.3760
   11MOL   H652 8472   4.829   1.421   1.332 -1.6962  0.7785 -0.3666
   11MOL   H653 8473   4.975   1.397   1.224  0.6206  0.8871 -1.4631
   11MOL   H654 8474   4.902   1.196   1.098  0.2929 -2.0004  2.1709
   11MOL   H655 8475   4.782   1.186   1.225  0.4580 -1.0230  0.1299
   11MOL   H656 8476   4.733   1.053   1.023  3.4996  1.3054 -0.0244
   11MOL   H657 8477   4.735   1.185   0.918  1.2245  1.6194  0.4740
   11MOL   H658 8478   4.547   1.137   1.154 -0.4951 -0.2649 -0.8155
   11MOL   H659 8479   4.481   1.104   0.862  0.1476  1.6171  0.7944
   11MOL   H660 8480   4.485   0.984   0.990  0.1081 -0.0200  0.5070
   11MOL   H661 8481   4.125   0.992   1.083 -0.0078  0.5176  0.7866
   11MOL   H662 8482   3.867   0.972   1.129 -0.4921  1.8351  2.0470
   11MOL   H663 8483   3.813   1.362   0.967  1.1600  0.0377 -0.9635
   11MOL   H664 8484   4.049   1.362   0.894  0.5743 -0.2386  0.1931
   11MOL   C665 8485   3.106   0.862   0.924 -0.8163  0.4017 -0.5811
   11MOL   C666 8486   3.247   0.837   0.998  0.0851 -0.2175  0.3264
   11MOL   C667 8487   3.308   0.968   1.044 -0.4338 -0.4423  0.1815
   11MOL   C668 8488   3.442   0.938   1.099 -0.7463  0.1778 -0.0213
   11MOL   O669 8489   3.484   1.057   1.168  0.2598  0.1809 -0.5078
   11MOL   C670 8490   3.318   1.078   0.928  0.3570  0.3429  0.4866
   11MOL   C671 8491   3.184   1.093   0.862 -0.3803 -0.0386 -0.3419
   11MOL   C672 8492   3.128   0.968   0.810 -0.3960 -0.4913  0.4336
   11MOL   C673 8493   3.015   1.001   0.723  0.3283 -0.0459 -0.2541
   11MOL   O674 8494   3.069   1.004   0.590  0.0849  0.3080 -0.5981
   11MOL   C675 8495   3.020   1.081   0.497 -0.0067  0.5156 -0.1253
   11MOL   O676 8496   2.921   1.155   0.518 -0.1444  0.6776 -0.9251
   11MOL   C677 8497   3.086   1.061   0.368  0.2557  0.1205 -0.0576
   11MOL   C678 8498   3.007   1.072   0.249  0.1463  0.0970  0.3162
   11MOL   C679 8499   3.059   1.041   0.126  0.4179  0.7137  0.1983
   11MOL   C680 8500   3.196   1.002   0.114  0.0150  0.5750  0.5239
   11MOL   C681 8501   3.248   0.945   8.021  0.2154  0.3062  0.3443
   11MOL   O682 8502   3.361   0.892   8.002 -0.8369  0.3049  0.1082
   11MOL   O683 8503   3.155   0.953   7.923 -0.1315  0.5415 -0.5776
   11MOL   C684 8504   3.271   0.988   0.233  0.1890  0.0276  0.3044
   11MOL   C685 8505   3.211   1.009   0.360  0.1842 -0.0183  0.0752
   11MOL   H686 8506   3.082   0.762   0.887  0.4259 -0.1423  0.0409
   11MOL   H687 8507   3.030   0.893   0.995 -0.4120 -0.1321  0.0884
   11MOL   H688 8508   3.234   0.763   1.077  0.6667 -0.1113  0.5290
   11MOL   H689 8509   3.305   0.772   0.934  0.0967  1.1310 -1.0724
   11MOL   H690 8510   3.246   0.999   1.129 -1.0894 -0.0164 -0.4462
   11MOL   H691 8511   3.445   0.848   1.160 -3.9660 -0.3891 -0.6181
   11MOL   H692 8512   3.508   0.934   1.011 -0.1913  1.0905  0.3394
   11MOL   H693 8513   3.359   1.174   0.958  0.9897 -0.0496  0.8905
   11MOL   H694 8514   3.394   1.055   0.853  0.0659 -0.0454  0.3035
   11MOL   H695 8515   3.187   1.163   0.778  0.4051 -1.9945 -1.9705
   11MOL   H696 8516   3.125   1.149   0.935  0.4886 -0.6944  0.8854
   11MOL   H697 8517   3.201   0.919   0.746 -0.2106  0.4236 -0.0633
   11MOL   H698 8518   2.945   0.919   0.736  1.2013 -0.6914  0.3753
   11MOL   H699 8519   2.972   1.096   0.757  1.6735  0.8275 -0.9588
   11MOL   H700 8520   2.900   1.089   0.257  0.5221  2.3558  0.9084
   11MOL   H701 8521   2.986   1.040   0.046 -2.2095 -1.8775  2.5217
   11MOL   H702 8522   3.374   0.956   0.226 -0.1276 -0.5224 -2.3794
   11MOL   H703 8523   3.265   0.987   0.451  0.7777  1.8549  0.1968
   11MOL   C704 8524   3.269   0.891   7.313 -0.2921  0.6853  0.2230
   11MOL   C705 8525   3.208   0.960   7.432 -0.4397 -0.1394  0.1982
   11MOL   C706 8526   3.223   0.892   7.563  0.2067  0.1742 -0.5773
   11MOL   C707 8527   3.165   0.968   7.690  0.0416 -0.4148  0.5632
   11MOL   O708 8528   3.198   0.890   7.798 -0.7298 -0.0352 -0.2567
   11MOL   C709 8529   3.168   0.751   7.543 -0.0231  0.0251  0.3730
   11MOL   C710 8530   3.243   0.670   7.443  0.5649 -0.0126  0.9707
   11MOL   C711 8531   3.219   0.738   7.302 -0.5523 -0.3226 -0.1430
   11MOL   C712 8532   3.293   0.649   7.198  0.1283 -0.1460 -0.3595
   11MOL   O713 8533   3.260   0.693   7.071  0.0387  0.0075  0.7716
   11MOL   C714 8534   3.340   0.679   6.961  0.3664  0.5579  0.5435
   11MOL   O715 8535   3.454   0.625   6.972  0.6254  0.5898  0.0467
   11MOL   C716 8536   3.276   0.729   6.839  0.8910  0.3004 -0.1338
   11MOL   C717 8537   3.331   0.691   6.716 -0.4030  0.9134 -0.1172
   11MOL   C718 8538   3.261   0.715   6.596 -0.5083 -0.2853  0.0388
   11MOL   C719 8539   3.137   0.784   6.599 -0.5306  0.2095 -0.5301
   11MOL   C720 8540   3.051   0.793   6.476 -0.3503 -0.4771 -0.1077
   11MOL   O721 8541   2.935   0.838   6.472 -0.1474 -0.2822 -0.2480
   11MOL   O722 8542   3.113   0.753   6.369  0.3692  0.1706  0.0007
   11MOL   C723 8543   3.089   0.834   6.724 -0.4815 -0.1473 -0.3590
   11MOL   C724 8544   3.160   0.812   6.847  1.0155  0.0521 -0.1555
   11MOL   H725 8545   3.246   0.941   7.219  0.6169  0.3752 -0.1700
   11MOL   H726 8546   3.376   0.905   7.329  0.7202 -2.5358 -2.9546
   11MOL   H727 8547   3.248   1.060   7.450  1.5895 -1.2337  2.0094
   11MOL   H728 8548   3.105   0.979   7.401  0.4200  1.5538 -1.8055
   11MOL   H729 8549   3.329   0.876   7.585  0.2726 -0.1094 -1.0988
   11MOL   H730 8550   3.202   1.069   7.711 -0.3001 -0.7486  2.8648
   11MOL   H731 8551   3.059   0.993   7.682  0.5002  1.8360  0.9600
   11MOL   H732 8552   3.178   0.690   7.633  3.0214  0.6954  0.5394
   11MOL   H733 8553   3.062   0.756   7.518 -0.2984  0.1899  1.5484
   11MOL   H734 8554   3.199   0.570   7.442 -0.2399  0.3343 -0.7330
   11MOL   H735 8555   3.348   0.656   7.465  0.4785 -2.2088  0.1402
   11MOL   H736 8556   3.115   0.733   7.271 -0.5375  1.4797 -0.5447
   11MOL   H737 8557   3.400   0.641   7.213  0.0188 -1.6173 -0.2210
   11MOL   H738 8558   3.260   0.545   7.202  3.6022 -1.2984 -0.0654
   11MOL   H739 8559   3.419   0.629   6.713 -0.7891  0.2835  1.1152
   11MOL   H740 8560   3.300   0.682   6.501  0.2238  0.3577  0.1141
   11MOL   H741 8561   2.998   0.891   6.731 -1.2927 -1.5663  1.0364
   11MOL   H742 8562   3.117   0.848   6.940  2.0286 -0.5432  0.5483
   11MOL   C743 8563   3.220   0.326   6.218  0.0570 -0.5482 -0.0387
   11MOL   C744 8564   3.153   0.449   6.285 -0.0861 -0.2759 -0.0095
   11MOL   C745 8565   3.046   0.507   6.192  0.0257  0.1049  0.2188
   11MOL   C746 8566   2.958   0.630   6.245 -0.7910 -0.4208 -0.1384
   11MOL   O747 8567   3.028   0.750   6.244 -0.2682  0.0064  0.4352
   11MOL   C748 8568   3.098   0.526   6.047 -0.4675 -0.0909  0.5005
   11MOL   C749 8569   3.162   0.399   5.984  0.4140  0.4859 -0.2911
   11MOL   C750 8570   3.274   0.343   6.073 -0.2328 -0.2471  0.4292
   11MOL   C751 8571   3.333   0.202   6.027 -0.3756  0.6745  0.1180
   11MOL   O752 8572   3.215   0.126   6.008 -0.1962  0.1482 -0.2838
   11MOL   C753 8573   3.223   8.027   6.004 -0.1489 -0.7390  0.0743
   11MOL   O754 8574   3.328   7.964   6.016 -0.1157  0.0457 -0.0684
   11MOL   C755 8575   3.086   7.965   5.993 -0.2608 -0.0163 -0.0937
   11MOL   C756 8576   3.085   7.829   5.990 -0.5704  0.8477 -0.4140
   11MOL   C757 8577   2.963   7.760   5.993  0.3155  0.5836  0.4914
   11MOL   C758 8578   2.844   7.832   6.007 -0.6211  0.1133 -0.4754
   11MOL   C759 8579   2.714   7.762   6.003 -0.3050 -0.8428  0.5108
   11MOL   O760 8580   2.606   7.816   6.001 -0.2397 -0.9152  0.4375
   11MOL   O761 8581   2.722   7.630   6.002  0.4439  0.1408 -0.2520
   11MOL   C762 8582   2.850   7.975   6.025  0.2327 -0.1247 -0.8542
   11MOL   C763 8583   2.971   0.007   6.008 -0.2930 -0.1197  0.3318
   11MOL   H764 8584   3.301   0.292   6.283  1.2624  1.9200 -0.2154
   11MOL   H765 8585   3.151   0.241   6.221  1.8965 -2.1202 -0.5057
   11MOL   H766 8586   3.109   0.414   6.378 -1.2458  2.3660  0.4624
   11MOL   H767 8587   3.233   0.522   6.299 -1.1148  0.5671  1.5217
   11MOL   H768 8588   2.973   0.427   6.174  1.0495 -1.0788  1.2584
   11MOL   H769 8589   2.875   0.644   6.177 -0.6201  2.2055  0.1534
   11MOL   H770 8590   2.923   0.607   6.346 -0.0377  0.6724  0.3872
   11MOL   H771 8591   3.028   0.571   5.976  0.1173  1.6717  1.0138
   11MOL   H772 8592   3.178   0.598   6.062  1.2576 -1.6904 -0.6859
   11MOL   H773 8593   3.211   0.414   5.887 -1.9268 -0.6983 -1.6909
   11MOL   H774 8594   3.081   0.329   5.966  0.9994 -0.2961  0.0693
   11MOL   H775 8595   3.353   0.418   6.087 -0.7094  0.3626 -0.1137
   11MOL   H776 8596   3.382   0.216   5.931  0.1089 -1.3716  0.0289
   11MOL   H777 8597   3.407   0.146   6.084 -1.3830  0.5764  1.3533
   11MOL   H778 8598   3.175   7.772   5.971  0.9757  3.4172 -1.1394
   11MOL   H779 8599   2.966   7.654   5.971  0.6745  0.6428  0.2399
   11MOL   H780 8600   2.756   8.022   6.049  0.1961 -0.2127 -0.8270
   11MOL   H781 8601   2.974   0.113   6.026  1.2931  0.6064 -3.6972
   11MOL   H782 8602   2.644   7.596   6.043  2.4692 -2.3608  1.7623
   12MOL     C1 8603   7.439   4.543   0.438  0.1647 -0.2253 -0.2522
   12MOL     C2 8604   7.513   4.675   0.478 -0.0020  1.4161 -0.4189
   12MOL     C3 8605   7.665   4.673   0.427 -0.5115 -0.1396  0.0145
   12MOL     C4 8606   7.759   4.784   0.462  0.4498  0.3172 -0.6089
   12MOL     O5 8607   7.788   4.777   0.598  0.5443  0.3571  0.0850
   12MOL     C6 8608   7.735   4.537   0.449  0.5077 -0.4484 -0.0233
   12MOL     C7 8609   7.657   4.413   0.412 -0.0864  0.3628 -0.2515
   12MOL     C8 8610   7.521   4.423   0.486  0.3415  0.1216  0.1190
   12MOL     C9 8611   7.430   4.298   0.475 -0.0433 -0.4451  0.2985
   12MOL    O10 8612   7.498   4.191   0.538  0.5322 -0.5491 -0.4685
   12MOL    C11 8613   7.552   4.096   0.458 -0.1436  0.4715 -0.3364
   12MOL    O12 8614   7.563   4.105   0.336  0.1024  0.2176  0.7291
   12MOL    C13 8615   7.623   3.988   0.539 -0.2213 -0.4347 -0.2872
   12MOL    C14 8616   7.600   3.980   0.674  0.3444  0.5252 -0.2360
   12MOL    C15 8617   7.676   3.905   0.758  0.4770  0.1434 -0.7702
   12MOL    C16 8618   7.762   3.810   0.707 -0.0005  0.1921 -0.3853
   12MOL    C17 8619   7.857   3.737   0.797  0.0213 -0.8196  0.6723
   12MOL    O18 8620   7.839   3.735   0.923 -0.5787 -0.1864  0.3082
   12MOL    O19 8621   7.963   3.685   0.740  0.0553 -0.1732 -0.5137
   12MOL    C20 8622   7.770   3.796   0.568  0.6390  0.4060 -0.8845
   12MOL    C21 8623   7.697   3.889   0.486 -0.7581 -0.0433  0.1119
   12MOL    H22 8624   7.337   4.529   0.476  0.7001 -3.3649  0.1811
   12MOL    H23 8625   7.431   4.556   0.330  0.3798  0.4496 -0.1894
   12MOL    H24 8626   7.452   4.757   0.442 -1.0584  0.9837  0.3532
   12MOL    H25 8627   7.511   4.681   0.587  1.0847  2.5722 -0.4523
   12MOL    H26 8628   7.652   4.679   0.319  0.5796 -1.9965 -0.2272
   12MOL    H27 8629   7.851   4.759   0.410  0.3288 -0.9623 -0.2250
   12MOL    H28 8630   7.729   4.885   0.432 -0.2668  0.1099 -0.6184
   12MOL    H29 8631   7.835   4.530   0.405  0.9047 -1.8533  1.0611
   12MOL    H30 8632   7.758   4.526   0.555 -1.6036  1.3142  0.6579
   12MOL    H31 8633   7.713   4.324   0.441  0.0012 -0.5451 -2.9902
   12MOL    H32 8634   7.629   4.397   0.307 -2.2934 -0.8555  0.4913
   12MOL    H33 8635   7.525   4.432   0.594 -0.1041  0.2464  0.1267
   12MOL    H34 8636   7.341   4.322   0.534  1.0720  2.4374  0.8979
   12MOL    H35 8637   7.412   4.268   0.372  1.4827 -1.1661  0.2300
   12MOL    H36 8638   7.530   4.043   0.726  0.2728  1.5983 -1.6121
   12MOL    H37 8639   7.662   3.924   0.864 -0.4503  1.2732 -1.0877
   12MOL    H38 8640   7.846   3.730   0.530  0.7191  0.8817 -1.5598
   12MOL    H39 8641   7.713   3.887   0.379  1.4842  1.3138  0.3886
   12MOL    H40 8642   7.713   4.808   0.646  0.0598 -2.4464  1.2500
   12MOL    C41 8643   0.086   3.209   0.616 -0.1688 -0.3181 -0.1346
   12MOL    C42 8644   0.027   3.286   0.741 -0.4590  0.3117 -0.0696
   12MOL    C43 8645   0.083   3.430   0.750 -0.2905 -0.5604 -0.4506
   12MOL    C44 8646   0.025   3.510   0.874  0.2945  0.0624 -0.5108
   12MOL    O45 8647   0.031   3.650   0.840  0.0644  0.5281  0.4110
   12MOL    C46 8648   0.235   3.429   0.757 -0.2833  0.2273 -0.0430
   12MOL    C47 8649   0.296   3.345   0.646 -0.1588  0.0090  0.3721
   12MOL    C48 8650   0.237   3.201   0.639 -0.3379  0.6390 -0.7041
   12MOL    C49 8651   0.301   3.123   0.517 -0.1403 -0.0410  0.4900
   12MOL    O50 8652   0.436   3.077   0.542  0.3145  0.0157 -0.1195
   12MOL    C51 8653   0.538   3.146   0.490  0.0843 -0.0362  0.2282
   12MOL    O52 8654   0.525   3.256   0.445 -0.1169  0.4593 -0.0453
   12MOL    C53 8655   0.664   3.062   0.481 -0.7801 -0.1525  0.1891
   12MOL    C54 8656   0.664   2.926   0.520 -0.1690  0.0611  0.4787
   12MOL    C55 8657   0.784   2.853   0.511  0.1267  0.5223 -0.1902
   12MOL    C56 8658   0.906   2.910   0.474 -0.4266 -0.2416  0.3180
   12MOL    C57 8659   1.033   2.836   0.464  0.7286  0.5148 -0.5117
   12MOL    O58 8660   1.065   2.741   0.540 -0.3952  0.6980  0.4805
   12MOL    O59 8661   1.118   2.875   0.368 -0.1644  0.1857 -0.3861
   12MOL    C60 8662   0.904   3.040   0.427  0.2470  0.0678 -0.1433
   12MOL    C61 8663   0.781   3.119   0.434  0.2460  0.2700 -0.9355
   12MOL    H62 8664   0.036   3.113   0.620  2.3049 -1.5723  1.9113
   12MOL    H63 8665   0.070   3.261   0.522 -1.6149  1.4993  1.0763
   12MOL    H64 8666   7.954   3.273   0.751 -0.4310  0.1458  0.0051
   12MOL    H65 8667   0.061   3.238   0.832  2.4776  0.6891 -0.9025
   12MOL    H66 8668   0.044   3.472   0.657 -0.5130 -3.3290 -1.6584
   12MOL    H67 8669   7.964   3.464   0.895  1.1899 -1.1622  1.0722
   12MOL    H68 8670   0.079   3.491   0.967  1.5926 -1.6946 -1.6007
   12MOL    H69 8671   0.267   3.533   0.754 -2.6909  1.0784  1.8219
   12MOL    H70 8672   0.268   3.385   0.851  0.7315 -0.1737 -0.5792
   12MOL    H71 8673   0.401   3.318   0.661 -0.8780 -3.1179 -0.0128
   12MOL    H72 8674   0.293   3.388   0.546 -1.3516 -0.5679  0.1551
   12MOL    H73 8675   0.246   3.157   0.738 -1.0191  3.2837  0.5853
   12MOL    H74 8676   0.247   3.029   0.500 -2.9486  1.5830  0.1466
   12MOL    H75 8677   0.304   3.177   0.423 -0.9004  0.0086  0.4872
   12MOL    H76 8678   0.579   2.871   0.558 -1.1329  0.6581 -0.7657
   12MOL    H77 8679   0.798   2.751   0.542  1.3477  0.5654 -0.6041
   12MOL    H78 8680   0.994   3.092   0.396  0.6766 -1.0625 -0.7978
   12MOL    H79 8681   0.788   3.217   0.389 -1.7609  1.1764  0.6674
   12MOL    C80 8682   1.310   3.218   0.249  0.3878 -0.4940  0.2540
   12MOL    C81 8683   1.359   3.084   0.286  0.6057  0.0793 -0.5241
   12MOL    C82 8684   1.328   3.048   0.428 -0.2319 -0.5362 -0.3635
   12MOL    C83 8685   1.346   2.895   0.450  0.2200  0.1584  0.2421
   12MOL    O84 8686   1.260   2.808   0.368 -0.1220  0.1933  0.2864
   12MOL    C85 8687   1.404   3.150   0.521 -0.4886  0.0814  0.3770
   12MOL    C86 8688   1.358   3.293   0.489 -0.4016  0.0859 -0.3442
   12MOL    C87 8689   1.370   3.323   0.337 -0.0851 -0.4633  0.0261
   12MOL    C88 8690   1.303   3.461   0.306  0.3929 -0.6977  0.4494
   12MOL    O89 8691   1.358   3.574   0.380 -0.1543 -0.3860  0.4254
   12MOL    C90 8692   1.491   3.620   0.377 -0.4654 -0.3480  0.0770
   12MOL    O91 8693   1.584   3.555   0.324 -0.0875 -0.0614 -0.1825
   12MOL    C92 8694   1.508   3.754   0.440 -0.0774  0.5288 -0.4982
   12MOL    C93 8695   1.437   3.789   0.559  0.7696  0.3711 -0.8258
   12MOL    C94 8696   1.453   3.913   0.622  1.4048  0.2070 -0.0969
   12MOL    C95 8697   1.530   4.010   0.560  0.1650 -0.0032 -0.3329
   12MOL    C96 8698   1.532   4.146   0.610 -0.3685  0.6437 -0.3497
   12MOL    O97 8699   1.612   4.236   0.571  0.4361 -0.0217  0.2880
   12MOL    O98 8700   1.420   4.182   0.686 -0.1220 -0.0091 -0.2505
   12MOL    C99 8701   1.608   3.977   0.447 -0.3633 -0.8222 -0.8529
   12MOL   C100 8702   1.597   3.849   0.389 -0.0447 -0.0392 -0.4431
   12MOL   H101 8703   1.343   3.234   0.146 -0.6914 -1.2922 -0.2253
   12MOL   H102 8704   1.202   3.222   0.260  0.6217  1.4669  2.2935
   12MOL   H103 8705   1.305   3.027   0.210 -0.4737  1.9817 -1.2080
   12MOL   H104 8706   1.465   3.068   0.265  1.1012  1.9287  0.4484
   12MOL   H105 8707   1.225   3.066   0.455 -0.0479  0.1436 -0.1131
   12MOL   H106 8708   1.448   2.857   0.442 -0.1819 -0.7734 -0.5905
   12MOL   H107 8709   1.318   2.886   0.555 -0.0185  1.1970  0.2748
   12MOL   H108 8710   1.381   3.124   0.625 -0.3533 -0.7690  0.1951
   12MOL   H109 8711   1.512   3.151   0.508 -0.3896 -0.0455  1.1280
   12MOL   H110 8712   1.411   3.365   0.552 -0.7849 -0.1478  0.2488
   12MOL   H111 8713   1.255   3.299   0.525 -0.3446 -1.5061  0.0981
   12MOL   H112 8714   1.476   3.322   0.313 -0.4342 -3.2770 -1.6955
   12MOL   H113 8715   1.290   3.491   0.202  0.5093 -0.7444  0.4209
   12MOL   H114 8716   1.200   3.462   0.341  0.2337  0.4780 -0.0237
   12MOL   H115 8717   1.365   3.723   0.605 -0.3054  1.6857 -0.5695
   12MOL   H116 8718   1.393   3.943   0.707  0.2980  1.6778 -1.3793
   12MOL   H117 8719   1.668   4.051   0.397  0.7778 -0.4488  1.0068
   12MOL   H118 8720   1.649   3.834   0.296  2.3713 -0.6522  0.9572
   12MOL   C119 8721   1.137   4.639   0.830  0.2270 -0.3062 -0.2784
   12MOL   C120 8722   1.197   4.502   0.812 -0.7004  0.1641 -0.0853
   12MOL   C121 8723   1.348   4.512   0.842  0.2473  0.2273 -0.0035
   12MOL   C122 8724   1.417   4.373   0.825 -0.3680 -0.2277 -0.2307
   12MOL   O123 8725   1.387   4.328   0.694  0.7800  0.4014  0.0506
   12MOL   C124 8726   1.426   4.622   0.762  0.4777 -0.1834  0.9139
   12MOL   C125 8727   1.356   4.753   0.792  0.3729 -0.3867 -0.3530
   12MOL   C126 8728   1.211   4.745   0.750 -0.4271 -0.2059  0.0241
   12MOL   C127 8729   1.146   4.878   0.773 -0.1672  0.0190 -0.0444
   12MOL   O128 8730   1.010   4.893   0.734 -0.4261  0.0344  0.1257
   12MOL   C129 8731   0.951   5.003   0.775  0.4577  0.0688 -0.5841
   12MOL   O130 8732   0.993   5.075   0.864 -0.1449 -0.3433 -0.2438
   12MOL   C131 8733   0.826   5.027   0.697 -0.4333 -0.0463  0.0261
   12MOL   C132 8734   0.805   4.983   0.564 -0.0624  0.7178 -0.5157
   12MOL   C133 8735   0.688   5.012   0.493 -0.0696 -0.2804  0.2481
   12MOL   C134 8736   0.583   5.089   0.552 -1.1080  0.0845 -0.4209
   12MOL   C135 8737   0.459   5.115   0.476  0.7383  0.3224 -0.2623
   12MOL   O136 8738   0.435   5.068   0.362  0.3033  0.3620  0.1701
   12MOL   O137 8739   0.376   5.203   0.539  0.3432 -0.3938 -0.7134
   12MOL   C138 8740   0.605   5.138   0.687  0.4572 -0.1755 -0.5538
   12MOL   C139 8741   0.726   5.112   0.752  0.2004 -0.3115  0.0514
   12MOL   H140 8742   1.029   4.642   0.815  0.2602  1.9495 -0.3238
   12MOL   H141 8743   1.139   4.670   0.935  2.2262  0.6250 -0.5636
   12MOL   H142 8744   1.160   4.421   0.875  1.2025 -1.7046 -1.3025
   12MOL   H143 8745   1.182   4.483   0.706 -1.1814 -1.8206  0.3259
   12MOL   H144 8746   1.366   4.534   0.948 -1.5884  1.9941 -0.0322
   12MOL   H145 8747   1.519   4.371   0.863 -0.3913  1.2932 -0.0539
   12MOL   H146 8748   1.370   4.307   0.898 -0.1465  0.8495  0.9040
   12MOL   H147 8749   1.528   4.627   0.801  1.4708  0.3361 -1.7007
   12MOL   H148 8750   1.438   4.602   0.656  0.3142  0.0686  0.8487
   12MOL   H149 8751   1.405   4.829   0.731  0.7221 -0.2295  0.1241
   12MOL   H150 8752   1.356   4.774   0.899  0.3479 -0.6229 -0.3059
   12MOL   H151 8753   1.200   4.727   0.643  0.3066 -1.0438  0.0870
   12MOL   H152 8754   1.153   4.901   0.879  2.4769  1.9187 -0.5729
   12MOL   H153 8755   1.199   4.963   0.731  0.5227 -1.1502 -1.6151
   12MOL   H154 8756   0.876   4.915   0.520 -1.0472 -0.7778  0.1578
   12MOL   H155 8757   0.671   4.966   0.396 -1.5500  0.8177 -0.0312
   12MOL   H156 8758   0.531   5.201   0.734 -0.8817 -0.3524 -2.3601
   12MOL   H157 8759   0.737   5.161   0.847  0.4032 -2.4320  1.1460
   12MOL   C158 8760   7.805   5.216   0.497  0.1737  0.3069  0.0214
   12MOL   C159 8761   7.928   5.147   0.545 -1.2462 -0.2418 -0.4259
   12MOL   C160 8762   0.008   5.211   0.462 -0.1600  0.2299 -0.3819
   12MOL   C161 8763   0.138   5.149   0.508 -0.4525 -0.3824  0.1195
   12MOL   O162 8764   0.250   5.235   0.467  0.9124  0.1695  0.4291
   12MOL   C163 8765   8.013   5.214   0.306  0.1406 -0.2047 -0.6077
   12MOL   C164 8766   7.880   5.282   0.270 -0.1652 -0.1755 -0.0667
   12MOL   C165 8767   7.770   5.205   0.348  0.2005 -0.0277 -0.3782
   12MOL   C166 8768   7.628   5.246   0.298 -0.4184  0.3900 -0.3803
   12MOL   O167 8769   7.530   5.197   0.387  0.1299 -0.8332  0.2931
   12MOL   C168 8770   7.442   5.286   0.437  0.4388 -0.4532  0.3763
   12MOL   O169 8771   7.434   5.405   0.406 -0.1325 -0.1587  0.8529
   12MOL   C170 8772   7.343   5.220   0.532  0.2704  0.5146  0.5397
   12MOL   C171 8773   7.243   5.291   0.597  0.4956  0.3366 -0.9995
   12MOL   C172 8774   7.157   5.236   0.693  0.3918  0.0747  0.5430
   12MOL   C173 8775   7.180   5.105   0.724 -0.2087 -0.4486  0.0821
   12MOL   C174 8776   7.096   5.054   0.841 -0.4755  0.1439 -0.6284
   12MOL   O175 8777   7.010   5.129   0.899  0.4116  0.2849 -0.4223
   12MOL   O176 8778   7.130   4.936   0.886 -0.1891  0.0878 -0.9001
   12MOL   C177 8779   7.274   5.025   0.657  0.3602 -0.2886 -0.7352
   12MOL   C178 8780   7.356   5.082   0.557 -0.5901  0.1142 -0.9492
   12MOL   H179 8781   7.725   5.174   0.558  0.8703  0.9956  1.4432
   12MOL   H180 8782   7.792   5.319   0.528 -0.0160  0.2787  0.0363
   12MOL   H181 8783   7.954   5.153   0.650  1.2201 -0.6480 -0.9678
   12MOL   H182 8784   7.926   5.042   0.515 -0.6896  0.1154 -1.7534
   12MOL   H183 8785   0.010   5.318   0.484  1.7134 -0.0018  0.6810
   12MOL   H184 8786   0.139   5.168   0.616  0.0823  1.5078 -0.2068
   12MOL   H185 8787   0.137   5.045   0.475 -2.3200 -0.4682  0.3693
   12MOL   H186 8788   0.058   5.273   0.263  0.0772  0.3585  0.0318
   12MOL   H187 8789   8.017   5.107   0.283 -2.4014  0.1437 -2.8319
   12MOL   H188 8790   7.863   5.284   0.163 -1.8319  2.5012  0.1925
   12MOL   H189 8791   7.887   5.388   0.295 -0.2383 -0.4818  1.3008
   12MOL   H190 8792   7.781   5.099   0.325 -1.5042  0.1522 -2.1186
   12MOL   H191 8793   7.620   5.354   0.287 -3.8724  0.2928  0.6670
   12MOL   H192 8794   7.610   5.211   0.197 -0.3544 -1.8513  0.3486
   12MOL   H193 8795   7.213   5.391   0.570  0.3782  0.2371 -1.2376
   12MOL   H194 8796   7.080   5.299   0.735 -0.4729 -0.2584 -0.4953
   12MOL   H195 8797   7.274   4.922   0.690  0.9320  0.1103  0.5404
   12MOL   H196 8798   7.431   5.019   0.511  0.0785  0.5158 -0.4253
   12MOL   C197 8799   6.764   4.648   1.292 -0.4021 -0.0962 -0.4264
   12MOL   C198 8800   6.840   4.670   1.165  0.2455 -0.2399 -0.1372
   12MOL   C199 8801   6.929   4.799   1.173  0.1631  0.2394 -0.7906
   12MOL   C200 8802   7.009   4.808   1.038  0.0445  0.1451  0.0621
   12MOL   O201 8803   7.091   4.924   1.027 -0.3039 -0.0665 -1.2585
   12MOL   C202 8804   6.841   4.924   1.195 -0.2767 -0.7277  0.4612
   12MOL   C203 8805   6.746   4.901   1.318  0.5332 -0.1177 -0.5126
   12MOL   C204 8806   6.672   4.763   1.307 -0.0991  0.4236 -0.2380
   12MOL   C205 8807   6.584   4.753   1.437  0.4231 -0.2041  0.2683
   12MOL   O206 8808   6.505   4.636   1.430  0.0488 -0.1832  1.0980
   12MOL   C207 8809   6.403   4.638   1.355 -0.1211 -0.2135 -0.0934
   12MOL   O208 8810   6.348   4.742   1.330 -0.4658  0.0138 -0.8117
   12MOL   C209 8811   6.361   4.513   1.303  0.0108 -0.1586  0.5645
   12MOL   C210 8812   6.377   4.394   1.376  1.0654  1.2039 -0.5480
   12MOL   C211 8813   6.338   4.272   1.319  0.2777 -0.1877 -0.8163
   12MOL   C212 8814   6.267   4.271   1.193 -0.5951  0.9158 -0.5008
   12MOL   C213 8815   6.234   4.143   1.120  0.3524 -0.6345 -0.2445
   12MOL   O214 8816   6.290   4.035   1.143  1.1169  0.3177 -0.0297
   12MOL   O215 8817   6.141   4.152   1.029  0.4800 -0.4217  0.2893
   12MOL   C216 8818   6.252   4.388   1.122 -0.0043  0.0623  0.4091
   12MOL   C217 8819   6.297   4.512   1.177 -0.4645  0.4491 -0.6906
   12MOL   H218 8820   6.700   4.559   1.293 -2.5429  1.3261 -3.7999
   12MOL   H219 8821   6.841   4.635   1.368 -1.0583  0.1135  0.2880
   12MOL   H220 8822   6.899   4.581   1.142 -0.3375 -1.0971  1.6531
   12MOL   H221 8823   6.765   4.661   1.087  0.0284  1.1582 -0.0903
   12MOL   H222 8824   7.003   4.799   1.252  0.0747 -0.0237 -0.7064
   12MOL   H223 8825   7.057   4.711   1.022  0.2142  0.3647 -0.7930
   12MOL   H224 8826   6.935   4.810   0.958  0.7497 -1.1759 -0.6307
   12MOL   H225 8827   6.913   5.005   1.207 -2.0471  0.7396  1.5162
   12MOL   H226 8828   6.779   4.943   1.107 -0.9984 -1.3145  0.8303
   12MOL   H227 8829   6.677   4.985   1.309 -0.7098 -1.3497 -2.9463
   12MOL   H228 8830   6.813   4.898   1.404  0.2089 -0.6460 -0.2726
   12MOL   H229 8831   6.617   4.763   1.213 -0.5541 -1.0996  0.0099
   12MOL   H230 8832   6.655   4.739   1.518  2.4311  0.6528 -1.2926
   12MOL   H231 8833   6.535   4.848   1.455 -1.0151 -1.1412  1.4300
   12MOL   H232 8834   6.418   4.405   1.476 -2.7859  0.5199  1.1887
   12MOL   H233 8835   6.338   4.178   1.373 -0.6222  0.8986  1.1439
   12MOL   H234 8836   6.214   4.389   1.021  1.3049 -0.1045 -0.0957
   12MOL   H235 8837   6.278   4.607   1.130  1.7103  2.3619  2.0754
   12MOL   C236 8838   6.025   4.370   0.649 -0.0648 -0.8155 -0.2432
   12MOL   C237 8839   6.091   4.286   0.759 -0.1225  0.1141 -0.2521
   12MOL   C238 8840   6.049   4.133   0.743 -0.1492 -0.3451 -0.1183
   12MOL   C239 8841   6.126   4.033   0.829 -0.4566  0.4036 -0.7540
   12MOL   O240 8842   6.093   4.027   0.965 -0.8960  0.4506 -0.3719
   12MOL   C241 8843   5.900   4.106   0.742 -0.2574  0.0597  0.0806
   12MOL   C242 8844   5.840   4.188   0.624 -0.4104  0.4933  0.1891
   12MOL   C243 8845   5.875   4.336   0.630  0.1068  0.1065  0.0600
   12MOL   C244 8846   5.812   4.413   0.509  0.5585  1.0839  0.2784
   12MOL   O245 8847   5.820   4.551   0.516  0.0557 -0.2346  0.8394
   12MOL   C246 8848   5.776   4.621   0.412 -0.2053  0.3704 -0.1386
   12MOL   O247 8849   5.744   4.574   0.300 -0.1020  0.1636 -0.0566
   12MOL   C248 8850   5.771   4.767   0.448 -0.0505 -0.1673 -0.2040
   12MOL   C249 8851   5.846   4.819   0.553 -0.7410 -0.5948 -0.9303
   12MOL   C250 8852   5.863   4.950   0.578  0.0347  0.5353 -0.1347
   12MOL   C251 8853   5.783   5.043   0.509 -0.6813  0.6074 -0.6640
   12MOL   C252 8854   5.794   5.188   0.536 -0.6886  0.0938 -0.3436
   12MOL   O253 8855   5.839   5.233   0.645 -0.1034  0.4080  0.4038
   12MOL   O254 8856   5.757   5.263   0.431  0.4911 -0.6808 -0.3946
   12MOL   C255 8857   5.702   4.993   0.401  0.0300  0.1814  0.7118
   12MOL   C256 8858   5.701   4.857   0.375  0.5687 -0.3135  0.6604
   12MOL   H257 8859   6.042   4.474   0.679 -0.0541 -0.6480 -0.8157
   12MOL   H258 8860   6.076   4.363   0.552 -1.2617 -0.2103 -0.9293
   12MOL   H259 8861   6.198   4.301   0.774 -0.2310 -0.2233  0.9268
   12MOL   H260 8862   6.044   4.321   0.851 -0.0092  1.0998 -0.5640
   12MOL   H261 8863   6.086   4.119   0.641  1.5427  1.1007  0.2592
   12MOL   H262 8864   6.131   3.931   0.790  1.4709  0.1694  0.0270
   12MOL   H263 8865   6.231   4.064   0.831  0.1780 -1.7267  1.2212
   12MOL   H264 8866   5.870   4.002   0.728  0.2086 -0.2218  1.1572
   12MOL   H265 8867   5.849   4.137   0.833  0.7833  2.2240 -0.0620
   12MOL   H266 8868   5.734   4.163   0.615 -0.4153  0.9334 -1.0273
   12MOL   H267 8869   5.879   4.151   0.530 -1.4748 -0.8926  0.2739
   12MOL   H268 8870   5.828   4.371   0.723 -1.4173  0.9360 -1.0050
   12MOL   H269 8871   5.877   4.372   0.433  0.1563  0.2804  0.3616
   12MOL   H270 8872   5.710   4.388   0.479  1.0321  0.9463 -1.2560
   12MOL   H271 8873   5.908   4.755   0.614 -0.5939  1.5970  1.3335
   12MOL   H272 8874   5.930   4.978   0.658  2.4291 -3.7185 -0.4757
   12MOL   H273 8875   5.638   5.060   0.345 -1.6489 -1.6834  0.3450
   12MOL   H274 8876   5.637   4.822   0.295  0.7149 -0.6081  0.6716
   12MOL   C275 8877   5.385   5.409   0.290  0.0704  0.0375  0.1617
   12MOL   C276 8878   5.528   5.455   0.319  0.3316  0.1264  0.1736
   12MOL   C277 8879   5.542   5.451   0.470  0.3649  0.0265  0.3749
   12MOL   C278 8880   5.684   5.478   0.526  0.5595  0.6006  0.1845
   12MOL   O279 8881   5.789   5.413   0.454 -0.1649 -0.3642  0.1480
   12MOL   C280 8882   5.426   5.528   0.541 -0.0111 -0.2340 -0.5034
   12MOL   C281 8883   5.286   5.473   0.519 -0.0831  0.6326 -0.5651
   12MOL   C282 8884   5.261   5.474   0.368  0.7451 -0.3602 -0.1019
   12MOL   C283 8885   5.130   5.402   0.337  0.5546 -0.0425  0.3599
   12MOL   O284 8886   5.079   5.439   0.209  0.2033 -0.0528  0.4588
   12MOL   C285 8887   4.954   5.478   0.202  0.1969 -0.0814  0.5391
   12MOL   O286 8888   4.881   5.518   0.292 -0.7645 -0.2027  0.1162
   12MOL   C287 8889   4.907   5.481   0.059  0.0538 -0.0779  0.1917
   12MOL   C288 8890   4.998   5.477   7.987 -0.2031  0.6560  0.4400
   12MOL   C289 8891   4.950   5.481   7.856 -0.0556  0.2819  1.0367
   12MOL   C290 8892   4.807   5.477   7.830  0.7221  0.4026  0.8670
   12MOL   C291 8893   4.752   5.462   7.691  0.3014 -0.2933 -0.3835
   12MOL   O292 8894   4.826   5.452   7.587  0.3870 -0.0165 -0.2536
   12MOL   O293 8895   4.616   5.465   7.677  0.2031  0.8666 -0.1993
   12MOL   C294 8896   4.719   5.476   7.940 -0.3354  0.2680 -0.3861
   12MOL   C295 8897   4.768   5.486   0.035 -0.4952 -0.2443  0.1492
   12MOL   H296 8898   5.358   5.423   0.185  0.8376 -0.9536 -0.1652
   12MOL   H297 8899   5.376   5.301   0.299  2.1871 -0.2153 -0.5475
   12MOL   H298 8900   5.579   5.376   0.265 -2.7081 -1.8995  0.1194
   12MOL   H299 8901   5.550   5.550   0.269 -2.3228 -0.8040 -2.9784
   12MOL   H300 8902   5.520   5.346   0.492  0.4901 -0.6299 -2.4337
   12MOL   H301 8903   5.697   5.586   0.516  1.6027  0.4760  0.0460
   12MOL   H302 8904   5.692   5.451   0.631 -1.7656  1.5863  0.6324
   12MOL   H303 8905   5.441   5.528   0.649  1.9399 -0.1870 -0.7588
   12MOL   H304 8906   5.420   5.631   0.504 -0.3388  0.0760  0.4024
   12MOL   H305 8907   5.210   5.536   0.564 -0.7425  0.4678 -1.4440
   12MOL   H306 8908   5.274   5.372   0.558  2.7194  0.5898  0.3592
   12MOL   H307 8909   5.259   5.578   0.336 -0.0542 -0.7463 -1.3675
   12MOL   H308 8910   5.152   5.295   0.339  1.3137  0.1231  1.3027
   12MOL   H309 8911   5.064   5.425   0.420  0.8943 -1.5637  1.0862
   12MOL   H310 8912   5.103   5.456   8.001 -0.5569 -1.4993 -0.0895
   12MOL   H311 8913   5.028   5.474   7.781  1.1660 -1.6942  2.4434
   12MOL   H312 8914   4.612   5.465   7.932  0.0959 -4.0749 -1.5373
   12MOL   H313 8915   4.700   5.488   0.119 -0.1610 -1.9022  0.4655
   12MOL   C314 8916   4.390   5.442   7.128 -0.4128 -0.3369 -0.0556
   12MOL   C315 8917   4.402   5.451   7.283  0.3877 -0.3010  0.5922
   12MOL   C316 8918   4.524   5.536   7.326  0.1213 -0.4571 -0.0880
   12MOL   C317 8919   4.526   5.556   7.480  0.0983 -0.5583 -0.4208
   12MOL   O318 8920   4.568   5.435   7.539 -0.5258  0.1322  0.4673
   12MOL   C319 8921   4.648   5.480   7.265 -0.2604  0.6009 -0.2782
   12MOL   C320 8922   4.644   5.472   7.114  0.0946  0.1807  1.2543
   12MOL   C321 8923   4.521   5.399   7.066  0.2868  0.0008 -0.0656
   12MOL   C322 8924   4.514   5.394   6.913  0.2364 -0.4293 -0.3532
   12MOL   O323 8925   4.444   5.283   6.874  0.3033 -0.5350 -0.0906
   12MOL   C324 8926   4.418   5.272   6.742 -0.1107 -0.4285  0.0164
   12MOL   O325 8927   4.476   5.334   6.655 -0.3220 -0.1123  0.6000
   12MOL   C326 8928   4.309   5.174   6.712 -1.2329 -0.0570 -0.0240
   12MOL   C327 8929   4.275   5.142   6.579  0.8259  0.8523 -0.7560
   12MOL   C328 8930   4.170   5.049   6.553  0.6103 -0.2968 -0.2042
   12MOL   C329 8931   4.104   4.984   6.663 -0.3626  0.4523 -0.0095
   12MOL   C330 8932   3.988   4.906   6.624  0.5872 -0.4342  0.2910
   12MOL   O331 8933   3.957   4.866   6.510 -0.1148  0.1200 -0.0713
   12MOL   O332 8934   3.911   4.890   6.731 -0.2869  0.3680 -0.0745
   12MOL   C333 8935   4.145   5.013   6.795  0.5747  0.5445 -0.6145
   12MOL   C334 8936   4.253   5.098   6.818 -0.1374  0.2890 -0.5148
   12MOL   H335 8937   4.307   5.376   7.103 -0.2619 -1.1560  1.5817
   12MOL   H336 8938   4.366   5.539   7.084  1.5409 -0.3072 -1.1148
   12MOL   H337 8939   4.312   5.486   7.334 -0.1562 -0.8221  0.0045
   12MOL   H338 8940   4.422   5.347   7.309  1.0790  0.1745  2.0465
   12MOL   H339 8941   4.512   5.638   7.290 -0.6213 -0.3399  0.4762
   12MOL   H340 8942   4.599   5.635   7.497 -1.6834  1.3767 -1.5710
   12MOL   H341 8943   4.431   5.589   7.521  0.2949  0.4349 -0.7683
   12MOL   H342 8944   4.738   5.540   7.282  1.9028 -2.3684 -0.8131
   12MOL   H343 8945   4.687   5.392   7.316  0.7763  1.2557  0.0988
   12MOL   H344 8946   4.740   5.433   7.081  0.0658  2.1219 -1.3011
   12MOL   H345 8947   4.648   5.573   7.072  0.0838 -0.0461  0.7055
   12MOL   H346 8948   4.547   5.296   7.087  0.2850 -0.0576 -0.3543
   12MOL   H347 8949   4.460   5.483   6.880 -0.9586 -1.6355 -1.6925
   12MOL   H348 8950   4.614   5.396   6.871  2.5295 -2.4652  4.5825
   12MOL   H349 8951   4.336   5.177   6.498  1.1402  1.8864 -0.0794
   12MOL   H350 8952   4.135   5.032   6.453  1.1482 -0.5099 -0.3576
   12MOL   H351 8953   4.088   4.973   6.877 -0.1168  1.2116 -0.7585
   12MOL   H352 8954   4.282   5.114   6.921 -4.0295  0.1673  0.6908
   12MOL   C353 8955   3.771   5.029   7.131  0.0518 -0.7865  0.5068
   12MOL   C354 8956   3.808   4.994   6.993  0.2278  0.4002 -0.0789
   12MOL   C355 8957   3.695   5.028   6.902  0.0494  0.0152 -0.5629
   12MOL   C356 8958   3.730   5.031   6.754 -0.3273 -0.2894  0.1767
   12MOL   O357 8959   3.769   4.911   6.699  0.3168  0.0190 -0.0601
   12MOL   C358 8960   3.570   4.942   6.935  0.6806  0.5559 -0.3884
   12MOL   C359 8961   3.522   4.959   7.078 -0.2364  0.0723 -0.7628
   12MOL   C360 8962   3.643   4.954   7.184  0.3715 -0.1103  0.2092
   12MOL   C361 8963   3.590   4.990   7.315  0.5360 -0.0337  0.5498
   12MOL   O362 8964   3.556   5.129   7.308 -0.4593  0.2918 -0.2173
   12MOL   C363 8965   3.500   5.188   7.414 -0.2343  0.2582 -0.3315
   12MOL   O364 8966   3.477   5.132   7.525 -0.0466  0.2142  0.6324
   12MOL   C365 8967   3.477   5.332   7.391  1.0760  0.3765 -0.3971
   12MOL   C366 8968   3.432   5.410   7.498 -0.2707 -0.3611 -0.3176
   12MOL   C367 8969   3.408   5.549   7.479  0.1465  1.0293  0.0248
   12MOL   C368 8970   3.436   5.607   7.353  0.0370  0.1116  0.2275
   12MOL   C369 8971   3.442   5.749   7.337 -0.2717 -0.3163  0.3264
   12MOL   O370 8972   3.378   5.831   7.405 -0.2760 -0.4942 -0.4103
   12MOL   O371 8973   3.520   5.786   7.238  0.1997  0.0879  0.0647
   12MOL   C372 8974   3.473   5.529   7.244  0.1303 -0.8826 -0.0103
   12MOL   C373 8975   3.498   5.394   7.263  0.1038  0.4751 -0.3405
   12MOL   H374 8976   3.846   4.995   7.203 -1.2030  1.0224  2.7518
   12MOL   H375 8977   3.770   5.137   7.141  0.4958 -0.8005  0.6858
   12MOL   H376 8978   3.903   5.044   6.973 -0.6608  1.4704 -1.8320
   12MOL   H377 8979   3.830   4.888   6.983  0.3941  0.5363 -1.3453
   12MOL   H378 8980   3.666   5.130   6.930 -4.5418 -1.0968 -0.8402
   12MOL   H379 8981   3.643   5.057   6.693 -1.6287 -2.8108  0.8889
   12MOL   H380 8982   3.799   5.113   6.732 -0.9637  0.3567  0.5465
   12MOL   H381 8983   3.493   4.967   6.862  0.7926 -0.7590 -0.9838
   12MOL   H382 8984   3.595   4.840   6.904  1.4655  0.9212 -0.9894
   12MOL   H383 8985   3.443   4.890   7.109 -1.1276  2.1946  1.9255
   12MOL   H384 8986   3.469   5.054   7.083  2.7017  1.6486  1.5886
   12MOL   H385 8987   3.668   4.851   7.206  2.3117  0.6668  1.6936
   12MOL   H386 8988   3.496   4.934   7.321  0.5447 -0.2767 -1.3251
   12MOL   H387 8989   3.661   4.969   7.395 -0.1602 -0.5149  1.0532
   12MOL   H388 8990   3.419   5.377   7.600  1.1608 -1.7575 -0.5687
   12MOL   H389 8991   3.382   5.612   7.563 -0.7001 -1.6729  1.8808
   12MOL   H390 8992   3.486   5.567   7.143  1.9592 -0.4541  0.3682
   12MOL   H391 8993   3.519   5.326   7.182  0.1927  1.9980 -1.6375
   12MOL   C392 8994   3.315   6.257   6.893  0.4478  0.1265 -0.1096
   12MOL   C393 8995   3.297   6.116   6.952 -0.3157 -0.4982 -0.3839
   12MOL   C394 8996   3.426   6.083   7.030 -0.2812 -0.0785  0.0062
   12MOL   C395 8997   3.419   5.945   7.104 -0.2751 -0.1400  0.3579
   12MOL   O396 8998   3.521   5.931   7.195 -0.6630 -0.5582 -0.5910
   12MOL   C397 8999   3.557   6.095   6.954 -0.4151 -0.3432 -0.0921
   12MOL   C398 9000   3.570   6.232   6.887  0.2913 -0.4156  0.5639
   12MOL   C399 9001   3.444   6.273   6.804  0.4995 -0.6616  0.2851
   12MOL   C400 9002   3.458   6.414   6.741 -0.0292  0.1183  0.5700
   12MOL   O401 9003   3.551   6.408   6.635  0.4995  0.0657 -0.2217
   12MOL   C402 9004   3.659   6.490   6.641  0.0240 -0.6672  0.0417
   12MOL   O403 9005   3.695   6.549   6.741  0.2819 -0.3772 -0.8256
   12MOL   C404 9006   3.726   6.497   6.512 -0.0811 -0.1105  0.0006
   12MOL   C405 9007   3.846   6.569   6.492 -0.5220 -0.4633  0.5054
   12MOL   C406 9008   3.907   6.585   6.365 -0.5878 -0.3362  0.3957
   12MOL   C407 9009   3.848   6.528   6.252  0.0238  0.0653  0.0828
   12MOL   C408 9010   3.910   6.553   6.116  0.1596  0.5064  0.1570
   12MOL   O409 9011   3.849   6.541   6.008  0.7101 -0.1268  0.1552
   12MOL   O410 9012   4.039   6.593   6.125  0.3516 -0.4023 -0.5346
   12MOL   C411 9013   3.742   6.437   6.274  0.3942  0.0221 -0.5244
   12MOL   C412 9014   3.678   6.429   6.399  0.0957  0.2499  0.3664
   12MOL   H413 9015   3.228   6.273   6.829  1.2188 -0.2854 -1.2763
   12MOL   H414 9016   3.315   6.331   6.973 -0.3566 -0.2558  0.2465
   12MOL   H415 9017   3.207   6.106   7.012 -1.2480  1.5390 -1.3820
   12MOL   H416 9018   3.280   6.037   6.879 -3.4153  1.9024 -2.4058
   12MOL   H417 9019   3.439   6.160   7.106  1.7809  0.4505 -0.8503
   12MOL   H418 9020   3.323   5.937   7.154 -0.2314 -3.1675  0.0526
   12MOL   H419 9021   3.419   5.866   7.029 -0.4335  0.8074 -0.6657
   12MOL   H420 9022   3.650   6.077   7.008 -0.5999 -0.8589  0.0585
   12MOL   H421 9023   3.562   6.016   6.879  1.7598  1.0987 -1.5355
   12MOL   H422 9024   3.653   6.227   6.817 -0.5307  0.2694 -0.4705
   12MOL   H423 9025   3.587   6.304   6.967  0.4723 -0.4343  0.5436
   12MOL   H424 9026   3.432   6.202   6.722  2.2549 -0.3520 -0.2572
   12MOL   H425 9027   3.362   6.437   6.694 -0.5934 -1.6435  0.8316
   12MOL   H426 9028   3.481   6.494   6.813 -1.7420  2.0511 -0.9515
   12MOL   H427 9029   3.890   6.631   6.568  0.4175  0.2871 -0.6295
   12MOL   H428 9030   3.995   6.647   6.356 -1.2315  0.7407  1.3413
   12MOL   H429 9031   3.714   6.379   6.186  1.8443  1.3296 -1.8923
   12MOL   H430 9032   3.593   6.364   6.408  0.0152  0.3809  0.5631
   12MOL   C431 9033   4.045   6.878   5.622  0.2564 -0.5059 -0.9676
   12MOL   C432 9034   4.023   6.816   5.757 -0.3131 -0.1263 -0.6137
   12MOL   C433 9035   4.136   6.841   5.855 -0.4278  0.0994  0.9771
   12MOL   C434 9036   4.104   6.785   5.996  0.9989  0.9041  0.4372
   12MOL   O435 9037   4.094   6.643   5.995  0.0349 -0.0822 -0.1869
   12MOL   C436 9038   4.270   6.796   5.806  0.8013 -0.6587  0.2726
   12MOL   C437 9039   4.302   6.854   5.663  0.0787  0.1306 -0.4259
   12MOL   C438 9040   4.182   6.846   5.561  0.7737  0.3772 -0.0714
   12MOL   C439 9041   4.223   6.926   5.436  0.2921  0.0048 -0.5768
   12MOL   O440 9042   4.162   6.866   5.328 -0.4789  0.2501  0.1795
   12MOL   C441 9043   4.107   6.938   5.227  0.6553  0.0162  0.0917
   12MOL   O442 9044   4.105   7.064   5.224 -0.1922  0.0351 -0.5658
   12MOL   C443 9045   4.038   6.852   5.123  0.3855 -0.6403 -0.3317
   12MOL   C444 9046   4.010   6.716   5.156 -0.2127 -0.4140 -0.0759
   12MOL   C445 9047   3.933   6.644   5.057 -0.6974  0.7825 -0.5871
   12MOL   C446 9048   3.884   6.699   4.937 -0.9215  0.5621 -0.5008
   12MOL   C447 9049   3.813   6.622   4.837  0.1622 -0.2548 -0.5113
   12MOL   O448 9050   3.767   6.662   4.727  0.0824  0.0420 -0.0808
   12MOL   O449 9051   3.797   6.499   4.876  0.2590 -0.1549  0.1028
   12MOL   C450 9052   3.910   6.836   4.914 -0.3456  0.1157 -0.2982
   12MOL   C451 9053   3.986   6.908   4.999 -0.5342  0.0423 -0.9193
   12MOL   H452 9054   3.956   6.846   5.568 -1.9842  3.6037  0.0364
   12MOL   H453 9055   4.038   6.987   5.621 -3.3418 -0.6693 -2.9216
   12MOL   H454 9056   3.927   6.852   5.794 -0.2038  1.1113 -1.5045
   12MOL   H455 9057   4.017   6.710   5.731  3.1288 -1.3837  3.1029
   12MOL   H456 9058   4.138   6.949   5.871  1.2308 -0.3221  3.9564
   12MOL   H457 9059   4.179   6.815   6.068  2.2728 -2.1727  0.4496
   12MOL   H458 9060   4.012   6.822   6.042 -0.8106 -1.9114 -0.7612
   12MOL   H459 9061   4.342   6.810   5.887 -0.9272 -2.1523  2.1498
   12MOL   H460 9062   4.271   6.687   5.796  0.9342 -0.5008 -1.4677
   12MOL   H461 9063   4.382   6.793   5.621 -1.3282 -2.5202  0.5461
   12MOL   H462 9064   4.335   6.957   5.661  1.0400 -0.1166  1.7014
   12MOL   H463 9065   4.170   6.741   5.534  2.0816 -0.2099  1.5419
   12MOL   H464 9066   4.207   7.031   5.462  1.4184 -0.0250  0.2588
   12MOL   H465 9067   4.329   6.911   5.420  0.3379 -1.7726  1.2204
   12MOL   H466 9068   4.042   6.665   5.246  1.6303 -0.3978 -0.6988
   12MOL   H467 9069   3.904   6.543   5.082 -1.8977  0.7797 -1.9302
   12MOL   H468 9070   3.872   6.879   4.823  1.3300 -0.9236 -1.5332
   12MOL   H469 9071   4.003   7.013   4.983  0.7915  0.0207  0.2101
   12MOL   C470 9072   3.624   6.131   5.075 -0.6950 -0.2528  0.0959
   12MOL   C471 9073   3.687   6.204   4.955  0.4851 -0.1822 -0.0770
   12MOL   C472 9074   3.582   6.307   4.893  0.1945  0.8161  0.8318
   12MOL   C473 9075   3.645   6.355   4.759  0.3018  0.5363  0.1992
   12MOL   O474 9076   3.778   6.407   4.760  0.0252  0.1757 -0.0769
   12MOL   C475 9077   3.447   6.242   4.865 -0.8448 -0.2867  0.1729
   12MOL   C476 9078   3.388   6.182   4.995  0.3929 -0.0541 -0.2715
   12MOL   C477 9079   3.480   6.075   5.052  0.0924 -0.3121  0.0339
   12MOL   C478 9080   3.421   6.027   5.181 -0.1594  0.1998  0.3476
   12MOL   O479 9081   3.503   5.953   5.275  0.8242  0.2111  0.7587
   12MOL   C480 9082   3.565   6.018   5.381  0.0468  0.3666  0.2258
   12MOL   O481 9083   3.547   6.139   5.402 -0.2275 -0.4330  0.8387
   12MOL   C482 9084   3.649   5.933   5.467 -0.3083 -0.4494 -0.2009
   12MOL   C483 9085   3.717   5.983   5.579 -0.1902 -0.4500 -0.2037
   12MOL   C484 9086   3.794   5.891   5.649  0.8372  0.4217 -0.5937
   12MOL   C485 9087   3.814   5.756   5.612 -0.2212 -0.2125  0.2376
   12MOL   C486 9088   3.903   5.660   5.688  0.4303 -0.0094 -0.3064
   12MOL   O487 9089   3.940   5.553   5.644 -0.1053  0.0948 -0.4525
   12MOL   O488 9090   3.953   5.715   5.809  0.1321 -0.4294 -0.0283
   12MOL   C489 9091   3.752   5.716   5.494 -0.4913 -0.2604 -0.2307
   12MOL   C490 9092   3.671   5.800   5.421 -0.0053 -0.0785  0.0717
   12MOL   H491 9093   3.689   6.048   5.102 -0.5364 -0.7103 -1.6207
   12MOL   H492 9094   3.614   6.206   5.153  1.4640  0.2826 -0.1114
   12MOL   H493 9095   3.777   6.252   4.993  1.2622 -1.1417 -0.6616
   12MOL   H494 9096   3.717   6.128   4.882  0.9905 -0.5852  0.5472
   12MOL   H495 9097   3.572   6.389   4.964 -0.0314  2.2742 -0.8253
   12MOL   H496 9098   3.654   6.268   4.695  2.5856  1.4138 -0.7180
   12MOL   H497 9099   3.576   6.420   4.705 -0.5577 -0.4575  0.0929
   12MOL   H498 9100   3.374   6.317   4.835  1.1822  1.4692 -0.5081
   12MOL   H499 9101   3.444   6.172   4.781  2.6982 -1.0403  0.5735
   12MOL   H500 9102   3.286   6.147   4.980  0.8435 -1.7388  0.5474
   12MOL   H501 9103   3.382   6.263   5.068 -1.9865 -0.5690  0.1397
   12MOL   H502 9104   3.485   5.999   4.974  1.7391  1.9429 -2.1718
   12MOL   H503 9105   3.385   6.112   5.239 -0.6907  0.7358 -0.7595
   12MOL   H504 9106   3.333   5.969   5.156 -1.4699  1.9837  0.7235
   12MOL   H505 9107   3.721   6.088   5.607  2.7028 -0.3891 -0.6582
   12MOL   H506 9108   3.835   5.917   5.746 -1.9364  0.1196  0.6878
   12MOL   H507 9109   3.781   5.616   5.464  1.5755  0.8066 -1.8853
   12MOL   H508 9110   3.632   5.742   5.338  1.2321 -1.2475  0.2731
   12MOL   C509 9111   4.328   5.553   6.211 -0.2288  0.2484  0.1068
   12MOL   C510 9112   4.238   5.630   6.108 -0.4113 -0.2748  0.3792
   12MOL   C511 9113   4.254   5.568   5.966 -0.9575 -0.1673 -0.3593
   12MOL   C512 9114   4.169   5.641   5.860 -0.0073  0.3914  0.2025
   12MOL   O513 9115   4.034   5.619   5.884  0.6434 -0.6752  0.0649
   12MOL   C514 9116   4.407   5.586   5.931  0.3284 -0.0646  0.0268
   12MOL   C515 9117   4.504   5.511   6.018  0.3755  0.5144 -0.0565
   12MOL   C516 9118   4.484   5.562   6.168  0.3511 -0.5790  0.4827
   12MOL   C517 9119   4.576   5.495   6.277  0.1126  0.1924  0.2798
   12MOL   O518 9120   4.561   5.567   6.404 -0.3489 -0.2909 -0.0920
   12MOL   C519 9121   4.672   5.609   6.462 -0.3543 -0.3537 -0.0344
   12MOL   O520 9122   4.786   5.605   6.415 -0.3980 -0.5029 -0.1020
   12MOL   C521 9123   4.656   5.667   6.605  0.2141 -0.0850 -0.1703
   12MOL   C522 9124   4.766   5.659   6.696 -0.0679  0.2483 -0.3679
   12MOL   C523 9125   4.765   5.731   6.821  0.3091  0.1008  0.1771
   12MOL   C524 9126   4.646   5.791   6.857 -0.5295 -0.1753 -0.3194
   12MOL   C525 9127   4.643   5.887   6.975  0.5423  0.3764 -0.0053
   12MOL   O526 9128   4.556   5.972   6.995 -0.5971 -0.0945 -0.3704
   12MOL   O527 9129   4.743   5.872   7.060  0.3196 -0.5314  0.7201
   12MOL   C528 9130   4.528   5.782   6.781  0.1737 -0.0119  0.3649
   12MOL   C529 9131   4.532   5.719   6.655 -0.1827 -0.9417  0.1277
   12MOL   H530 9132   4.306   5.587   6.312 -2.9415  1.5284 -0.8804
   12MOL   H531 9133   4.296   5.448   6.211 -1.0195  0.4832  0.6634
   12MOL   H532 9134   4.133   5.613   6.133 -1.5305 -1.8022 -4.7792
   12MOL   H533 9135   4.252   5.737   6.115 -2.0707 -0.0472  0.4048
   12MOL   H534 9136   4.240   5.460   5.971  1.2980 -0.4202  1.3800
   12MOL   H535 9137   4.185   5.748   5.861  1.5156  0.2507 -2.4334
   12MOL   H536 9138   4.209   5.612   5.762  0.4264 -0.1090  0.5228
   12MOL   H537 9139   4.426   5.555   5.828  0.5560  0.2620 -0.0299
   12MOL   H538 9140   4.428   5.693   5.928  0.1506 -0.0468 -0.5740
   12MOL   H539 9141   4.601   5.527   5.971 -0.5271 -0.8771 -2.4567
   12MOL   H540 9142   4.481   5.405   6.016 -0.3819  0.5351  3.3372
   12MOL   H541 9143   4.505   5.669   6.159 -2.8996  0.0429 -0.7247
   12MOL   H542 9144   4.547   5.391   6.291 -0.5867  0.3456 -0.0200
   12MOL   H543 9145   4.677   5.501   6.236  0.4206  0.2653  1.0388
   12MOL   H544 9146   4.857   5.608   6.669 -0.3038 -0.5340  0.3182
   12MOL   H545 9147   4.855   5.743   6.880  0.5630  4.3563 -0.8909
   12MOL   H546 9148   4.452   5.846   6.823 -0.2161  0.6669 -1.3373
   12MOL   H547 9149   4.443   5.723   6.594 -0.9015  0.0969  1.2087
   12MOL   C548 9150   4.982   5.699   7.488 -0.2766 -0.4042  0.7852
   12MOL   C549 9151   4.869   5.791   7.465 -0.7927 -0.5380  0.0753
   12MOL   C550 9152   4.864   5.834   7.321  0.5800 -0.2626 -0.4713
   12MOL   C551 9153   4.745   5.930   7.297 -0.6091  0.3850 -0.5439
   12MOL   O552 9154   4.758   5.985   7.170 -0.3693 -0.1935  0.4274
   12MOL   C553 9155   5.004   5.889   7.265  0.7210  0.5463 -0.2733
   12MOL   C554 9156   5.130   5.804   7.310  0.5771 -0.5949 -0.0631
   12MOL   C555 9157   5.123   5.758   7.457  0.5745 -0.2989  0.1126
   12MOL   C556 9158   5.242   5.663   7.485 -0.3003  0.5118 -0.2403
   12MOL   O557 9159   5.223   5.638   7.618  0.1815 -0.3866 -0.4990
   12MOL   C558 9160   5.330   5.620   7.693 -0.4167 -0.4753  0.1251
   12MOL   O559 9161   5.435   5.562   7.654  0.6231 -0.0302  0.7585
   12MOL   C560 9162   5.309   5.685   7.828  0.1751 -0.1765 -0.1036
   12MOL   C561 9163   5.406   5.663   7.931 -0.0162 -0.2895  0.9484
   12MOL   C562 9164   5.387   5.720   0.026 -0.8470  0.2776  0.4100
   12MOL   C563 9165   5.267   5.795   0.054 -0.3645  0.6294  0.2902
   12MOL   C564 9166   5.238   5.844   0.193  0.0472 -0.1498  0.5004
   12MOL   O565 9167   5.313   5.828   0.285  0.1971 -0.1576 -0.3004
   12MOL   O566 9168   5.112   5.893   0.204  0.1822  0.6428 -0.0305
   12MOL   C567 9169   5.173   5.812   7.986 -0.0041  0.1771 -0.1574
   12MOL   C568 9170   5.191   5.760   7.856 -0.5289 -0.3520  0.4207
   12MOL   H569 9171   4.970   5.668   7.592 -2.2287 -2.6436 -0.0495
   12MOL   H570 9172   4.977   5.613   7.421 -1.8819 -0.2963  0.7454
   12MOL   H571 9173   4.776   5.737   7.482 -0.6888 -0.8411 -0.3168
   12MOL   H572 9174   4.867   5.879   7.529 -0.1004 -1.1778  0.9945
   12MOL   H573 9175   4.842   5.741   7.270  2.5801 -0.3284 -1.2590
   12MOL   H574 9176   4.652   5.874   7.302 -0.5789  0.4116  0.4105
   12MOL   H575 9177   4.751   6.016   7.364  2.1661  0.2048 -0.5208
   12MOL   H576 9178   5.018   5.909   7.159  3.1706 -1.0181 -0.2879
   12MOL   H577 9179   5.027   5.987   7.306  0.2420  1.5113 -2.2650
   12MOL   H578 9180   5.227   5.845   7.282  0.6481 -1.1901 -0.6914
   12MOL   H579 9181   5.122   5.711   7.255  0.7747  0.0814 -1.2452
   12MOL   H580 9182   5.143   5.842   7.524  0.9231 -1.3209  1.3158
   12MOL   H581 9183   5.215   5.575   7.427  1.8656  1.3430 -2.5874
   12MOL   H582 9184   5.342   5.700   7.462  0.8170 -0.7580  2.4117
   12MOL   H583 9185   5.490   5.600   7.907  0.4769  0.2217  1.3148
   12MOL   H584 9186   5.464   5.706   0.101 -0.2087 -2.0188 -0.6218
   12MOL   H585 9187   5.083   5.868   8.006 -0.6690 -0.8856 -0.1278
   12MOL   H586 9188   5.119   5.782   7.779  0.4543 -1.4101 -0.8194
   12MOL   C587 9189   5.083   5.888   0.777 -0.1769 -0.0598 -0.1504
   12MOL   C588 9190   5.107   5.888   0.627 -0.0105  0.0124 -0.0322
   12MOL   C589 9191   4.990   5.833   0.553 -0.6189  0.3314 -0.5124
   12MOL   C590 9192   5.025   5.809   0.401  0.2429  0.0954 -0.8437
   12MOL   O591 9193   5.083   5.921   0.342  0.2548 -0.0126  0.4367
   12MOL   C592 9194   4.926   5.705   0.614 -0.4600 -0.6959 -0.1393
   12MOL   C593 9195   4.906   5.716   0.764 -0.2957 -0.3873 -0.9570
   12MOL   C594 9196   5.033   5.754   0.832 -0.6285 -0.3977  0.0879
   12MOL   C595 9197   5.024   5.750   0.991  0.8552  0.6306  0.1521
   12MOL   O596 9198   4.965   5.625   1.035  0.0386  0.0839  0.5040
   12MOL   C597 9199   5.055   5.525   1.070 -0.6629 -0.1011  0.0320
   12MOL   O598 9200   5.179   5.539   1.063 -0.3088 -0.2632  0.7704
   12MOL   C599 9201   4.989   5.399   1.109  0.0033  0.5658  0.0699
   12MOL   C600 9202   4.848   5.387   1.129 -0.3424 -0.5547 -0.4595
   12MOL   C601 9203   4.787   5.267   1.170  0.2390  0.0216  0.4309
   12MOL   C602 9204   4.870   5.155   1.205  0.0336  0.2246 -0.7025
   12MOL   C603 9205   4.804   5.032   1.246  0.8563  0.7040  0.1350
   12MOL   O604 9206   4.692   5.032   1.296 -0.4688  0.3800 -0.0651
   12MOL   O605 9207   4.878   4.922   1.233 -0.3897 -0.2205 -0.2838
   12MOL   C606 9208   5.008   5.165   1.182 -0.8679 -0.9074  0.3310
   12MOL   C607 9209   5.064   5.286   1.145  0.2521 -0.4525 -0.0078
   12MOL   H608 9210   5.169   5.922   0.835  0.6469 -3.2767  0.6359
   12MOL   H609 9211   5.008   5.964   0.799  0.2277  0.8366 -1.8213
   12MOL   H610 9212   5.139   5.988   0.598  0.1286 -0.1619 -0.4798
   12MOL   H611 9213   5.184   5.812   0.615  0.5898  0.1848  2.3422
   12MOL   H612 9214   4.910   5.905   0.566 -1.4830 -0.5657 -0.7856
   12MOL   H613 9215   5.087   5.719   0.401  0.3849  0.1833  0.9203
   12MOL   H614 9216   4.936   5.777   0.345 -0.5131  0.7585 -0.0363
   12MOL   H615 9217   4.821   5.707   0.584 -0.9417 -0.5951  1.5254
   12MOL   H616 9218   4.973   5.614   0.577 -1.4984 -1.5800  0.6887
   12MOL   H617 9219   4.881   5.614   0.793  0.3730 -0.6528 -1.2917
   12MOL   H618 9220   4.816   5.772   0.788 -0.5263 -1.0687 -0.2132
   12MOL   H619 9221   5.100   5.672   0.807 -0.4539 -0.1658 -0.2189
   12MOL   H620 9222   5.120   5.763   1.042 -0.8703  1.1000  3.3570
   12MOL   H621 9223   4.955   5.826   1.027  2.2303  0.7067  2.7072
   12MOL   H622 9224   4.784   5.472   1.114  1.3386  0.4630 -2.1810
   12MOL   H623 9225   4.680   5.255   1.175  0.1282 -0.3128 -2.0794
   12MOL   H624 9226   5.076   5.087   1.216 -1.2079 -0.6199  1.6674
   12MOL   H625 9227   5.171   5.272   1.136  0.1361 -1.6809  0.3884
   12MOL   C626 9228   4.627   4.411   1.361  0.2025 -0.1621 -0.1519
   12MOL   C627 9229   4.718   4.527   1.318  0.2339 -0.4604 -0.5980
   12MOL   C628 9230   4.747   4.631   1.424 -0.4722 -0.5693 -0.4895
   12MOL   C629 9231   4.845   4.743   1.379  0.5239 -0.2681  0.0504
   12MOL   O630 9232   4.810   4.784   1.255  0.0693  0.0387  0.0849
   12MOL   C631 9233   4.615   4.693   1.466  0.4644 -0.1779  0.4424
   12MOL   C632 9234   4.527   4.582   1.517 -0.2062 -0.1742 -0.2668
   12MOL   C633 9235   4.497   4.477   1.406  0.4482 -0.7638  0.0955
   12MOL   C634 9236   4.392   4.370   1.436  0.2428 -0.7484 -0.0454
   12MOL   O635 9237   4.271   4.436   1.451 -0.4579 -0.0108  0.3214
   12MOL   C636 9238   4.159   4.361   1.445 -0.4088 -0.4123  0.5147
   12MOL   O637 9239   4.157   4.246   1.404 -0.0931  0.4477  0.1340
   12MOL   C638 9240   4.041   4.428   1.494 -0.3198  0.0061  0.5238
   12MOL   C639 9241   4.016   4.566   1.461 -0.8064 -0.7995  0.1240
   12MOL   C640 9242   3.898   4.633   1.512 -0.3874 -0.2008  0.3388
   12MOL   C641 9243   3.809   4.563   1.594 -0.2301  0.0167 -0.3625
   12MOL   C642 9244   3.678   4.617   1.637  0.0794  0.6972 -0.7087
   12MOL   O643 9245   3.599   4.557   1.701 -0.1403  0.0606  0.4405
   12MOL   O644 9246   3.659   4.745   1.586 -1.0224 -0.3870 -0.1631
   12MOL   C645 9247   3.841   4.433   1.632  1.4437 -0.4984 -0.1960
   12MOL   C646 9248   3.952   4.370   1.579  0.3116  0.4253  0.2633
   12MOL   H647 9249   4.615   4.346   1.274 -0.6377  1.8312 -1.5775
   12MOL   H648 9250   4.674   4.363   1.447 -1.2912  0.8785  1.2693
   12MOL   H649 9251   4.810   4.480   1.283  0.5723 -0.5620  0.4062
   12MOL   H650 9252   4.684   4.573   1.225 -0.6116 -1.3419 -0.7263
   12MOL   H651 9253   4.785   4.576   1.510  0.0796 -2.3318 -1.8255
   12MOL   H652 9254   4.847   4.820   1.456  0.3108 -0.8938  0.6966
   12MOL   H653 9255   4.947   4.704   1.386  1.2259  1.7495  1.3560
   12MOL   H654 9256   4.627   4.763   1.549 -2.1200 -1.2837  1.8189
   12MOL   H655 9257   4.569   4.739   1.379 -0.2595 -0.3690  0.7251
   12MOL   H656 9258   4.441   4.647   1.532 -0.9155 -0.6008 -2.3463
   12MOL   H657 9259   4.563   4.538   1.610  0.5277  1.1787  0.0913
   12MOL   H658 9260   4.458   4.537   1.325  0.2065 -1.2838 -0.1761
   12MOL   H659 9261   4.382   4.302   1.351 -0.4480 -1.0032  0.2303
   12MOL   H660 9262   4.413   4.293   1.510 -1.2864 -0.6159  0.5404
   12MOL   H661 9263   4.084   4.613   1.392  0.9756 -1.1737  1.6018
   12MOL   H662 9264   3.889   4.736   1.482  0.5424 -0.4812 -0.9749
   12MOL   H663 9265   3.776   4.374   1.696 -1.9197  1.2297 -1.8695
   12MOL   H664 9266   3.972   4.267   1.606  3.8612  0.1900 -2.7466
   12MOL   C665 9267   3.282   5.187   1.784  0.6747  0.2750 -0.5505
   12MOL   C666 9268   3.411   5.108   1.805  0.1896  0.1765  0.4605
   12MOL   C667 9269   3.407   4.980   1.710  0.3590 -0.1119 -0.4993
   12MOL   C668 9270   3.535   4.895   1.712 -0.2817  0.1832  0.8167
   12MOL   O669 9271   3.526   4.802   1.618 -0.1472 -0.1890  0.7396
   12MOL   C670 9272   3.282   4.894   1.732  0.0625 -0.1424 -0.2818
   12MOL   C671 9273   3.156   4.982   1.720  0.2320  0.0511 -0.1498
   12MOL   C672 9274   3.154   5.102   1.819 -0.3670 -0.0905  0.1869
   12MOL   C673 9275   3.026   5.189   1.799 -0.4330  0.3801 -0.1034
   12MOL   O674 9276   2.926   5.121   1.865  0.6935  0.3753 -0.1074
   12MOL   C675 9277   2.835   5.036   1.795  0.3179  0.6935  0.2079
   12MOL   O676 9278   2.840   5.008   1.671 -0.2536 -0.6093  0.1655
   12MOL   C677 9279   2.725   4.982   1.882 -0.2782 -0.0530 -0.0797
   12MOL   C678 9280   2.623   4.909   1.821 -0.2750 -0.5459 -0.1942
   12MOL   C679 9281   2.512   4.867   1.896  0.0132  0.3977  0.0057
   12MOL   C680 9282   2.496   4.898   2.035 -0.0986  0.3849 -0.2205
   12MOL   C681 9283   2.367   4.862   2.107 -0.2560  0.6293  0.3669
   12MOL   O682 9284   2.354   4.864   2.227  0.8594 -0.0887 -0.1214
   12MOL   O683 9285   2.266   4.825   2.019  0.3270 -0.6183  0.4940
   12MOL   C684 9286   2.600   4.968   2.095 -0.8832 -0.6717  0.0444
   12MOL   C685 9287   2.716   5.006   2.021 -0.2129 -0.3223 -0.3387
   12MOL   H686 9288   3.282   5.283   1.836  3.4619  1.8826 -3.3663
   12MOL   H687 9289   3.271   5.210   1.678 -1.2014 -0.5233 -0.5465
   12MOL   H688 9290   3.497   5.170   1.780  0.3910  0.5799  2.0699
   12MOL   H689 9291   3.428   5.071   1.907  1.2217 -2.0609 -0.4715
   12MOL   H690 9292   3.405   5.023   1.610 -1.9977  2.0281  0.3966
   12MOL   H691 9293   3.614   4.964   1.683 -0.7274  0.2317 -0.3130
   12MOL   H692 9294   3.564   4.851   1.807 -2.8429 -3.1090  0.1770
   12MOL   H693 9295   3.265   4.813   1.661 -1.7421  1.1299 -1.3328
   12MOL   H694 9296   3.283   4.847   1.831 -1.1950 -0.7067 -0.5306
   12MOL   H695 9297   3.066   4.921   1.732  0.7484 -0.4341  1.3419
   12MOL   H696 9298   3.133   5.011   1.617 -0.5284 -0.5070 -0.1377
   12MOL   H697 9299   3.160   5.080   1.925 -0.1956  0.6416  0.3367
   12MOL   H698 9300   3.043   5.290   1.836 -0.2137  0.4507 -0.3970
   12MOL   H699 9301   3.000   5.202   1.694 -0.9002  0.1591 -0.0166
   12MOL   H700 9302   2.633   4.868   1.721  0.7418 -0.2475 -0.2225
   12MOL   H701 9303   2.442   4.809   1.838 -0.2230  0.5025  0.1831
   12MOL   H702 9304   2.597   5.006   2.196  1.0209 -0.4080  0.0249
   12MOL   H703 9305   2.792   5.064   2.072 -0.2681  1.0035 -1.7204
   12MOL   C704 9306   2.106   4.545   2.447  0.3317  0.3216  0.2355
   12MOL   C705 9307   2.158   4.618   2.325 -0.5593 -0.3608 -0.7168
   12MOL   C706 9308   2.110   4.554   2.192 -0.2595 -0.1367  0.2677
   12MOL   C707 9309   2.177   4.612   2.071 -0.4347 -0.5653  0.6934
   12MOL   O708 9310   2.147   4.745   2.078 -0.1050  0.2726  0.3899
   12MOL   C709 9311   2.140   4.401   2.190 -0.3740 -0.1790  0.1512
   12MOL   C710 9312   2.073   4.333   2.314 -0.1596  0.2827 -0.1522
   12MOL   C711 9313   2.118   4.393   2.443  0.6596 -0.0996  0.3608
   12MOL   C712 9314   2.055   4.323   2.561  0.5042  0.1355 -0.2200
   12MOL   O713 9315   2.119   4.199   2.560 -0.0639 -0.2880 -0.3197
   12MOL   C714 9316   2.081   4.100   2.646 -0.3886 -0.0042  0.4708
   12MOL   O715 9317   2.002   4.110   2.737  0.5674  0.7265  0.2999
   12MOL   C716 9318   2.141   3.964   2.614 -0.1461 -0.4007 -0.1257
   12MOL   C717 9319   2.083   3.849   2.666  0.8967  0.4136 -0.4336
   12MOL   C718 9320   2.131   3.721   2.634 -0.2993 -0.4256 -0.3485
   12MOL   C719 9321   2.241   3.714   2.548  0.5087 -0.0016 -0.0122
   12MOL   C720 9322   2.303   3.588   2.517 -0.6731  0.9808  0.4461
   12MOL   O721 9323   2.412   3.576   2.456  0.1480 -0.1062  0.2230
   12MOL   O722 9324   2.235   3.479   2.558  0.6425  0.2154  0.3869
   12MOL   C723 9325   2.281   3.829   2.478 -0.5681  0.1824  0.1675
   12MOL   C724 9326   2.235   3.957   2.511 -0.7004 -0.0591 -0.3051
   12MOL   H725 9327   2.179   4.579   2.520  0.5993 -0.4933  0.3543
   12MOL   H726 9328   2.006   4.582   2.469 -0.1524 -0.9902  0.2813
   12MOL   H727 9329   2.124   4.721   2.332  1.8035  0.4510 -0.9675
   12MOL   H728 9330   2.265   4.623   2.342 -0.7968  1.9497  0.1749
   12MOL   H729 9331   2.002   4.569   2.188 -0.5117 -1.9119 -0.2267
   12MOL   H730 9332   2.284   4.597   2.081 -0.4169 -0.9501 -0.0559
   12MOL   H731 9333   2.137   4.575   1.977  1.9840  1.5342 -1.2395
   12MOL   H732 9334   2.106   4.351   2.099  1.7292 -0.2779 -0.5985
   12MOL   H733 9335   2.246   4.380   2.201 -0.1320  0.1270 -1.3657
   12MOL   H734 9336   2.088   4.225   2.319 -0.1407  0.3769  2.6438
   12MOL   H735 9337   1.965   4.342   2.324 -0.5191 -3.1051 -0.4686
   12MOL   H736 9338   2.223   4.365   2.442  0.3897 -1.2283  1.5478
   12MOL   H737 9339   2.092   4.390   2.639 -1.2581 -0.4353  1.1409
   12MOL   H738 9340   1.947   4.322   2.548  0.6329 -0.7477 -1.2881
   12MOL   H739 9341   1.994   3.852   2.728  1.7786  0.3458  0.8514
   12MOL   H740 9342   2.089   3.643   2.696  1.0000 -2.6835 -2.2493
   12MOL   H741 9343   2.362   3.822   2.407  1.7758  2.1265  2.4954
   12MOL   H742 9344   2.276   4.046   2.467 -2.2807  1.2970  0.8529
   12MOL   C743 9345   2.354   2.979   2.213  0.6317  0.1925 -0.4016
   12MOL   C744 9346   2.314   3.124   2.243 -0.5110 -0.1338  0.2038
   12MOL   C745 9347   2.320   3.155   2.395  0.1318 -0.2097 -0.2468
   12MOL   C746 9348   2.279   3.301   2.413  0.3595 -0.1481 -0.1224
   12MOL   O747 9349   2.304   3.346   2.546 -0.1435 -0.2180  0.0139
   12MOL   C748 9350   2.237   3.058   2.472  0.2051  0.2863  0.9186
   12MOL   C749 9351   2.290   2.919   2.451 -0.2801  0.7604  1.0347
   12MOL   C750 9352   2.274   2.881   2.300  0.1800  0.4271  0.3647
   12MOL   C751 9353   2.330   2.735   2.268  0.4487 -0.1125 -0.8734
   12MOL   O752 9354   2.223   2.641   2.275 -0.4432 -0.5996 -0.0328
   12MOL   C753 9355   2.151   2.613   2.163 -0.5694  0.0102 -0.1110
   12MOL   O754 9356   2.174   2.653   2.045  0.0480 -0.1741 -0.2351
   12MOL   C755 9357   2.040   2.522   2.197  0.6224 -0.4566 -0.3618
   12MOL   C756 9358   1.956   2.476   2.090  0.3185 -0.3569 -0.3563
   12MOL   C757 9359   1.863   2.377   2.120  0.2975 -0.9932 -0.6058
   12MOL   C758 9360   1.843   2.330   2.249  0.2195  0.0819 -0.2834
   12MOL   C759 9361   1.724   2.241   2.277  0.6856 -0.0829  0.4652
   12MOL   O760 9362   1.637   2.227   2.196  0.2115 -0.4448  0.1133
   12MOL   O761 9363   1.717   2.189   2.405 -0.1625 -0.0115  0.1896
   12MOL   C762 9364   1.928   2.372   2.354 -0.1427 -0.3796  0.2836
   12MOL   C763 9365   2.026   2.466   2.327 -0.4189  0.0380  0.6638
   12MOL   H764 9366   2.341   2.960   2.107 -0.7942  0.9530 -0.3701
   12MOL   H765 9367   2.460   2.969   2.240  0.1338 -0.3965  1.4170
   12MOL   H766 9368   2.380   3.192   2.189 -0.7859 -0.3759 -0.4388
   12MOL   H767 9369   2.217   3.143   2.197 -0.0358 -0.3150 -0.8912
   12MOL   H768 9370   2.424   3.143   2.426 -0.3225 -0.4745  1.2024
   12MOL   H769 9371   2.331   3.360   2.338  0.1338  1.1494  0.7240
   12MOL   H770 9372   2.175   3.313   2.381  0.4942 -0.8701 -0.8562
   12MOL   H771 9373   2.235   3.093   2.575  1.1041  0.2623  0.9474
   12MOL   H772 9374   2.139   3.067   2.424  0.3405 -1.4145  0.2906
   12MOL   H773 9375   2.237   2.844   2.510 -2.1702  1.6223  0.4605
   12MOL   H774 9376   2.394   2.916   2.484  0.0444 -1.9754 -0.1103
   12MOL   H775 9377   2.171   2.895   2.267 -0.2123 -0.6714  1.0974
   12MOL   H776 9378   2.384   2.748   2.175  1.2274  0.9983 -0.2840
   12MOL   H777 9379   2.411   2.711   2.337  1.7267  2.3782 -1.4223
   12MOL   H778 9380   1.969   2.514   1.989  0.3597 -1.1454 -0.6478
   12MOL   H779 9381   1.800   2.337   2.042 -0.4926 -0.7845 -0.0791
   12MOL   H780 9382   1.907   2.334   2.453 -1.6954 -0.5316 -0.0882
   12MOL   H781 9383   2.101   2.488   2.402  1.2378 -0.9275 -0.6655
   12MOL   H782 9384   1.640   2.137   2.419 -0.0555 -0.1092  0.4171
   13MOL     C1 9385   1.160   7.591   2.275 -0.3972  0.3623 -0.4356
   13MOL     C2 9386   1.140   7.682   2.399  0.5143 -0.3212 -0.1677
   13MOL     C3 9387   0.988   7.716   2.432 -0.2135  0.3175 -0.5325
   13MOL     C4 9388   0.960   7.785   2.562 -0.3360  0.4223  0.0069
   13MOL     O5 9389   0.994   7.694   2.670  0.2559 -0.2951  0.2626
   13MOL     C6 9390   0.939   7.796   2.312 -0.6056  0.2206 -0.0183
   13MOL     C7 9391   0.964   7.718   2.182  0.5658 -0.0609  0.0101
   13MOL     C8 9392   1.107   7.663   2.157 -0.9951  0.3364  0.2371
   13MOL     C9 9393   1.117   7.577   2.032 -0.0028  0.7622  0.1846
   13MOL    O10 9394   1.054   7.455   2.061  0.1352  0.6663 -0.2598
   13MOL    C11 9395   0.999   7.367   1.967 -0.3267  0.2763 -0.0003
   13MOL    O12 9396   0.984   7.401   1.848  0.3328 -0.1717  0.3332
   13MOL    C13 9397   0.928   7.249   2.030 -0.0686 -0.2896  0.3568
   13MOL    C14 9398   0.835   7.170   1.958 -0.0223  0.4827  0.1602
   13MOL    C15 9399   0.768   7.056   2.019 -0.5410 -0.1362 -0.2174
   13MOL    C16 9400   0.794   7.024   2.154 -0.0958  0.9244 -0.4249
   13MOL    C17 9401   0.735   6.910   2.219 -0.5292  0.4000 -0.8359
   13MOL    O18 9402   0.747   6.793   2.182 -0.3568  0.0554 -0.7053
   13MOL    O19 9403   0.671   6.938   2.333  0.2976  0.6813  0.0668
   13MOL    C20 9404   0.886   7.101   2.230 -0.2849 -0.8079  0.0995
   13MOL    C21 9405   0.949   7.212   2.166 -0.1716  0.2334 -0.2217
   13MOL    H22 9406   1.265   7.564   2.260  0.0341  1.3320  0.8578
   13MOL    H23 9407   1.110   7.497   2.299  0.8932 -1.0648 -3.0674
   13MOL    H24 9408   1.198   7.643   2.483 -0.5673  0.6129  1.0425
   13MOL    H25 9409   1.193   7.777   2.389  1.2948 -0.8774 -1.3942
   13MOL    H26 9410   0.931   7.623   2.423  2.9862 -1.6484 -1.1117
   13MOL    H27 9411   0.996   7.886   2.579  0.5896  0.0393  0.4127
   13MOL    H28 9412   0.853   7.804   2.558 -0.7846 -2.1486 -1.8197
   13MOL    H29 9413   0.834   7.819   2.330 -1.3718 -1.4675 -2.2206
   13MOL    H30 9414   0.997   7.888   2.317  0.5486 -0.5336  0.7287
   13MOL    H31 9415   0.933   7.782   2.099  0.4068  1.4389  1.1883
   13MOL    H32 9416   0.897   7.633   2.172  3.8509 -3.0957  2.7839
   13MOL    H33 9417   1.169   7.751   2.138 -0.9196  0.4415  0.9440
   13MOL    H34 9418   1.074   7.630   1.947  4.0461  3.7905 -0.0896
   13MOL    H35 9419   1.223   7.566   2.011 -0.3478  0.3406 -1.4006
   13MOL    H36 9420   0.822   7.191   1.853 -2.1360  0.4093  0.3884
   13MOL    H37 9421   0.710   6.988   1.960  0.0341 -0.1221 -0.8035
   13MOL    H38 9422   0.910   7.083   2.334 -0.7146 -0.9997  0.1657
   13MOL    H39 9423   1.016   7.279   2.219  1.4864 -0.2787 -1.6146
   13MOL    H40 9424   0.937   7.712   2.743 -0.9348 -0.2932 -0.6481
   13MOL    C41 9425   0.356   7.465   2.272 -0.7867 -0.8245 -0.4875
   13MOL    C42 9426   0.368   7.318   2.287 -0.3058  0.5288  0.3136
   13MOL    C43 9427   0.512   7.276   2.335 -0.3301 -0.0842  0.0824
   13MOL    C44 9428   0.530   7.122   2.320 -0.3849  0.5869  0.4030
   13MOL    O45 9429   0.648   7.079   2.380 -0.2361  0.2959  0.0967
   13MOL    C46 9430   0.622   7.359   2.279  0.0615 -0.0056  0.7600
   13MOL    C47 9431   0.593   7.506   2.282  0.2719 -0.5056 -0.1381
   13MOL    C48 9432   0.469   7.533   2.202 -0.1861 -0.2728 -0.4284
   13MOL    C49 9433   0.443   7.683   2.171 -0.0833 -0.1467 -0.0428
   13MOL    O50 9434   0.455   7.764   2.286  0.1947 -0.3310  0.2725
   13MOL    C51 9435   0.345   7.818   2.338 -0.5989 -0.2299 -0.1443
   13MOL    O52 9436   0.229   7.812   2.298 -0.9253  0.1232  0.1729
   13MOL    C53 9437   0.374   7.913   2.451  0.2024 -0.2739  0.5780
   13MOL    C54 9438   0.506   7.914   2.504 -0.0107  0.1307  0.1569
   13MOL    C55 9439   0.537   7.985   2.617 -0.1930 -0.4435 -1.3013
   13MOL    C56 9440   0.434   0.031   2.673 -0.0064 -0.8495  0.3083
   13MOL    C57 9441   0.480   0.116   2.782  0.3375  0.1813 -0.1479
   13MOL    O58 9442   0.594   0.108   2.833  0.6883  0.3664 -0.2072
   13MOL    O59 9443   0.376   0.192   2.829 -0.2672 -0.1940  0.7831
   13MOL    C60 9444   0.304   0.044   2.621  0.0455 -0.0031 -0.2064
   13MOL    C61 9445   0.278   8.004   2.506  0.1414 -0.8979  0.2288
   13MOL    H62 9446   0.255   7.468   2.229 -0.1736 -0.0523 -1.9220
   13MOL    H63 9447   0.340   7.518   2.366  1.3878 -1.4539  0.2610
   13MOL    H64 9448   0.291   7.277   2.352  1.8125 -1.6533  1.5049
   13MOL    H65 9449   0.343   7.272   2.191 -1.4495  0.9835  0.3847
   13MOL    H66 9450   0.505   7.306   2.440  0.5138  0.6090 -0.0588
   13MOL    H67 9451   0.449   7.071   2.372 -1.3908 -0.5324 -2.1716
   13MOL    H68 9452   0.511   7.089   2.218 -0.1778  1.8952 -0.0603
   13MOL    H69 9453   0.699   7.327   2.349 -0.7479  0.4953  1.8988
   13MOL    H70 9454   0.644   7.330   2.177 -1.2265 -0.4579  0.6036
   13MOL    H71 9455   0.680   7.560   2.245 -0.3778  0.3755 -0.4049
   13MOL    H72 9456   0.587   7.544   2.384  0.9761  0.4122 -0.4295
   13MOL    H73 9457   0.475   7.473   2.111 -0.9135 -1.9806  0.6219
   13MOL    H74 9458   0.510   7.720   2.093  1.0411  1.7529  1.7750
   13MOL    H75 9459   0.358   7.690   2.103  0.1443 -2.6489 -0.6524
   13MOL    H76 9460   0.581   7.853   2.458 -0.2676  1.2358 -1.7706
   13MOL    H77 9461   0.633   8.005   2.663  0.0077  0.8562 -2.2506
   13MOL    H78 9462   0.229   0.107   2.668  0.2265  0.3623 -0.4079
   13MOL    H79 9463   0.177   8.001   2.468  0.9785 -0.8015 -2.0844
   13MOL    C80 9464   0.719   0.136   3.273  0.6734 -0.1650  0.2559
   13MOL    C81 9465   0.614   0.136   3.154  0.2012 -0.6068  0.5936
   13MOL    C82 9466   0.479   0.205   3.184 -1.0010 -0.6988 -0.4418
   13MOL    C83 9467   0.375   0.191   3.076  0.3675  0.2704  0.0547
   13MOL    O84 9468   0.415   0.266   2.956  0.1537 -0.0897 -0.5639
   13MOL    C85 9469   0.420   0.159   3.319 -0.3869  0.0657 -0.1227
   13MOL    C86 9470   0.527   0.170   3.430 -0.0619 -1.1668 -0.3775
   13MOL    C87 9471   0.657   0.089   3.401  0.2661 -0.2563 -0.4014
   13MOL    C88 9472   0.757   0.089   3.512 -0.1022  0.2315  0.3856
   13MOL    O89 9473   0.696   0.056   3.636 -0.4704  0.6015  0.3353
   13MOL    C90 9474   0.657   7.962   3.664  0.3560 -0.1993 -0.5644
   13MOL    O91 9475   0.677   7.864   3.596 -0.5638 -0.7011  0.4942
   13MOL    C92 9476   0.579   7.965   3.797  0.3660 -0.5851  0.3616
   13MOL    C93 9477   0.570   0.051   3.876 -0.3942  0.4139 -0.2380
   13MOL    C94 9478   0.487   0.058   3.988  0.5603  0.2311  0.7109
   13MOL    C95 9479   0.400   7.980   4.020 -0.4079 -0.0466  0.1926
   13MOL    C96 9480   0.307   7.998   4.140 -0.0895  0.5695 -0.3031
   13MOL    O97 9481   0.305   0.063   4.209 -0.2555  0.1050  0.2133
   13MOL    O98 9482   0.236   7.885   4.163  0.1988 -0.0183 -0.0250
   13MOL    C99 9483   0.414   7.865   3.940  0.6432  0.0589 -0.3496
   13MOL   C100 9484   0.501   7.858   3.831 -0.3554  0.1625  0.8102
   13MOL   H101 9485   0.807   0.078   3.246  1.5916  1.2561  0.1381
   13MOL   H102 9486   0.750   0.237   3.297 -2.2154  0.6410  0.8487
   13MOL   H103 9487   0.654   0.192   3.069 -0.6883 -2.1191 -0.8260
   13MOL   H104 9488   0.609   0.032   3.123  0.4425 -0.3037 -0.4878
   13MOL   H105 9489   0.491   0.309   3.212  0.9091 -0.9412 -0.3012
   13MOL   H106 9490   0.362   0.084   3.063  0.7789 -0.1073  2.4003
   13MOL   H107 9491   0.276   0.218   3.112 -0.5144 -0.8283 -1.5362
   13MOL   H108 9492   0.327   0.214   3.335  0.5261  2.3192 -2.1467
   13MOL   H109 9493   0.393   0.055   3.305 -0.6148 -0.0594  1.2432
   13MOL   H110 9494   0.477   0.154   3.526  1.7334 -2.0320  0.4432
   13MOL   H111 9495   0.576   0.267   3.432 -0.5117 -0.9376  2.2916
   13MOL   H112 9496   0.630   8.020   3.388 -2.9558  0.5519 -0.6964
   13MOL   H113 9497   0.841   0.023   3.486 -0.2318  0.6667 -1.1550
   13MOL   H114 9498   0.789   0.192   3.526 -0.5104  0.0736  2.6160
   13MOL   H115 9499   0.620   0.141   3.843  0.0625 -0.0139 -0.7222
   13MOL   H116 9500   0.483   0.149   4.047 -2.2137 -0.7159  2.0798
   13MOL   H117 9501   0.359   7.776   3.965  0.8113  0.1012  0.1829
   13MOL   H118 9502   0.496   7.774   3.763  2.5078  0.2100  0.5052
   13MOL   C119 9503   7.941   8.032   4.617 -0.2208  0.2161 -0.5811
   13MOL   C120 9504   8.033   8.018   4.493  0.0006  0.2320 -0.0210
   13MOL   C121 9505   7.993   7.892   4.416  0.0994 -0.3266  0.7589
   13MOL   C122 9506   0.029   7.888   4.279 -0.3849  0.3792  0.2120
   13MOL   O123 9507   0.170   7.874   4.300  0.0467 -1.1692  0.9141
   13MOL   C124 9508   8.018   7.768   4.501  0.1562  0.4642 -0.1189
   13MOL   C125 9509   7.939   7.786   4.630 -0.0203 -0.1668  0.0043
   13MOL   C126 9510   7.959   7.910   4.707  0.0092 -0.1212  0.6528
   13MOL   C127 9511   7.865   7.930   4.831  0.0895 -0.2089  0.7766
   13MOL   O128 9512   7.730   7.959   4.780 -0.1257  0.0979 -0.6328
   13MOL   C129 9513   7.625   7.887   4.817  0.5554  0.0148  0.0254
   13MOL   O130 9514   7.617   7.816   4.914 -0.3354  0.0075  0.4254
   13MOL   C131 9515   7.510   7.912   4.727  0.1628 -0.5474 -0.2312
   13MOL   C132 9516   7.531   7.970   4.598  0.1951  0.2638  0.0092
   13MOL   C133 9517   7.423   7.987   4.510 -0.1697 -0.0875 -0.2745
   13MOL   C134 9518   7.292   7.951   4.559 -0.0696 -0.1468  0.2724
   13MOL   C135 9519   7.182   7.951   4.467  0.6616  0.3101  0.9244
   13MOL   O136 9520   7.083   7.880   4.480 -0.1838 -0.3350 -0.3840
   13MOL   O137 9521   7.188   0.014   4.373  0.1953  0.2103  0.0232
   13MOL   C138 9522   7.275   7.885   4.676  0.2732  0.1159 -0.6540
   13MOL   C139 9523   7.382   7.867   4.770  0.5674  0.1472 -0.3603
   13MOL   H140 9524   7.965   0.086   4.675  0.3752  0.6191 -1.4282
   13MOL   H141 9525   7.840   0.012   4.577 -0.3851 -0.9854 -0.6423
   13MOL   H142 9526   8.023   0.077   4.439 -0.1804 -0.7290 -1.7149
   13MOL   H143 9527   0.102   8.014   4.524 -0.1724  0.8149  0.6382
   13MOL   H144 9528   7.885   7.896   4.401  0.1926 -1.8054 -0.5401
   13MOL   H145 9529   8.033   7.797   4.229 -3.4488  1.5342 -0.0791
   13MOL   H146 9530   8.033   7.976   4.224 -2.5502  0.4810  1.5707
   13MOL   H147 9531   7.980   7.681   4.448  1.6454  0.1905 -0.7664
   13MOL   H148 9532   0.090   7.749   4.512  0.4224  1.7495 -0.4984
   13MOL   H149 9533   7.934   7.696   4.691 -2.2748  0.3360  0.6271
   13MOL   H150 9534   7.833   7.793   4.607 -1.3641 -1.4219  5.0360
   13MOL   H151 9535   0.026   7.912   4.744  0.2644  2.6145 -0.0446
   13MOL   H152 9536   7.855   7.841   4.893  1.3880 -2.1349 -1.7439
   13MOL   H153 9537   7.915   8.004   4.893  0.1665  0.2545  0.1650
   13MOL   H154 9538   7.633   7.998   4.577 -0.6088  3.2425 -0.1449
   13MOL   H155 9539   7.439   8.026   4.411  2.2641  0.0908  0.1787
   13MOL   H156 9540   7.181   7.845   4.711 -0.3789  2.3002  0.1043
   13MOL   H157 9541   7.370   7.815   4.864  0.8231 -1.3486 -1.1338
   13MOL   C158 9542   7.040   0.232   3.887 -0.0045  0.3518  0.6911
   13MOL   C159 9543   7.089   0.174   4.018 -0.1666  0.1322  0.1104
   13MOL   C160 9544   7.033   0.036   4.040 -0.2446 -0.1170  0.0299
   13MOL   C161 9545   7.101   7.997   4.155  0.7118 -0.0467 -0.3034
   13MOL   O162 9546   7.064   0.017   4.282  0.1656 -0.0497 -0.6340
   13MOL   C163 9547   6.884   0.037   4.026 -0.0917 -0.1061 -0.2364
   13MOL   C164 9548   6.829   0.095   3.893  0.0795  0.2357  0.0719
   13MOL   C165 9549   6.885   0.236   3.878  0.0966  0.8877 -0.2181
   13MOL   C166 9550   6.820   0.300   3.753 -0.9344  0.3405  0.3934
   13MOL   O167 9551   6.678   0.301   3.746  0.4614 -0.0620  0.3541
   13MOL   C168 9552   6.614   0.337   3.638  0.4036  0.4542 -0.2027
   13MOL   O169 9553   6.670   0.344   3.531 -0.3560 -0.3927 -0.2141
   13MOL   C170 9554   6.460   0.340   3.673 -0.0069 -0.8193 -0.8672
   13MOL   C171 9555   6.369   0.343   3.565 -0.7555  0.6097 -0.6098
   13MOL   C172 9556   6.230   0.339   3.589 -0.1589 -1.0881 -0.0098
   13MOL   C173 9557   6.182   0.324   3.719 -0.3167 -1.1904 -0.6755
   13MOL   C174 9558   6.036   0.319   3.738 -0.2038  0.6521 -0.2367
   13MOL   O175 9559   5.961   0.306   3.640  0.5210  0.4866 -0.5953
   13MOL   O176 9560   5.988   0.313   3.872  0.6259 -0.7710  0.4808
   13MOL   C177 9561   6.271   0.313   3.828  0.3997  0.2121 -0.4299
   13MOL   C178 9562   6.413   0.332   3.808  0.2557 -0.3667  0.5899
   13MOL   H179 9563   7.093   0.327   3.885  0.4212  0.1262  1.0772
   13MOL   H180 9564   7.069   0.163   3.807 -1.5800  0.1631  0.2752
   13MOL   H181 9565   7.198   0.178   4.009  0.1385 -2.0494  2.4085
   13MOL   H182 9566   7.059   0.236   4.102 -0.8130  0.5511 -0.4266
   13MOL   H183 9567   7.069   8.021   3.950 -0.2818  0.4539 -0.3077
   13MOL   H184 9568   7.085   7.889   4.143  1.0477 -0.1594  0.2436
   13MOL   H185 9569   7.210   7.996   4.151  0.7096 -0.1384 -0.3145
   13MOL   H186 9570   6.838   7.975   4.040 -0.5623  0.1361 -0.0614
   13MOL   H187 9571   6.857   0.099   4.112  0.0274  0.6615 -0.7479
   13MOL   H188 9572   6.720   0.102   3.891 -0.0823 -1.9484  0.1568
   13MOL   H189 9573   6.853   0.030   3.810  1.0165 -2.5876  2.4780
   13MOL   H190 9574   6.840   0.303   3.952  0.8542 -0.8201  1.8621
   13MOL   H191 9575   6.858   0.402   3.748 -1.3776  0.4355 -1.2093
   13MOL   H192 9576   6.845   0.250   3.659 -1.1012  0.7333  0.1397
   13MOL   H193 9577   6.416   0.348   3.468 -1.6586 -0.7403 -1.1389
   13MOL   H194 9578   6.161   0.352   3.507  1.7463 -0.2426 -1.5412
   13MOL   H195 9579   6.237   0.293   3.928  0.0283  1.1996 -0.3538
   13MOL   H196 9580   6.481   0.323   3.891 -0.6844  1.2182  1.5517
   13MOL   C197 9581   5.996   0.663   4.115 -0.4227  0.8955  0.3796
   13MOL   C198 9582   5.972   0.561   4.005  0.0368  0.1977  0.4534
   13MOL   C199 9583   5.824   0.546   3.980 -0.5689  0.1621  0.0717
   13MOL   C200 9584   5.791   0.458   3.859  0.5160 -0.1348  0.4634
   13MOL   O201 9585   5.839   0.321   3.885  0.7973  0.3699 -0.1252
   13MOL   C202 9586   5.760   0.500   4.105  0.1051  0.5286  0.4163
   13MOL   C203 9587   5.773   0.585   4.228 -0.7581 -0.0009  0.8515
   13MOL   C204 9588   5.921   0.622   4.247  0.4023  0.7202 -0.9067
   13MOL   C205 9589   5.952   0.737   4.346 -0.7676  0.3000  0.2590
   13MOL   O206 9590   6.082   0.711   4.404  0.5505  0.1912 -0.8034
   13MOL   C207 9591   6.134   0.815   4.467 -0.2968  0.7866  0.4987
   13MOL   O208 9592   6.075   0.912   4.524 -0.4717  0.3202  0.2661
   13MOL   C209 9593   6.283   0.801   4.478 -0.9821 -0.3505  0.3348
   13MOL   C210 9594   6.356   0.691   4.423  0.1077 -0.1171 -0.3921
   13MOL   C211 9595   6.496   0.690   4.429 -0.3329 -0.3588  0.6248
   13MOL   C212 9596   6.574   0.792   4.494  0.0359 -0.0772  0.5394
   13MOL   C213 9597   6.723   0.792   4.495  0.1273 -0.8312  0.9857
   13MOL   O214 9598   6.794   0.875   4.558 -0.3914 -0.0689 -0.1250
   13MOL   O215 9599   6.783   0.696   4.411 -0.2272  0.6038 -0.0818
   13MOL   C216 9600   6.507   0.902   4.547  0.1113  0.2701  0.2372
   13MOL   C217 9601   6.366   0.901   4.541  0.5224  0.5642 -0.3476
   13MOL   H218 9602   6.101   0.666   4.145 -0.8971 -2.4492  2.6559
   13MOL   H219 9603   5.973   0.762   4.075 -0.1249  0.5753 -0.5902
   13MOL   H220 9604   6.018   0.590   3.910  0.4095 -1.0109  0.2606
   13MOL   H221 9605   6.022   0.467   4.027 -0.7558 -0.3371  0.0305
   13MOL   H222 9606   5.799   0.650   3.964  2.1924  0.8263 -0.0695
   13MOL   H223 9607   5.683   0.472   3.848  0.6087 -1.0629 -1.9505
   13MOL   H224 9608   5.819   0.503   3.764 -1.1094  0.3398  0.1879
   13MOL   H225 9609   5.655   0.491   4.077  0.7726 -0.2387 -1.9839
   13MOL   H226 9610   5.786   0.397   4.128 -2.5786 -0.6997 -1.7735
   13MOL   H227 9611   5.742   0.520   4.310 -0.6478  0.0402  0.9266
   13MOL   H228 9612   5.702   0.667   4.228 -1.0746 -0.2624 -0.9163
   13MOL   H229 9613   5.975   0.534   4.282 -0.7225  0.6666  0.7617
   13MOL   H230 9614   5.952   0.839   4.310  1.0106  0.7136  1.3631
   13MOL   H231 9615   5.883   0.730   4.431  0.5850  0.0240  1.3607
   13MOL   H232 9616   6.297   0.610   4.383 -0.5078 -0.3390  0.9276
   13MOL   H233 9617   6.556   0.610   4.387  0.7242 -0.8022  2.8894
   13MOL   H234 9618   6.559   0.988   4.586  2.2822 -0.3721 -1.1341
   13MOL   H235 9619   6.313   0.984   4.584 -0.6762 -0.2331 -0.2359
   13MOL   C236 9620   7.255   0.817   4.681 -0.1610 -0.3922 -0.3478
   13MOL   C237 9621   7.109   0.773   4.626 -0.6990  0.5845  0.0582
   13MOL   C238 9622   7.109   0.630   4.596 -0.5338  0.7282  0.0665
   13MOL   C239 9623   6.971   0.596   4.533 -0.4039  0.0906  0.1376
   13MOL   O240 9624   6.933   0.678   4.423  0.1242  0.3052 -0.3572
   13MOL   C241 9625   7.227   0.603   4.499 -0.3311  0.0292 -0.1291
   13MOL   C242 9626   7.360   0.640   4.554  0.0630  0.5025 -0.3045
   13MOL   C243 9627   7.371   0.785   4.584 -0.0347 -0.1755  0.1956
   13MOL   C244 9628   7.499   0.830   4.654 -0.8713  0.1817  0.3741
   13MOL   O245 9629   7.615   0.850   4.578  0.0006 -0.2072  0.0409
   13MOL   C246 9630   7.633   0.924   4.471  0.7265 -0.5819  0.1186
   13MOL   O247 9631   7.540   0.980   4.416 -0.8746 -0.3653  0.1408
   13MOL   C248 9632   7.775   0.931   4.418  0.2866  0.1149  0.2197
   13MOL   C249 9633   7.881   0.869   4.487 -0.2256 -0.2610 -0.5156
   13MOL   C250 9634   8.013   0.891   4.443 -0.0149  0.2117 -0.0646
   13MOL   C251 9635   0.005   0.970   4.329  0.5307 -0.1249  0.8232
   13MOL   C252 9636   0.144   0.983   4.269  0.4848  0.4478 -0.3748
   13MOL   O253 9637   0.168   1.061   4.181 -0.0649  0.0691 -0.0979
   13MOL   O254 9638   0.237   0.901   4.323 -0.3484  0.5323 -0.0589
   13MOL   C255 9639   7.938   1.041   4.266  0.4075  0.5001  0.0166
   13MOL   C256 9640   7.808   1.020   4.309  0.8415  0.2359  0.0061
   13MOL   H257 9641   7.246   0.923   4.707  0.0188 -0.3306 -0.5342
   13MOL   H258 9642   7.275   0.762   4.773 -2.4797 -0.4236  0.1782
   13MOL   H259 9643   7.033   0.792   4.702  0.5858  1.5598  1.1386
   13MOL   H260 9644   7.084   0.833   4.539  1.0534 -0.8090 -1.4449
   13MOL   H261 9645   7.121   0.573   4.688 -1.4791  0.0880 -0.1993
   13MOL   H262 9646   6.966   0.491   4.506 -1.1278  0.7900 -2.6039
   13MOL   H263 9647   6.895   0.611   4.609  0.0721  0.7049  0.4997
   13MOL   H264 9648   7.225   0.496   4.475  1.7212 -0.4439  1.6744
   13MOL   H265 9649   7.215   0.666   4.412 -0.0017  0.5840  0.2265
   13MOL   H266 9650   7.428   0.615   4.473 -0.5051 -0.2010 -0.5674
   13MOL   H267 9651   7.384   0.584   4.644  0.8871  3.1773  1.2117
   13MOL   H268 9652   7.346   0.836   4.491  0.1310 -2.1472 -0.9523
   13MOL   H269 9653   7.495   0.927   4.705  0.6339  0.4559 -0.0057
   13MOL   H270 9654   7.527   0.761   4.734  0.8966  2.1998  1.5464
   13MOL   H271 9655   7.864   0.797   4.566  0.0566 -0.3209 -0.5068
   13MOL   H272 9656   0.057   0.842   4.498  0.9017  1.2795 -0.4045
   13MOL   H273 9657   7.964   1.096   4.177  2.5618 -0.7527 -0.1481
   13MOL   H274 9658   7.729   1.078   4.262 -0.6217 -0.3301  1.7138
   13MOL   C275 9659   0.539   0.476   4.151 -0.9181 -0.6224  0.7446
   13MOL   C276 9660   0.463   0.597   4.113 -0.1327 -0.0676  0.5447
   13MOL   C277 9661   0.471   0.704   4.221  0.2276 -1.2218  0.8785
   13MOL   C278 9662   0.398   0.833   4.179 -0.1775 -0.2826 -0.7951
   13MOL   O279 9663   0.381   0.932   4.274  0.1232  0.0014 -0.6278
   13MOL   C280 9664   0.412   0.645   4.345 -0.4113  1.0913  0.1653
   13MOL   C281 9665   0.477   0.512   4.386  0.4859 -0.1482  0.1740
   13MOL   C282 9666   0.482   0.404   4.272  0.5594 -0.0127 -0.2609
   13MOL   C283 9667   0.579   0.291   4.302  0.9217 -0.5721  0.0595
   13MOL   O284 9668   0.521   0.191   4.384  0.5737  0.0891  0.5347
   13MOL   C285 9669   0.603   0.128   4.467 -0.0989 -0.6072  0.8483
   13MOL   O286 9670   0.722   0.159   4.475  0.0982  0.4582 -0.3651
   13MOL   C287 9671   0.537   0.027   4.551  0.5885  0.2738 -0.1771
   13MOL   C288 9672   0.610   8.023   4.667 -0.1792  0.2705  0.0882
   13MOL   C289 9673   0.541   7.950   4.762 -0.7064 -0.4384 -0.2503
   13MOL   C290 9674   0.421   7.892   4.736  0.2748  0.6731  0.1036
   13MOL   C291 9675   0.363   7.795   4.825 -0.0674  0.1106  0.2494
   13MOL   O292 9676   0.276   7.722   4.785 -0.4750  0.5138  0.2687
   13MOL   O293 9677   0.426   7.777   4.947  0.9221  0.8623  0.1308
   13MOL   C294 9678   0.352   7.918   4.616  0.0732  0.3142 -0.2058
   13MOL   C295 9679   0.413   8.004   4.519  1.2463  0.7847 -0.2364
   13MOL   H296 9680   0.545   0.420   4.058  3.0331  0.0283  0.5355
   13MOL   H297 9681   0.644   0.501   4.165 -0.6218 -0.7518 -1.1402
   13MOL   H298 9682   0.511   0.641   4.025 -1.6413 -1.8911 -1.2630
   13MOL   H299 9683   0.359   0.567   4.106  0.2585 -1.4121  0.2497
   13MOL   H300 9684   0.574   0.720   4.250  0.4531  4.3381 -2.4067
   13MOL   H301 9685   0.469   0.884   4.114  0.0832  0.7650  0.2834
   13MOL   H302 9686   0.308   0.825   4.118 -0.2190  2.0787 -1.0868
   13MOL   H303 9687   0.425   0.722   4.422  1.3002 -0.8163  1.8710
   13MOL   H304 9688   0.304   0.639   4.335 -0.0079 -0.3961 -4.1260
   13MOL   H305 9689   0.429   0.460   4.469 -0.1177  0.2640  0.0882
   13MOL   H306 9690   0.580   0.533   4.416  0.7752  1.2194 -1.7050
   13MOL   H307 9691   0.381   0.373   4.247 -0.0586 -0.5199  2.6146
   13MOL   H308 9692   0.590   0.238   4.207  2.0689  3.8908 -2.4510
   13MOL   H309 9693   0.672   0.335   4.335 -0.6758  1.8647  1.4509
   13MOL   H310 9694   0.709   0.027   4.688  0.1635 -0.6214  0.1641
   13MOL   H311 9695   0.592   7.919   4.852  1.2837 -1.0460 -1.5487
   13MOL   H312 9696   0.258   7.868   4.592  0.1001  0.3680 -0.4270
   13MOL   H313 9697   0.356   8.023   4.429  0.3483 -1.5898 -0.2293
   13MOL   C314 9698   0.114   7.464   5.330 -0.7153 -0.1600  0.4070
   13MOL   C315 9699   0.138   7.559   5.212 -0.7492  1.0452 -0.2511
   13MOL   C316 9700   0.244   7.665   5.246 -0.3129 -0.3088 -0.5519
   13MOL   C317 9701   0.282   7.757   5.130  0.3972 -0.1587  0.1108
   13MOL   O318 9702   0.351   7.683   5.039 -0.2720 -0.4043  0.8126
   13MOL   C319 9703   0.193   7.739   5.368 -0.1470  0.1776 -0.3772
   13MOL   C320 9704   0.165   7.651   5.489  0.1835  0.5429 -0.3566
   13MOL   C321 9705   0.063   7.536   5.458  0.0745 -0.7389 -0.0068
   13MOL   C322 9706   0.045   7.440   5.583 -0.0822 -0.4930  0.4357
   13MOL   O323 9707   7.967   7.353   5.565  0.0144  0.7714 -0.6169
   13MOL   C324 9708   7.934   7.268   5.666  0.4928 -0.4112 -0.2477
   13MOL   O325 9709   7.991   7.278   5.772  0.2828  0.4202  0.1507
   13MOL   C326 9710   7.824   7.179   5.641  0.2409  0.1142  0.2212
   13MOL   C327 9711   7.786   7.081   5.738 -0.4093 -0.0472  0.6887
   13MOL   C328 9712   7.680   6.992   5.709  0.9630  0.2787  0.1473
   13MOL   C329 9713   7.619   6.991   5.582 -0.0120 -0.4462  0.0878
   13MOL   C330 9714   7.506   6.891   5.546  0.0546 -0.0131  0.2411
   13MOL   O331 9715   7.451   6.889   5.435 -0.4426 -0.7026 -0.2092
   13MOL   O332 9716   7.467   6.823   5.649  0.3534  0.0675  0.0526
   13MOL   C333 9717   7.650   7.089   5.483 -0.5224 -0.1893  0.3790
   13MOL   C334 9718   7.756   7.180   5.510  0.1845 -0.5959 -0.3502
   13MOL   H335 9719   0.032   7.401   5.296 -0.0246 -0.3088 -1.0301
   13MOL   H336 9720   0.202   7.401   5.343 -2.2863 -2.4536  0.1968
   13MOL   H337 9721   0.171   7.497   5.130 -2.8639 -1.1696  0.5196
   13MOL   H338 9722   0.051   7.609   5.169  0.6125  0.5780 -3.6696
   13MOL   H339 9723   0.330   7.600   5.261 -1.2580 -1.4298  0.0914
   13MOL   H340 9724   0.200   7.811   5.082  0.7773  0.8217  0.5521
   13MOL   H341 9725   0.351   7.831   5.170  0.7083  0.2389 -1.1320
   13MOL   H342 9726   0.271   7.807   5.403  1.1651 -1.5250  0.0605
   13MOL   H343 9727   0.103   7.795   5.343 -0.3264  0.2582  0.4344
   13MOL   H344 9728   0.127   7.710   5.572 -0.5804 -1.7897  0.9965
   13MOL   H345 9729   0.259   7.609   5.525  0.5124 -0.0529 -1.8814
   13MOL   H346 9730   8.001   7.573   5.426  0.3866 -0.5942 -0.8265
   13MOL   H347 9731   0.128   7.377   5.612  0.1072  0.7019  2.5404
   13MOL   H348 9732   0.024   7.500   5.671 -1.1430  0.1402 -0.2289
   13MOL   H349 9733   7.835   7.072   5.834 -1.2662  2.6754  1.4295
   13MOL   H350 9734   7.653   6.918   5.783  0.9193  0.1098 -0.0362
   13MOL   H351 9735   7.594   7.100   5.391  0.1237  0.5878  0.0798
   13MOL   H352 9736   7.780   7.258   5.440  0.2099  0.4702  0.8177
   13MOL   C353 9737   7.182   6.285   5.667  0.0458  0.3913 -0.6398
   13MOL   C354 9738   7.303   6.375   5.652  0.1669 -0.9395 -1.1243
   13MOL   C355 9739   7.260   6.522   5.618 -0.7652  0.1355  0.1881
   13MOL   C356 9740   7.386   6.613   5.592 -0.1054  0.6626 -0.5524
   13MOL   O357 9741   7.348   6.743   5.619  0.5171  0.3373  0.1921
   13MOL   C358 9742   7.174   6.522   5.487 -0.1859  0.1159  0.4743
   13MOL   C359 9743   7.053   6.425   5.500 -0.8846 -0.5325 -0.8518
   13MOL   C360 9744   7.098   6.277   5.540 -0.0135 -0.0608 -0.1629
   13MOL   C361 9745   6.977   6.176   5.559  0.5383 -0.4138  0.0391
   13MOL   O362 9746   7.030   6.051   5.590  0.0873  0.1723  0.0651
   13MOL   C363 9747   7.022   5.949   5.505 -0.4873  0.8198  0.8831
   13MOL   O364 9748   6.966   5.951   5.393 -0.3520  0.0051 -0.0727
   13MOL   C365 9749   7.100   5.832   5.552  0.0558 -0.4963  0.4071
   13MOL   C366 9750   7.121   5.808   5.686 -1.1428  0.0410  0.6965
   13MOL   C367 9751   7.214   5.704   5.719  0.3214  0.1906 -0.2015
   13MOL   C368 9752   7.277   5.624   5.626  0.5496 -0.2467 -0.3465
   13MOL   C369 9753   7.393   5.531   5.667  1.0784 -0.0152  0.0429
   13MOL   O370 9754   7.420   5.493   5.779 -0.2301 -0.1650 -0.0481
   13MOL   O371 9755   7.466   5.479   5.562  0.3990  0.3258 -0.0859
   13MOL   C372 9756   7.245   5.643   5.492  0.0911  0.2193 -0.4772
   13MOL   C373 9757   7.159   5.748   5.456 -0.0274 -0.3335 -0.4093
   13MOL   H374 9758   7.211   6.185   5.699  0.6556  1.0070  0.7487
   13MOL   H375 9759   7.117   6.311   5.750 -1.0417 -0.5753 -1.1799
   13MOL   H376 9760   7.349   6.388   5.750 -0.0605 -0.8224 -1.0323
   13MOL   H377 9761   7.374   6.341   5.576  0.0291 -1.8981 -0.8302
   13MOL   H378 9762   7.212   6.576   5.699 -2.2445 -0.0227 -0.5623
   13MOL   H379 9763   7.463   6.587   5.665  2.3814 -0.2184 -3.3740
   13MOL   H380 9764   7.426   6.599   5.492  0.3761  0.7920 -0.3816
   13MOL   H381 9765   7.148   6.622   5.454  0.5425 -0.4229 -1.8181
   13MOL   H382 9766   7.238   6.498   5.402  0.1937 -1.7000  1.2340
   13MOL   H383 9767   6.995   6.426   5.407 -2.2840  1.1985  0.0042
   13MOL   H384 9768   6.981   6.467   5.571  0.5792  2.3947 -1.0059
   13MOL   H385 9769   7.151   6.235   5.454 -1.3167 -2.2460  0.0675
   13MOL   H386 9770   6.904   6.207   5.633  1.6580  1.8798  0.2181
   13MOL   H387 9771   6.922   6.181   5.465  1.1934 -0.2337 -0.3374
   13MOL   H388 9772   7.098   5.892   5.751 -1.0448  0.9449 -0.4277
   13MOL   H389 9773   7.252   5.705   5.820  3.0925 -0.2935 -1.2012
   13MOL   H390 9774   7.298   5.592   5.413  0.2522 -0.8433  0.3139
   13MOL   H391 9775   7.138   5.751   5.350  2.8586 -0.1352 -1.0065
   13MOL   C392 9776   7.821   5.430   5.286 -0.2277  0.2809  1.0353
   13MOL   C393 9777   7.756   5.358   5.404 -0.1085 -1.0119  0.3444
   13MOL   C394 9778   7.748   5.465   5.516 -0.4548  0.4090 -0.2539
   13MOL   C395 9779   7.669   5.408   5.635 -0.3985 -0.3486  0.0866
   13MOL   O396 9780   7.544   5.363   5.597  0.2429 -0.6214  0.2738
   13MOL   C397 9781   7.880   5.518   5.553 -0.6450  0.2815 -0.9581
   13MOL   C398 9782   7.956   5.583   5.434 -0.8407 -0.1642 -0.3505
   13MOL   C399 9783   7.962   5.487   5.309  0.6698 -0.9276 -0.0351
   13MOL   C400 9784   8.021   5.554   5.185  0.2847 -0.3845  0.0020
   13MOL   O401 9785   8.004   5.459   5.075 -0.4267  0.3107  0.5373
   13MOL   C402 9786   7.986   5.499   4.948  0.5501 -0.5302 -0.2173
   13MOL   O403 9787   8.009   5.609   4.896 -0.0223  0.2838 -0.0944
   13MOL   C404 9788   7.970   5.379   4.856  0.0999  0.2024  0.1368
   13MOL   C405 9789   7.998   5.392   4.715 -0.2364 -0.0460  0.2271
   13MOL   C406 9790   7.985   5.281   4.630  0.1057  0.4583  0.4763
   13MOL   C407 9791   7.931   5.156   4.680  0.3622  0.1985 -0.6904
   13MOL   C408 9792   7.897   5.053   4.586 -0.0915  0.0779 -0.1988
   13MOL   O409 9793   7.901   5.070   4.462 -0.0285  0.3122  0.0655
   13MOL   O410 9794   7.864   4.930   4.643  0.0689 -0.2300  0.1319
   13MOL   C411 9795   7.902   5.143   4.818 -0.0499 -0.9065 -0.1050
   13MOL   C412 9796   7.927   5.253   4.907  0.2655  0.2963  0.0430
   13MOL   H413 9797   7.815   5.371   5.195 -0.6719 -0.1994  1.3694
   13MOL   H414 9798   7.752   5.510   5.260 -1.4821 -1.4193 -0.9931
   13MOL   H415 9799   7.651   5.334   5.385 -0.8714 -0.3840  3.4955
   13MOL   H416 9800   7.801   5.261   5.424 -0.4484 -0.9533  1.4081
   13MOL   H417 9801   7.684   5.543   5.475 -0.5890 -0.6848 -2.1901
   13MOL   H418 9802   7.714   5.316   5.672  0.9628  1.1002  2.1460
   13MOL   H419 9803   7.652   5.480   5.715 -0.6485 -0.1883 -0.1095
   13MOL   H420 9804   7.878   5.590   5.635  0.3630 -1.4498  0.6280
   13MOL   H421 9805   7.946   5.447   5.602 -2.7084 -1.3252 -0.4677
   13MOL   H422 9806   0.024   5.597   5.466 -1.1234 -0.0550  0.5299
   13MOL   H423 9807   7.907   5.678   5.412 -0.8195 -0.2308 -0.6888
   13MOL   H424 9808   8.019   5.396   5.327  2.2164 -0.0093 -0.1768
   13MOL   H425 9809   7.970   5.648   5.164  0.2089 -0.3978  0.1257
   13MOL   H426 9810   0.090   5.575   5.208  0.3684 -1.1109  0.3219
   13MOL   H427 9811   8.025   5.489   4.677 -5.5308  1.7279  0.5485
   13MOL   H428 9812   8.012   5.305   4.529  0.9813  3.1290  1.2919
   13MOL   H429 9813   7.864   5.053   4.865 -0.7706 -1.1958 -1.2167
   13MOL   H430 9814   7.897   5.243   5.010  0.5141 -2.9541 -0.1432
   13MOL   C431 9815   7.522   4.498   4.371 -0.1492 -0.1277 -0.2928
   13MOL   C432 9816   7.552   4.638   4.411  0.8281 -0.1016 -0.0482
   13MOL   C433 9817   7.700   4.656   4.451  0.2206 -0.2670 -0.6735
   13MOL   C434 9818   7.719   4.791   4.515  0.0331  0.3064 -0.4009
   13MOL   O435 9819   7.860   4.816   4.544  0.6356  0.1508 -0.3562
   13MOL   C436 9820   7.745   4.539   4.540 -0.6905 -0.0900 -0.5676
   13MOL   C437 9821   7.724   4.399   4.469  0.5124 -1.3473 -0.3655
   13MOL   C438 9822   7.572   4.377   4.444 -0.3152 -0.6185  0.3438
   13MOL   C439 9823   7.554   4.243   4.371  0.0256 -0.1945  0.4565
   13MOL   O440 9824   7.607   4.245   4.236 -0.4759 -0.5175  0.0871
   13MOL   C441 9825   7.597   4.127   4.164  0.2704  0.2877 -0.0787
   13MOL   O442 9826   7.507   4.041   4.173  0.2645 -0.0951  0.4986
   13MOL   C443 9827   7.687   4.126   4.055 -0.1311 -0.4855 -0.0875
   13MOL   C444 9828   7.785   4.225   4.036 -0.5282  0.1976  0.3109
   13MOL   C445 9829   7.879   4.217   3.928 -0.6240 -0.2542 -0.2943
   13MOL   C446 9830   7.870   4.112   3.838  0.4084  0.1043  0.4700
   13MOL   C447 9831   7.970   4.100   3.729 -0.4417 -0.3259  0.2530
   13MOL   O448 9832   0.049   4.153   3.745  0.0209  0.5601 -0.2853
   13MOL   O449 9833   7.931   4.034   3.620  0.6443  0.3900  0.5052
   13MOL   C450 9834   7.766   4.016   3.846 -0.8428  0.4708 -0.3953
   13MOL   C451 9835   7.685   4.019   3.959  0.3635 -0.5580 -0.0482
   13MOL   H452 9836   7.417   4.480   4.347  0.0608 -0.4814 -0.9447
   13MOL   H453 9837   7.564   4.500   4.271  1.6009  1.6095  0.4376
   13MOL   H454 9838   7.524   4.718   4.342 -1.6450 -0.5804  0.3449
   13MOL   H455 9839   7.490   4.662   4.497 -0.1199 -1.8525 -0.2286
   13MOL   H456 9840   7.760   4.652   4.360 -0.5605 -2.0522 -1.1296
   13MOL   H457 9841   7.685   4.861   4.438 -0.2072 -0.5141 -1.0379
   13MOL   H458 9842   7.651   4.806   4.600  0.5486 -1.4092  0.3341
   13MOL   H459 9843   7.850   4.556   4.561 -0.9705  0.3684  0.4810
   13MOL   H460 9844   7.683   4.535   4.630 -0.1559  1.7064 -0.0908
   13MOL   H461 9845   7.768   4.315   4.522 -2.6054 -1.8796  1.4719
   13MOL   H462 9846   7.780   4.407   4.375  2.4221  0.3377  0.8666
   13MOL   H463 9847   7.529   4.371   4.544 -1.1937 -0.6570 -0.0274
   13MOL   H464 9848   7.581   4.156   4.431  0.0418 -1.4379 -1.2886
   13MOL   H465 9849   7.448   4.217   4.369 -0.1016  0.2706  1.0810
   13MOL   H466 9850   7.799   4.304   4.109 -0.2611 -1.3795  2.0208
   13MOL   H467 9851   7.956   4.293   3.917  1.2439 -1.5896  2.8813
   13MOL   H468 9852   7.754   3.941   3.770  0.2039  0.9894 -1.0886
   13MOL   H469 9853   7.605   3.948   3.972  0.1094 -0.0413  1.2166
   13MOL   C470 9854   7.755   4.121   3.183 -0.5019 -0.2218 -0.4420
   13MOL   C471 9855   7.860   4.051   3.275 -0.0774  0.3606 -0.6781
   13MOL   C472 9856   7.944   4.150   3.350 -0.2625 -0.4714  0.0188
   13MOL   C473 9857   0.022   4.087   3.427  0.1901 -0.6509  0.0874
   13MOL   O474 9858   8.033   3.984   3.518  0.0102  0.4208  0.3475
   13MOL   C475 9859   8.002   4.260   3.254 -0.2251 -0.5539  0.3364
   13MOL   C476 9860   7.890   4.334   3.178  0.4426 -0.4050  0.3089
   13MOL   C477 9861   7.815   4.228   3.089  0.8861 -0.0178 -0.4173
   13MOL   C478 9862   7.714   4.288   2.985 -0.3742  0.1504  0.0802
   13MOL   O479 9863   7.606   4.355   3.044 -0.0990  0.6468  0.2248
   13MOL   C480 9864   7.482   4.299   3.029 -0.0046  0.0870  0.2534
   13MOL   O481 9865   7.465   4.178   3.000 -0.4706  0.0611 -0.3849
   13MOL   C482 9866   7.370   4.392   3.047 -0.5137  0.1521 -0.0637
   13MOL   C483 9867   7.384   4.523   3.084  0.7059 -0.0707  0.1481
   13MOL   C484 9868   7.274   4.614   3.104 -0.4405  0.2417  0.2485
   13MOL   C485 9869   7.145   4.564   3.080  0.1937  0.1020  0.1685
   13MOL   C486 9870   7.025   4.646   3.079  0.3981  1.0411 -0.4965
   13MOL   O487 9871   6.915   4.596   3.045 -0.3387  0.2678 -0.0949
   13MOL   O488 9872   7.057   4.778   3.063  0.2473 -0.1610 -0.4718
   13MOL   C489 9873   7.131   4.427   3.053  0.2702 -0.3035 -0.3938
   13MOL   C490 9874   7.239   4.344   3.028  0.1322 -0.1997 -0.2959
   13MOL   H491 9875   7.697   4.044   3.133 -1.4640 -0.3392  0.8149
   13MOL   H492 9876   7.676   4.174   3.236  2.0240  2.2239  1.0478
   13MOL   H493 9877   7.806   3.980   3.338  1.0453 -2.0702 -2.3463
   13MOL   H494 9878   7.928   3.986   3.218  0.4512 -1.2526  1.7078
   13MOL   H495 9879   7.868   4.200   3.410 -0.6424 -0.2238 -0.6589
   13MOL   H496 9880   0.088   4.047   3.350 -1.4903 -1.0483 -1.1700
   13MOL   H497 9881   0.077   4.163   3.482  0.6988  0.4226 -1.8570
   13MOL   H498 9882   0.036   4.331   3.299  0.9182 -1.6504  0.3314
   13MOL   H499 9883   0.033   4.207   3.185 -0.5518  0.5446 -0.8314
   13MOL   H500 9884   7.935   4.404   3.108  1.2788 -0.8265  0.4197
   13MOL   H501 9885   7.819   4.381   3.247  0.1489 -0.1751 -0.1501
   13MOL   H502 9886   7.894   4.177   3.033  0.9940 -1.4596  1.0154
   13MOL   H503 9887   7.765   4.359   2.919  1.6241  0.3878  1.8130
   13MOL   H504 9888   7.688   4.210   2.914 -1.6636  1.3141 -0.7620
   13MOL   H505 9889   7.484   4.564   3.091  0.8006 -0.4744  1.2064
   13MOL   H506 9890   7.297   4.718   3.121 -0.3888  0.3478 -0.4615
   13MOL   H507 9891   7.033   4.383   3.038 -1.1701  2.6076  0.0579
   13MOL   H508 9892   7.220   4.244   2.994  1.1540 -1.6526  3.1826
   13MOL   C509 9893   6.761   4.968   2.554  0.0305  0.8689  0.0625
   13MOL   C510 9894   6.891   4.945   2.632 -0.2847 -0.2945 -0.0750
   13MOL   C511 9895   6.858   4.907   2.784 -0.5334  0.1903  0.6124
   13MOL   C512 9896   6.982   4.875   2.870  0.5227 -0.1097  0.2686
   13MOL   O513 9897   6.945   4.853   3.007 -0.0753 -0.1520 -0.2372
   13MOL   C514 9898   6.782   5.030   2.845  0.1375 -0.4060  0.4072
   13MOL   C515 9899   6.651   5.057   2.763  0.0503  0.6645 -0.2651
   13MOL   C516 9900   6.680   5.084   2.611 -0.1349  0.0937  0.0123
   13MOL   C517 9901   6.552   5.105   2.531 -0.9324  0.4565 -0.5803
   13MOL   O518 9902   6.499   5.230   2.576  0.4612  0.8480 -0.1416
   13MOL   C519 9903   6.488   5.336   2.498 -0.4959 -0.6200  0.0154
   13MOL   O520 9904   6.500   5.334   2.373  0.0905  0.2472 -0.1274
   13MOL   C521 9905   6.456   5.458   2.576  0.1855  0.1132  0.2661
   13MOL   C522 9906   6.410   5.574   2.509 -0.8751  0.7398 -0.5070
   13MOL   C523 9907   6.372   5.686   2.577 -0.2397 -0.0282 -0.6273
   13MOL   C524 9908   6.381   5.693   2.720 -0.3823 -0.2303 -0.1890
   13MOL   C525 9909   6.344   5.811   2.800  0.2550 -0.2523  0.3448
   13MOL   O526 9910   6.326   5.922   2.761 -0.5206  0.0917 -0.3233
   13MOL   O527 9911   6.329   5.774   2.925  0.1619 -0.0235  0.2115
   13MOL   C528 9912   6.429   5.579   2.783 -1.2841 -0.3127 -0.2745
   13MOL   C529 9913   6.473   5.468   2.714 -0.5460 -0.6264  0.0756
   13MOL   H530 9914   6.781   4.989   2.449  0.4677  1.6086  0.2854
   13MOL   H531 9915   6.702   4.877   2.549 -1.6356  2.0143 -1.6816
   13MOL   H532 9916   6.940   4.862   2.580  1.5815  0.3689  0.5801
   13MOL   H533 9917   6.957   5.031   2.637 -0.4428 -0.2604  1.7796
   13MOL   H534 9918   6.805   4.812   2.789  0.8885 -0.6631 -0.0848
   13MOL   H535 9919   7.032   4.789   2.825 -1.6602 -0.6853 -1.1281
   13MOL   H536 9920   7.050   4.960   2.861  1.2644 -0.7177  0.0262
   13MOL   H537 9921   6.761   5.024   2.952 -0.4666  0.3182  0.3306
   13MOL   H538 9922   6.839   5.121   2.862  0.4139 -0.7120  1.1450
   13MOL   H539 9923   6.596   5.146   2.793  1.6328  1.9272 -1.0072
   13MOL   H540 9924   6.595   4.964   2.761 -0.8829  1.1726  1.5482
   13MOL   H541 9925   6.738   5.176   2.602 -1.6952  1.0173 -0.9585
   13MOL   H542 9926   6.593   5.118   2.431 -0.2661 -1.5013 -0.5967
   13MOL   H543 9927   6.491   5.015   2.536  1.4141 -1.0825  2.1092
   13MOL   H544 9928   6.398   5.572   2.401 -0.6656 -1.0397 -0.4974
   13MOL   H545 9929   6.327   5.770   2.526 -0.9295 -0.2354 -0.3648
   13MOL   H546 9930   6.452   5.573   2.888  1.0024 -0.2909 -0.7550
   13MOL   H547 9931   6.497   5.383   2.776 -0.9697 -0.9955 -0.2622
   13MOL   C548 9932   6.853   5.977   2.932  0.4644  0.1929  0.1704
   13MOL   C549 9933   6.747   5.879   2.987 -0.5219  0.4261 -0.1376
   13MOL   C550 9934   6.602   5.939   2.984  0.3476  0.5949 -0.0255
   13MOL   C551 9935   6.503   5.850   3.067  0.8285  0.9091  0.3284
   13MOL   O552 9936   6.369   5.879   3.026 -0.0815  0.5697  0.3849
   13MOL   C553 9937   6.600   6.078   3.039 -0.7530 -0.2937  0.8005
   13MOL   C554 9938   6.705   6.166   2.972  0.0351 -0.9929  0.2062
   13MOL   C555 9939   6.847   6.116   2.993 -0.3674 -0.4558  0.3398
   13MOL   C556 9940   6.953   6.217   2.947  0.2263  0.5742 -0.1673
   13MOL   O557 9941   7.083   6.170   2.993  0.6459 -0.1793 -0.3877
   13MOL   C558 9942   7.190   6.242   2.985 -0.1904  0.7775  0.0190
   13MOL   O559 9943   7.185   6.354   2.933 -0.1237 -0.0097 -0.4527
   13MOL   C560 9944   7.313   6.170   3.014  0.5511  0.3740  0.2154
   13MOL   C561 9945   7.437   6.243   2.998 -0.2233  0.0091  0.3342
   13MOL   C562 9946   7.558   6.181   3.010 -0.1172  0.8737  0.0504
   13MOL   C563 9947   7.560   6.041   3.045  0.0425  0.2112 -0.2647
   13MOL   C564 9948   7.699   5.971   3.044  0.0473  0.2453 -0.3100
   13MOL   O565 9949   7.710   5.849   3.062 -0.7869 -0.1455  0.3027
   13MOL   O566 9950   7.792   6.056   3.021  0.0067 -0.0272  0.4228
   13MOL   C567 9951   7.443   5.972   3.062  0.7938 -0.0317  0.4808
   13MOL   C568 9952   7.321   6.034   3.051  0.5593 -0.5352  0.2434
   13MOL   H569 9953   6.948   5.932   2.959 -0.4569 -1.0517  1.3986
   13MOL   H570 9954   6.834   5.988   2.825  1.4709 -2.1116 -0.2871
   13MOL   H571 9955   6.746   5.786   2.930  0.7422  1.2011 -1.4641
   13MOL   H572 9956   6.779   5.858   3.089 -0.2284 -0.1137 -0.3391
   13MOL   H573 9957   6.558   5.934   2.884  1.4340  0.6305 -0.5117
   13MOL   H574 9958   6.532   5.747   3.050  1.5071  0.9968  0.8892
   13MOL   H575 9959   6.514   5.869   3.174  0.9999 -2.1263  0.8825
   13MOL   H576 9960   6.501   6.118   3.012 -0.9624 -1.6504 -0.4814
   13MOL   H577 9961   6.606   6.069   3.147  0.3283  0.7830  0.8449
   13MOL   H578 9962   6.706   6.265   3.018 -1.0375 -0.5357 -0.7328
   13MOL   H579 9963   6.696   6.167   2.864  0.3495  0.2928  0.1854
   13MOL   H580 9964   6.864   6.110   3.101 -0.5095 -0.3507  0.3681
   13MOL   H581 9965   6.949   6.239   2.840  0.2425 -0.5250 -0.3978
   13MOL   H582 9966   6.936   6.312   2.998  0.8374 -0.1335  1.3828
   13MOL   H583 9967   7.433   6.348   2.972  2.4613 -0.2741 -1.3503
   13MOL   H584 9968   7.652   6.232   3.010 -0.1175  0.9474  2.7489
   13MOL   H585 9969   7.451   5.871   3.101 -0.9165  1.0448  3.8326
   13MOL   H586 9970   7.241   5.965   3.072  1.1893 -1.7901 -1.4120
   13MOL   C587 9971   0.281   5.797   2.784  0.0369  0.0872 -0.0911
   13MOL   C588 9972   0.157   5.893   2.777  0.2152 -0.1997  0.0409
   13MOL   C589 9973   0.077   5.900   2.910 -0.2368 -0.2430  0.1754
   13MOL   C590 9974   7.990   5.996   2.898 -0.2481 -0.1577  0.0243
   13MOL   O591 9975   7.927   5.989   3.027  0.4874 -0.0369 -0.2364
   13MOL   C592 9976   0.031   5.754   2.941  0.2139 -0.1144  0.0753
   13MOL   C593 9977   0.148   5.649   2.940 -0.6834 -0.1553  0.1581
   13MOL   C594 9978   0.236   5.653   2.808 -0.3517 -0.8557 -0.2241
   13MOL   C595 9979   0.360   5.562   2.833 -0.0063 -0.3930  0.1019
   13MOL   O596 9980   0.449   5.588   2.730  0.3474 -0.5456 -0.2272
   13MOL   C597 9981   0.521   5.489   2.666 -0.0032 -0.0380 -0.6322
   13MOL   O598 9982   0.503   5.369   2.688  0.0642  0.5908  0.5206
   13MOL   C599 9983   0.616   5.543   2.572 -1.1787 -0.1357  0.0274
   13MOL   C600 9984   0.641   5.689   2.556 -0.6485 -0.2550  0.1066
   13MOL   C601 9985   0.745   5.737   2.473 -0.3066  0.1266  0.2200
   13MOL   C602 9986   0.803   5.646   2.380  0.2905 -0.2811 -0.4811
   13MOL   C603 9987   0.878   5.687   2.262 -0.2459 -0.2506  0.2680
   13MOL   O604 9988   0.933   5.614   2.181  0.3914  0.0960 -0.3967
   13MOL   O605 9989   0.884   5.821   2.258  0.1148  0.0060  0.0146
   13MOL   C606 9990   0.768   5.510   2.386  0.9190  0.0912 -0.3599
   13MOL   C607 9991   0.683   5.454   2.478  0.4750  0.5051 -0.8153
   13MOL   H608 9992   0.330   5.819   2.689  1.7947  0.2257  0.8203
   13MOL   H609 9993   0.352   5.827   2.862  1.0098 -1.2167 -0.4618
   13MOL   H610 9994   0.194   5.993   2.757  1.8935 -0.7018  0.5574
   13MOL   H611 9995   0.093   5.858   2.695 -0.3661 -0.3431  0.5469
   13MOL   H612 9996   0.146   5.933   2.988 -3.4756 -1.1247  3.5560
   13MOL   H613 9997   8.025   6.096   2.876 -0.6609 -0.2476 -1.0987
   13MOL   H614 9998   7.922   5.961   2.821  1.4385  0.7257 -1.9165
   13MOL   H615 9999   8.003   5.753   3.030 -0.9369 -0.7508 -0.7376
   13MOL   H61610000   7.992   5.725   2.867  0.4839  3.7308 -1.8313
   13MOL   H61710001   0.110   5.549   2.962 -1.5457 -0.2702 -1.7558
   13MOL   H61810002   0.209   5.667   3.028 -1.4364 -0.2999  0.7078
   13MOL   H61910003   0.165   5.630   2.729 -3.3176  2.0076  1.4551
   13MOL   H62010004   0.408   5.575   2.929  0.1955 -1.4839  0.1609
   13MOL   H62110005   0.327   5.457   2.832 -0.8417 -0.1517 -2.0557
   13MOL   H62210006   0.582   5.753   2.621 -1.2252  0.6359 -1.2801
   13MOL   H62310007   0.764   5.844   2.470  1.6950 -0.2167  0.1876
   13MOL   H62410008   0.802   5.443   2.309 -2.4345 -1.5473 -0.5034
   13MOL   H62510009   0.661   5.348   2.479  0.6440  0.4746 -0.2593
   13MOL   C62610010   0.738   6.165   1.759  0.8059  0.1643 -0.1404
   13MOL   C62710011   0.706   6.074   1.873 -0.5070  0.0508 -0.1186
   13MOL   C62810012   0.832   6.001   1.932 -0.2579  0.0280  0.6406
   13MOL   C62910013   0.799   5.920   2.063  0.0107  0.2534 -0.3776
   13MOL   O63010014   0.919   5.877   2.119  0.4255  0.3741  0.1931
   13MOL   C63110015   0.896   5.924   1.818  0.4687  0.4846  0.1384
   13MOL   C63210016   0.944   6.025   1.710 -0.4759 -0.7381 -0.2689
   13MOL   C63310017   0.828   6.098   1.650  0.2922 -0.4181 -0.1869
   13MOL   C63410018   0.875   6.200   1.549  0.6323 -0.4752  0.5452
   13MOL   O63510019   0.975   6.281   1.602  0.1470 -0.6549 -0.1733
   13MOL   C63610020   1.087   6.311   1.537 -0.0236  0.1938  1.0517
   13MOL   O63710021   1.112   6.268   1.426 -0.2780 -0.3719 -0.6296
   13MOL   C63810022   1.189   6.390   1.618  0.4542  0.3454  0.3435
   13MOL   C63910023   1.315   6.404   1.562 -0.4096 -0.2494 -0.7483
   13MOL   C64010024   1.416   6.479   1.630  0.1021  0.0040 -0.4729
   13MOL   C64110025   1.382   6.554   1.749 -0.2530  0.6560 -0.0349
   13MOL   C64210026   1.479   6.637   1.812 -0.1970 -0.4728  0.2036
   13MOL   O64310027   1.476   6.654   1.932 -0.9368 -0.0863  0.1106
   13MOL   O64410028   1.551   6.706   1.730  0.1938 -0.5409 -0.1514
   13MOL   C64510029   1.256   6.532   1.812 -0.3455 -0.5642  0.5662
   13MOL   C64610030   1.160   6.454   1.743  0.3279  0.0952  0.4100
   13MOL   H64710031   0.647   6.203   1.712  1.5517 -1.3585 -2.9026
   13MOL   H64810032   0.808   6.239   1.799  0.9362 -0.3209  0.5271
   13MOL   H64910033   0.652   6.138   1.943 -0.3421  1.8416 -1.5929
   13MOL   H65010034   0.635   5.993   1.857 -0.1635  0.0179 -1.5363
   13MOL   H65110035   0.902   6.077   1.967  0.1313 -0.1567  0.2626
   13MOL   H65210036   0.757   5.993   2.132 -1.8400  0.9511 -2.1589
   13MOL   H65310037   0.729   5.836   2.056 -0.6925  0.6069  1.9613
   13MOL   H65410038   0.969   5.853   1.856  0.5707  0.7427  0.4291
   13MOL   H65510039   0.820   5.867   1.765  0.2072  0.5369  0.4543
   13MOL   H65610040   0.993   5.968   1.631  1.7372 -0.7478  1.0405
   13MOL   H65710041   1.008   6.099   1.759  0.1281 -2.2938  1.3699
   13MOL   H65810042   0.767   6.030   1.592  0.2195  0.0875 -0.7013
   13MOL   H65910043   0.907   6.148   1.459 -2.3584  2.0659 -2.1122
   13MOL   H66010044   0.796   6.270   1.523  0.7699 -0.3130  0.5614
   13MOL   H66110045   1.334   6.352   1.469  0.3223  0.4587 -0.9939
   13MOL   H66210046   1.518   6.478   1.596  0.1976 -1.7030 -0.1472
   13MOL   H66310047   1.224   6.583   1.902  1.7549  0.1424  0.9515
   13MOL   H66410048   1.061   6.449   1.787  0.0826 -0.3907 -0.1895
   13MOL   C66510049   1.927   7.116   1.919  0.5801 -0.4966  0.0810
   13MOL   C66610050   1.843   7.017   1.843  0.2108  0.2167 -0.2010
   13MOL   C66710051   1.838   6.872   1.909  0.7889 -0.1401  0.3946
   13MOL   C66810052   1.767   6.767   1.821  0.0049  0.9415  0.1016
   13MOL   O66910053   1.636   6.813   1.801 -0.5370  0.1035 -0.3488
   13MOL   C67010054   1.978   6.815   1.944  0.3708 -0.7910  0.0429
   13MOL   C67110055   2.064   6.926   2.014 -0.4593  0.4855  0.1888
   13MOL   C67210056   2.070   7.061   1.951 -0.0481  0.0206  0.2196
   13MOL   C67310057   2.152   7.172   2.024 -0.2814 -0.0854  0.9539
   13MOL   O67410058   2.097   7.215   2.155  0.5748  0.1880  0.2939
   13MOL   C67510059   2.176   7.305   2.222 -0.5483  0.2670  1.0288
   13MOL   O67610060   2.287   7.340   2.184 -0.7527  0.3233  0.2629
   13MOL   C67710061   2.109   7.367   2.339 -0.0066  0.3173  0.3101
   13MOL   C67810062   2.165   7.481   2.405  0.2598  0.6743  0.0868
   13MOL   C67910063   2.089   7.531   2.512 -0.2212 -0.0494 -0.0173
   13MOL   C68010064   1.970   7.472   2.563 -0.1624 -0.7341 -0.9842
   13MOL   C68110065   1.902   7.545   2.680 -0.2066 -0.0065 -0.7406
   13MOL   O68210066   1.965   7.616   2.759 -1.0210  0.3832 -0.1038
   13MOL   O68310067   1.777   7.510   2.696  0.4971 -0.4106 -0.0237
   13MOL   C68410068   1.918   7.358   2.494 -0.5420  0.4472 -0.2449
   13MOL   C68510069   1.985   7.307   2.386 -0.2375  0.6309 -0.0976
   13MOL   H68610070   1.943   7.207   1.861  2.1545 -0.4580  0.5484
   13MOL   H68710071   1.872   7.143   2.010 -1.2211 -0.8286 -0.8856
   13MOL   H68810072   1.738   7.046   1.834  0.7764  1.9525 -1.2978
   13MOL   H68910073   1.871   7.011   1.738 -1.0776 -2.5353 -0.4289
   13MOL   H69010074   1.787   6.872   2.005 -1.2173 -1.8446 -0.6256
   13MOL   H69110075   1.809   6.757   1.721 -0.7126  0.7349 -0.1833
   13MOL   H69210076   1.761   6.673   1.875  0.3177 -0.3218 -2.0267
   13MOL   H69310077   1.974   6.729   2.011 -0.9616 -0.2793  0.6406
   13MOL   H69410078   2.027   6.787   1.850  0.6592  2.6338 -0.9161
   13MOL   H69510079   2.159   6.878   2.037 -0.4258  0.3739 -0.1887
   13MOL   H69610080   2.023   6.951   2.112  2.0651  2.6500  0.7281
   13MOL   H69710081   2.131   7.051   1.861  0.7367  0.1794  0.7244
   13MOL   H69810082   2.250   7.127   2.039 -0.2355 -0.8639 -1.5067
   13MOL   H69910083   2.166   7.267   1.973 -0.2862  0.7728  2.5029
   13MOL   H70010084   2.251   7.537   2.372  1.4110 -1.8394 -1.3979
   13MOL   H70110085   2.131   7.618   2.559  0.9567 -0.8378  0.4156
   13MOL   H70210086   1.821   7.317   2.517  0.2005 -2.9198 -2.7036
   13MOL   H70310087   1.958   7.217   2.333  0.2859  1.2122 -1.3882
   13MOL   C70410088   1.333   7.723   3.022  0.6257 -0.0092  0.6076
   13MOL   C70510089   1.443   7.654   2.938  0.3991 -0.2360 -0.2381
   13MOL   C70610090   1.509   7.747   2.831 -0.5146 -0.0524 -0.4727
   13MOL   C70710091   1.606   7.669   2.737 -0.8538  0.8821 -0.0959
   13MOL   O70810092   1.699   7.586   2.803 -0.4394  0.3459  0.4302
   13MOL   C70910093   1.398   7.814   2.747 -0.4427 -0.3983 -0.3129
   13MOL   C71010094   1.301   7.883   2.836  0.1846  0.6195 -0.6041
   13MOL   C71110095   1.224   7.788   2.935 -0.4126 -0.8058 -0.9863
   13MOL   C71210096   1.125   7.869   3.026 -0.2688 -0.3414 -0.2297
   13MOL   O71310097   1.058   7.776   3.102  0.4708  0.2163  0.1282
   13MOL   C71410098   0.982   7.802   3.201 -0.0749  0.4120 -0.5044
   13MOL   O71510099   0.953   7.916   3.237 -0.0155 -0.1946  0.2390
   13MOL   C71610100   0.934   7.676   3.269  0.8623  0.2158 -0.0837
   13MOL   C71710101   0.844   7.690   3.375  0.6234  0.0809 -1.1576
   13MOL   C71810102   0.813   7.571   3.444  0.3384 -0.3475  0.5919
   13MOL   C71910103   0.868   7.448   3.414 -0.2771  1.0938 -1.1492
   13MOL   C72010104   0.829   7.330   3.503 -0.6574  0.6833 -0.0580
   13MOL   O72110105   0.750   7.339   3.599 -0.3027 -0.4285 -0.8663
   13MOL   O72210106   0.887   7.211   3.462  0.2349 -0.0351  0.3513
   13MOL   C72310107   0.956   7.437   3.304  0.9480  0.7206  0.1931
   13MOL   C72410108   0.988   7.554   3.231  0.0915  0.1077  0.3892
   13MOL   H72510109   1.291   7.647   3.089  2.0381 -1.3307 -0.0008
   13MOL   H72610110   1.377   7.796   3.091  0.1509 -0.3192  1.2489
   13MOL   H72710111   1.520   7.621   3.007  0.4065  0.4110  0.0652
   13MOL   H72810112   1.399   7.564   2.896 -0.9593  0.0444  0.5583
   13MOL   H72910113   1.566   7.825   2.882 -0.7054 -1.4072  1.8802
   13MOL   H73010114   1.548   7.602   2.674 -1.9499  0.2629  1.5426
   13MOL   H73110115   1.660   7.732   2.666 -0.9713 -1.6259 -2.4914
   13MOL   H73210116   1.442   7.886   2.678  1.1238 -0.4247  0.6319
   13MOL   H73310117   1.347   7.746   2.680 -0.7223 -0.3491 -0.1518
   13MOL   H73410118   1.222   7.924   2.773  0.7414  2.6860  0.0003
   13MOL   H73510119   1.345   7.971   2.885  0.8806 -0.1916  0.2406
   13MOL   H73610120   1.179   7.708   2.876 -0.9392 -1.7834  0.6942
   13MOL   H73710121   1.177   7.946   3.083  0.6817 -0.4532 -0.9554
   13MOL   H73810122   1.056   7.919   2.957 -1.8131 -1.0529  0.7626
   13MOL   H73910123   0.811   7.788   3.406  1.1156  0.1273 -0.7680
   13MOL   H74010124   0.773   7.582   3.544 -1.2350  1.8644 -0.2457
   13MOL   H74110125   1.003   7.342   3.285  0.4907  0.6775 -0.7611
   13MOL   H74210126   1.059   7.546   3.150 -1.1361  2.8087 -1.0050
   13MOL   C74310127   1.032   6.790   3.866  0.3447  0.2575 -0.5118
   13MOL   C74410128   1.013   6.865   3.731 -0.2777 -0.1280 -0.1821
   13MOL   C74510129   1.030   7.019   3.735 -0.6797  0.2875 -0.0932
   13MOL   C74610130   1.016   7.082   3.595  0.6106 -0.6075  0.1905
   13MOL   O74710131   0.885   7.098   3.556 -0.2985  0.2354 -0.2100
   13MOL   C74810132   0.930   7.067   3.843  0.2714  0.1007 -0.2191
   13MOL   C74910133   0.983   7.008   3.978 -0.6173 -0.3189 -0.0071
   13MOL   C75010134   0.972   6.856   3.991  0.1767 -0.2863 -0.5449
   13MOL   C75110135   1.039   6.798   4.123 -0.2658  0.5998  0.5277
   13MOL   O75210136   1.001   6.660   4.129  0.6405 -0.4860 -0.4216
   13MOL   C75310137   1.006   6.588   4.251 -0.2358 -0.5916  0.0983
   13MOL   O75410138   1.041   6.638   4.355 -0.3128  0.5161  0.3179
   13MOL   C75510139   0.951   6.447   4.237 -0.0348 -0.5111  0.0921
   13MOL   C75610140   0.961   6.357   4.341  0.8240 -0.1308 -0.4138
   13MOL   C75710141   0.912   6.225   4.335  0.2119 -0.1491  0.5787
   13MOL   C75810142   0.857   6.180   4.214  0.3817 -0.3192 -0.0101
   13MOL   C75910143   0.814   6.039   4.197  0.3611  0.1131 -0.6659
   13MOL   O76010144   0.724   6.010   4.121 -0.2096 -0.3268  0.3877
   13MOL   O76110145   0.883   5.956   4.277  0.4266  0.2286  0.0386
   13MOL   C76210146   0.835   6.271   4.114 -0.2563 -0.3030  0.1453
   13MOL   C76310147   0.878   6.403   4.125 -0.1240  0.4031 -0.0709
   13MOL   H76410148   0.989   6.692   3.850 -0.4603 -0.0754  3.0596
   13MOL   H76510149   1.140   6.781   3.873  0.2559  0.5305  1.7604
   13MOL   H76610150   1.076   6.809   3.662  0.2385 -2.1825  1.9030
   13MOL   H76710151   0.914   6.846   3.689 -1.3516  1.0929  1.7458
   13MOL   H76810152   1.126   7.049   3.776 -1.2235  1.6448  0.2228
   13MOL   H76910153   1.072   7.176   3.598  1.5811 -1.1642 -0.4795
   13MOL   H77010154   1.066   7.018   3.522  0.4217 -1.5824  0.9022
   13MOL   H77110155   0.926   7.176   3.842  0.2012  0.1068  0.4717
   13MOL   H77210156   0.832   7.029   3.815 -0.4885 -0.3081  2.8097
   13MOL   H77310157   0.938   7.057   4.065 -0.0044 -1.6538  1.0789
   13MOL   H77410158   1.086   7.039   3.994  0.2805 -1.6174 -2.9495
   13MOL   H77510159   0.864   6.841   3.987  0.0388  0.0450  1.2986
   13MOL   H77610160   1.148   6.794   4.125 -0.1974  1.7436 -0.3768
   13MOL   H77710161   1.001   6.848   4.212  0.4639  1.9855  0.0697
   13MOL   H77810162   1.020   6.390   4.425 -0.9245  0.0915  0.7442
   13MOL   H77910163   0.923   6.179   4.432 -1.0795  2.9503  2.2621
   13MOL   H78010164   0.787   6.237   4.024  0.1010  1.9044 -0.8920
   13MOL   H78110165   0.866   6.469   4.041 -2.3477 -0.4466 -0.4607
   13MOL   H78210166   0.885   5.862   4.270 -1.9095  0.1328  0.2537
   14MOL     C110167   0.013   6.219   7.961 -0.8943 -0.8552 -0.4393
   14MOL     C210168   7.984   6.084   7.946 -1.0184 -0.3591 -0.0897
   14MOL     C310169   0.000   5.969   0.002  0.2951 -0.2843  0.0196
   14MOL     C410170   7.964   5.837   8.024 -0.1542  0.5824  0.1016
   14MOL     O510171   7.842   5.833   0.057  0.7594 -0.2385 -0.1272
   14MOL     C610172   0.148   5.950   8.014  0.6631  0.7930 -0.2554
   14MOL     C710173   0.223   6.091   8.020  0.7695 -0.1044  0.0489
   14MOL     C810174   0.168   6.204   7.935  0.0224  0.2827 -0.0433
   14MOL     C910175   0.237   6.336   7.971  0.2081 -0.5995 -0.2179
   14MOL    O1010176   0.213   6.438   7.881  0.2771  0.0777 -0.3764
   14MOL    C1110177   0.229   6.567   7.919 -0.2836  0.1129  0.5438
   14MOL    O1210178   0.274   6.600   8.029  0.3385  0.2581  0.3306
   14MOL    C1310179   0.198   6.667   7.815 -0.4562  0.3911 -0.3549
   14MOL    C1410180   0.151   6.627   7.691 -0.4597 -0.2537  0.0547
   14MOL    C1510181   0.132   6.723   7.593  0.4247 -0.9912  0.5084
   14MOL    C1610182   0.155   6.866   7.617 -0.2716  0.3730 -0.5387
   14MOL    C1710183   0.150   6.962   7.504  0.1576  0.5082 -0.1114
   14MOL    O1810184   0.198   7.073   7.496 -0.6840  0.4770  0.0805
   14MOL    O1910185   0.083   6.916   7.400 -0.0769 -0.1565 -0.0117
   14MOL    C2010186   0.201   6.905   7.746 -0.0983  0.1928 -0.4354
   14MOL    C2110187   0.220   6.807   7.843  0.8112 -0.1702 -0.4950
   14MOL    H2210188   8.006   6.285   7.885 -0.6072 -0.7729 -0.5326
   14MOL    H2310189   8.031   6.251   0.028  0.2092  0.1550 -0.5457
   14MOL    H2410190   7.875   6.089   7.953 -0.9616  2.0927 -0.5436
   14MOL    H2510191   8.008   6.057   7.843 -2.6086  1.6478 -1.0180
   14MOL    H2610192   8.032   6.011   0.103  1.8854  2.0759 -0.8806
   14MOL    H2710193   7.957   5.793   7.924  0.0616 -0.1721  0.4165
   14MOL    H2810194   8.024   5.762   0.039 -0.5285  0.9213  1.0600
   14MOL    H2910195   0.183   5.879   0.054  0.0160  0.4464 -0.2765
   14MOL    H3010196   0.154   5.902   7.916 -0.9128  2.7743 -1.3606
   14MOL    H3110197   0.329   6.070   8.002  1.5600  2.6184  1.2292
   14MOL    H3210198   0.206   6.119   0.088  2.0134  0.8126  0.0143
   14MOL    H3310199   0.184   6.185   7.829  1.0804 -1.4754  0.4061
   14MOL    H3410200   0.202   6.370   0.033  0.0429  1.5721 -1.0045
   14MOL    H3510201   0.344   6.317   7.972  0.3766  0.2903  1.8536
   14MOL    H3610202   0.126   6.525   7.664  1.2742 -0.1358 -2.2236
   14MOL    H3710203   0.089   6.680   7.504 -0.8985  0.3061  0.5006
   14MOL    H3810204   0.221   7.007   7.776 -0.8283  0.7937 -1.9287
   14MOL    H3910205   0.251   6.840   7.941  0.1894  1.0803 -0.7049
   14MOL    H4010206   7.801   5.748   0.045  2.1081 -0.7730 -1.1949
   14MOL    C4110207   0.035   6.524   7.021  0.3525  0.3757  0.0445
   14MOL    C4210208   0.135   6.630   7.077  0.2013  0.1024 -0.1099
   14MOL    C4310209   0.072   6.750   7.155  0.7983  1.8712 -0.4783
   14MOL    C4410210   0.173   6.865   7.186  0.9001 -0.0879  0.1762
   14MOL    O4510211   0.119   6.975   7.270  0.5388 -0.0960 -0.3899
   14MOL    C4610212   7.974   6.793   7.083  0.5601 -0.0071  0.3779
   14MOL    C4710213   7.886   6.679   7.038 -0.7855 -0.0832 -0.3345
   14MOL    C4810214   7.967   6.586   6.938  0.5678  0.2375 -0.3874
   14MOL    C4910215   7.878   6.479   6.875 -0.5305 -0.0280  0.2380
   14MOL    O5010216   7.815   6.540   6.771 -0.4392  0.0511  0.1377
   14MOL    C5110217   7.727   6.473   6.709  0.2801 -0.5565 -0.0608
   14MOL    O5210218   7.733   6.350   6.703 -0.5662 -0.6281 -0.2879
   14MOL    C5310219   7.621   6.552   6.651  0.3389  0.6915 -0.6473
   14MOL    C5410220   7.618   6.689   6.657 -0.2069  0.0070  0.3406
   14MOL    C5510221   7.530   6.762   6.574  0.2559  0.4163  0.6149
   14MOL    C5610222   7.419   6.697   6.516 -0.2595  0.4936  0.3950
   14MOL    C5710223   7.325   6.782   6.431  0.1670  0.1217 -0.2814
   14MOL    O5810224   7.334   6.904   6.419 -0.0070 -0.2402  0.2223
   14MOL    O5910225   7.225   6.701   6.373 -0.4366 -0.2046 -0.1679
   14MOL    C6010226   7.414   6.556   6.521 -0.4781  0.2637 -0.2125
   14MOL    C6110227   7.512   6.484   6.593  0.4085 -0.0243 -0.2324
   14MOL    H6210228   0.087   6.454   6.955 -2.6053 -0.0399 -1.9649
   14MOL    H6310229   8.030   6.468   7.105  5.1120 -1.8041  1.0401
   14MOL    H6410230   0.218   6.593   7.137 -0.7990  0.4210  1.5066
   14MOL    H6510231   0.172   6.685   6.991  1.3644 -0.1605  0.2221
   14MOL    H6610232   0.027   6.707   7.244  1.3845 -2.9887 -2.3659
   14MOL    H6710233   0.266   6.827   7.228  3.0358  0.6845 -3.6050
   14MOL    H6810234   0.203   6.916   7.095 -0.8283  0.8589  0.1141
   14MOL    H6910235   7.923   6.854   7.158  0.5342  0.0323  0.3281
   14MOL    H7010236   7.996   6.860   7.000 -0.6283 -0.6444 -0.4689
   14MOL    H7110237   7.795   6.706   6.984 -0.4272 -0.1884 -0.9977
   14MOL    H7210238   7.861   6.607   7.116  1.9591 -2.1109 -1.2178
   14MOL    H7310239   8.014   6.644   6.859  1.6557 -0.5256 -0.2990
   14MOL    H7410240   7.949   6.409   6.831  0.1108  0.9833 -0.3628
   14MOL    H7510241   7.821   6.428   6.952  0.0121  0.2791  0.8477
   14MOL    H7610242   7.701   6.746   6.695 -0.1364 -1.3906  2.3618
   14MOL    H7710243   7.542   6.867   6.550  0.5881 -0.0274 -1.1974
   14MOL    H7810244   7.331   6.504   6.475 -0.1638 -0.2038 -0.2435
   14MOL    H7910245   7.503   6.377   6.583 -1.7715  0.2438 -1.5581
   14MOL    C8010246   6.709   6.964   6.213 -0.0477  0.8116 -0.5951
   14MOL    C8110247   6.829   6.861   6.226  0.3297 -0.0115  0.3030
   14MOL    C8210248   6.885   6.866   6.375 -0.5631  0.1886 -0.0306
   14MOL    C8310249   7.000   6.766   6.406 -0.0533 -0.2271 -0.2043
   14MOL    O8410250   7.114   6.788   6.320  0.5859 -0.3328  0.5694
   14MOL    C8510251   6.926   7.009   6.419  0.3938 -0.1596 -0.4524
   14MOL    C8610252   6.806   7.106   6.414  0.5227  0.3181 -0.2982
   14MOL    C8710253   6.741   7.104   6.271  0.5113  0.5918  0.7544
   14MOL    C8810254   6.625   7.207   6.258 -0.4549  0.3055  0.2525
   14MOL    O8910255   6.657   7.332   6.306 -0.0969  0.0278  0.0377
   14MOL    C9010256   6.548   7.416   6.326  0.0797 -0.0490 -0.7100
   14MOL    O9110257   6.429   7.383   6.307  0.1910 -0.0314  0.3818
   14MOL    C9210258   6.594   7.550   6.370 -0.7261 -0.2763  0.0443
   14MOL    C9310259   6.722   7.570   6.427  0.1725  0.2489 -0.5290
   14MOL    C9410260   6.767   7.700   6.465  0.4289 -0.2472  0.4641
   14MOL    C9510261   6.684   7.813   6.447 -0.2100 -0.1027  0.3830
   14MOL    C9610262   6.724   7.948   6.477  0.5000 -0.1162 -0.8930
   14MOL    O9710263   6.843   7.962   6.520 -0.3716 -0.1147  0.0071
   14MOL    O9810264   6.634   0.013   6.457  0.2262 -0.3204  0.0299
   14MOL    C9910265   6.555   7.789   6.390  0.5844  0.1080 -0.2356
   14MOL   C10010266   6.512   7.662   6.345  0.0534 -0.2711 -0.3393
   14MOL   H10110267   6.687   6.973   6.107 -1.3632 -1.0266 -0.4965
   14MOL   H10210268   6.624   6.926   6.269  0.0155 -1.2542 -1.8642
   14MOL   H10310269   6.806   6.758   6.196  1.8034 -0.3010  0.1105
   14MOL   H10410270   6.909   6.894   6.159 -1.1264 -0.6410 -1.7956
   14MOL   H10510271   6.803   6.821   6.432 -1.3326  1.7150  0.0778
   14MOL   H10610272   7.025   6.777   6.512 -2.9646  0.0995  0.4855
   14MOL   H10710273   6.965   6.666   6.383  2.5399 -1.0370 -0.7474
   14MOL   H10810274   6.963   6.999   6.521 -1.3589 -0.2179  0.2031
   14MOL   H10910275   7.001   7.044   6.349  0.1687  2.1065  0.4061
   14MOL   H11010276   6.840   7.207   6.440  0.6666  0.4060 -0.8257
   14MOL   H11110277   6.728   7.071   6.481 -0.8121  1.3008 -1.3211
   14MOL   H11210278   6.831   7.135   6.217  1.5387 -1.7349  1.0400
   14MOL   H11310279   6.577   7.214   6.160  0.4946 -1.3497 -0.3588
   14MOL   H11410280   6.550   7.155   6.318  0.4197 -2.1346 -0.6652
   14MOL   H11510281   6.788   7.485   6.434 -2.1637 -1.6365 -0.7953
   14MOL   H11610282   6.861   7.721   6.514  1.6423 -2.3626 -0.8530
   14MOL   H11710283   6.491   7.874   6.374 -1.6513 -1.3875  0.4985
   14MOL   H11810284   6.422   7.648   6.287  0.3868 -1.6545 -0.5668
   14MOL   C11910285   6.971   0.538   6.487  0.1322  0.1605  0.5760
   14MOL   C12010286   6.864   0.455   6.420 -0.1024  0.1927  0.0126
   14MOL   C12110287   6.836   0.317   6.483 -0.4426  0.2473  0.3226
   14MOL   C12210288   6.733   0.229   6.416  0.9218  0.1369  0.3703
   14MOL   O12310289   6.672   0.146   6.515  0.2246 -0.1263 -0.4215
   14MOL   C12410290   6.969   0.247   6.512 -0.2279 -0.6145 -0.0216
   14MOL   C12510291   7.077   0.331   6.576 -0.2147  0.6432 -0.4807
   14MOL   C12610292   7.107   0.463   6.504 -0.1822 -0.2284  0.4450
   14MOL   C12710293   7.216   0.550   6.572  0.0197  0.5180  0.2535
   14MOL   O12810294   7.322   0.463   6.598  0.0881  1.0755  0.1473
   14MOL   C12910295   7.371   0.441   6.727  0.0271  0.4074 -0.0520
   14MOL   O13010296   7.341   0.499   6.831  0.4949 -0.2539  0.1696
   14MOL   C13110297   7.468   0.328   6.725  0.3394 -0.0890  0.5259
   14MOL   C13210298   7.519   0.275   6.606  0.1901  0.5450 -0.0307
   14MOL   C13310299   7.599   0.154   6.611 -0.2145 -0.2244  0.0335
   14MOL   C13410300   7.635   0.094   6.729 -0.0384  0.7744 -0.8030
   14MOL   C13510301   7.713   7.996   6.727 -0.4160  0.0222  0.6030
   14MOL   O13610302   7.757   7.954   6.619  0.5455  0.8516 -0.4361
   14MOL   O13710303   7.732   7.938   6.844  0.0765 -0.2357  0.8015
   14MOL   C13810304   7.587   0.151   6.852  0.6790 -0.6468  0.2299
   14MOL   C13910305   7.509   0.270   6.846 -0.8374 -0.2106 -0.0309
   14MOL   H14010306   6.989   0.631   6.434  0.7673 -0.3603 -0.1323
   14MOL   H14110307   6.927   0.575   6.580  1.8760 -0.4173  1.6448
   14MOL   H14210308   6.774   0.515   6.408 -1.5362 -2.1024 -1.0395
   14MOL   H14310309   6.908   0.440   6.322  0.9825 -1.9937  0.8029
   14MOL   H14410310   6.790   0.354   6.575 -0.8417  1.4438 -0.3456
   14MOL   H14510311   6.661   0.298   6.372 -0.2846  0.4451  2.7510
   14MOL   H14610312   6.781   0.171   6.338 -0.7366  1.2743 -1.5194
   14MOL   H14710313   6.938   0.165   6.577  0.3961  0.7636  2.0460
   14MOL   H14810314   7.001   0.200   6.419 -1.1953  0.1766 -0.7561
   14MOL   H14910315   7.163   0.264   6.575 -0.3786  0.3897  1.2983
   14MOL   H15010316   7.061   0.356   6.681 -0.8664 -1.3306 -0.0832
   14MOL   H15110317   7.132   0.434   6.402  1.0155 -1.6178  1.0955
   14MOL   H15210318   7.258   0.634   6.517 -1.7171  2.1080  1.3092
   14MOL   H15310319   7.176   0.602   6.659 -1.3279  0.2037 -0.1695
   14MOL   H15410320   7.499   0.328   6.514  0.2243 -0.3108 -0.5364
   14MOL   H15510321   7.637   0.119   6.516 -0.6972 -1.9948  0.4803
   14MOL   H15610322   7.628   0.109   6.943  0.6002  1.6057  1.3371
   14MOL   H15710323   7.474   0.311   6.940  2.6741  1.1407  0.7525
   14MOL   C15810324   7.684   7.647   7.252  0.2122 -0.9078 -0.5666
   14MOL   C15910325   7.751   7.639   7.116  0.2614  0.6113 -0.3626
   14MOL   C16010326   7.661   7.707   7.008  0.1933  0.5702 -0.3236
   14MOL   C16110327   7.734   7.702   6.868  0.6444  0.4955 -0.3588
   14MOL   O16210328   7.818   7.815   6.849  0.0954  0.2411  0.4301
   14MOL   C16310329   7.518   7.656   7.009 -0.4510  0.1101 -0.1755
   14MOL   C16410330   7.457   7.654   7.154  0.2305  0.3972  0.3646
   14MOL   C16510331   7.541   7.580   7.250  0.1939  0.1830 -0.3891
   14MOL   C16610332   7.473   7.565   7.389 -0.5699  0.0457 -0.8283
   14MOL   O16710333   7.354   7.482   7.401  0.0148 -0.0825 -0.4823
   14MOL   C16810334   7.346   7.401   7.512  0.1296 -0.1758  0.0957
   14MOL   O16910335   7.443   7.368   7.581 -0.0139 -0.0687  0.4998
   14MOL   C17010336   7.212   7.357   7.541 -0.1974  0.1729 -0.0148
   14MOL   C17110337   7.191   7.290   7.664  0.5411 -0.0837 -0.8941
   14MOL   C17210338   7.069   7.230   7.689  0.5550  0.4430  0.4942
   14MOL   C17310339   6.956   7.247   7.603  0.4428  0.2891 -0.2330
   14MOL   C17410340   6.820   7.194   7.638 -0.1946  0.1873  0.4104
   14MOL   O17510341   6.787   7.169   7.754 -0.0027  0.1494  0.1929
   14MOL   O17610342   6.740   7.181   7.536 -0.5626 -0.6020 -0.0899
   14MOL   C17710343   6.974   7.322   7.483 -0.5770  0.0627 -0.2145
   14MOL   C17810344   7.103   7.375   7.450  0.6742  0.6657  0.2733
   14MOL   H17910345   7.754   7.604   7.324  0.2702 -1.2024 -0.7999
   14MOL   H18010346   7.688   7.751   7.285  0.0132 -1.2902  0.6834
   14MOL   H18110347   7.843   7.696   7.120  0.3709  0.3249  1.9843
   14MOL   H18210348   7.767   7.534   7.090  2.2651  0.8709 -0.2571
   14MOL   H18310349   7.659   7.814   7.026 -0.9053  0.3897  0.7345
   14MOL   H18410350   7.782   7.604   6.859  0.6298  0.6556 -2.4854
   14MOL   H18510351   7.669   7.700   6.781 -0.6807  0.2132  0.6164
   14MOL   H18610352   7.453   7.713   6.943 -2.2221 -1.0176  0.5602
   14MOL   H18710353   7.510   7.557   6.966 -1.0542  0.5812 -1.1723
   14MOL   H18810354   7.358   7.608   7.157  0.4596 -0.2359 -1.4673
   14MOL   H18910355   7.439   7.758   7.181 -1.6108 -0.4470  2.5952
   14MOL   H19010356   7.560   7.482   7.206  2.7240  1.0601 -1.3141
   14MOL   H19110357   7.554   7.530   7.452 -1.3733 -0.0713  0.1544
   14MOL   H19210358   7.446   7.663   7.430  1.6394 -0.1816  1.2615
   14MOL   H19310359   7.276   7.268   7.727  0.1099 -0.0439 -0.2982
   14MOL   H19410360   7.059   7.170   7.778  0.8755  1.2600  1.0895
   14MOL   H19510361   6.892   7.329   7.413  0.3924  1.2942 -1.2530
   14MOL   H19610362   7.105   7.423   7.353 -0.1382 -2.0593 -1.1618
   14MOL   C19710363   6.393   6.675   7.646 -0.4174  0.8055 -0.4008
   14MOL   C19810364   6.514   6.744   7.587  0.6042  0.1594  0.1593
   14MOL   C19910365   6.506   6.892   7.606  0.4518 -0.5526 -0.0960
   14MOL   C20010366   6.629   6.972   7.554 -0.1611  0.1345  0.4280
   14MOL   O20110367   6.606   7.110   7.567  0.3240  0.0809  0.2279
   14MOL   C20210368   6.383   6.954   7.540  0.5473  0.3736  0.2576
   14MOL   C20310369   6.257   6.881   7.587 -0.1869  0.4956  0.6356
   14MOL   C20410370   6.269   6.729   7.577  0.4446 -0.1109 -0.2346
   14MOL   C20510371   6.150   6.654   7.639 -0.3464  0.3594  0.1717
   14MOL   O20610372   6.141   6.686   7.779  0.1888 -0.3045 -0.1320
   14MOL   C20710373   6.049   6.627   7.857  0.2328 -0.6594 -0.6005
   14MOL   O20810374   5.956   6.560   7.809  0.3882 -0.0033 -0.2770
   14MOL   C20910375   6.077   6.648   8.000  0.2428 -0.1357 -0.4966
   14MOL   C21010376   6.185   6.727   0.005 -0.2389  0.5056 -0.6920
   14MOL   C21110377   6.218   6.737   0.145  0.0411 -0.0815  0.4844
   14MOL   C21210378   6.136   6.685   0.250  0.5115 -0.1562  0.3968
   14MOL   C21310379   6.177   6.695   0.391  0.1037  0.2669 -0.0727
   14MOL   O21410380   6.102   6.655   0.483 -0.4040 -0.1051  0.4800
   14MOL   O21510381   6.302   6.736   0.407 -0.3890 -1.2892 -0.3690
   14MOL   C21610382   6.027   6.608   0.202  0.3327  0.3723  0.0971
   14MOL   C21710383   6.000   6.583   0.065 -0.3495  0.5177 -0.5188
   14MOL   H21810384   6.415   6.568   7.642 -2.3994  0.2566  1.9163
   14MOL   H21910385   6.385   6.712   7.748 -0.4289  0.5032 -0.2923
   14MOL   H22010386   6.609   6.705   7.623  0.7379  1.0828  0.8159
   14MOL   H22110387   6.513   6.713   7.483  0.1161 -0.3127  0.3026
   14MOL   H22210388   6.494   6.921   7.711  2.0141  1.7488 -0.5050
   14MOL   H22310389   6.717   6.941   7.610 -0.8390 -2.2449  0.2376
   14MOL   H22410390   6.648   6.951   7.449 -1.3412  2.2829 -0.2674
   14MOL   H22510391   6.364   7.058   7.565 -0.6254  0.0229  0.9192
   14MOL   H22610392   6.376   6.949   7.432  0.8684  1.1189  0.1994
   14MOL   H22710393   6.175   6.918   7.526 -0.0553  0.7218  0.5961
   14MOL   H22810394   6.243   6.915   7.689  0.4851  0.4214  0.7608
   14MOL   H22910395   6.262   6.689   7.476  1.1660  0.7115 -0.6178
   14MOL   H23010396   6.060   6.697   7.595 -1.1195 -2.7264 -1.3980
   14MOL   H23110397   6.138   6.550   7.608 -0.5294  0.4996 -0.2355
   14MOL   H23210398   6.251   6.780   7.973 -0.2169  1.2749 -0.0704
   14MOL   H23310399   6.300   6.801   0.173  0.4713  0.1238 -1.1884
   14MOL   H23410400   5.963   6.556   0.271 -0.3333  1.8095  0.5866
   14MOL   H23510401   5.927   6.509   0.037  0.5021 -0.4695 -0.1673
   14MOL   C23610402   6.547   6.852   0.919  0.3174  0.4137 -0.2698
   14MOL   C23710403   6.511   6.835   0.770  0.6034 -0.0157  0.0344
   14MOL   C23810404   6.369   6.860   0.752  0.0371  0.6665  0.0075
   14MOL   C23910405   6.330   6.854   0.599 -0.1158  0.6747 -0.9009
   14MOL   O24010406   6.345   6.721   0.548  0.0385 -0.1739  0.3911
   14MOL   C24110407   6.282   6.768   0.842  0.7711 -0.2170 -0.0224
   14MOL   C24210408   6.313   6.790   0.994  0.0111  0.1392 -0.1392
   14MOL   C24310409   6.455   6.774   1.024 -0.1861  0.1971  0.1016
   14MOL   C24410410   6.470   6.819   1.168  0.3740 -0.3380 -0.6536
   14MOL   O24510411   6.597   6.786   1.216  0.0799  0.5593 -0.4581
   14MOL   C24610412   6.616   6.746   1.342  0.9059  1.0383  0.3365
   14MOL   O24710413   6.524   6.700   1.413  0.1566 -0.5237 -0.7693
   14MOL   C24810414   6.759   6.752   1.388  0.1763  0.0451 -0.5886
   14MOL   C24910415   6.786   6.698   1.512 -0.3878 -0.3228 -0.2196
   14MOL   C25010416   6.918   6.709   1.565  0.2837  0.6576  0.6166
   14MOL   C25110417   7.017   6.773   1.487 -0.2293  0.9821  1.0034
   14MOL   C25210418   7.151   6.782   1.557  0.0839 -0.0107 -0.0889
   14MOL   O25310419   7.172   6.730   1.669  0.0505 -0.1617  0.3006
   14MOL   O25410420   7.247   6.854   1.492 -0.3297  0.0408 -0.0746
   14MOL   C25510421   6.993   6.833   1.364 -0.5777  0.3515 -0.0063
   14MOL   C25610422   6.865   6.817   1.309 -0.4988  0.5723  0.1254
   14MOL   H25710423   6.651   6.828   0.943 -0.5891 -0.5132  3.0238
   14MOL   H25810424   6.537   6.954   0.956  3.7337  0.8419 -0.3718
   14MOL   H25910425   6.562   6.899   0.699  0.6554 -3.6808 -3.4050
   14MOL   H26010426   6.531   6.730   0.747 -1.1598 -0.1229 -1.1200
   14MOL   H26110427   6.349   6.963   0.780  2.1992  0.5249  2.1723
   14MOL   H26210428   6.228   6.893   0.600 -1.1815 -1.9861  0.7169
   14MOL   H26310429   6.398   6.923   0.549  0.2594  1.3098  0.4551
   14MOL   H26410430   6.177   6.795   0.827  0.0709 -3.4361 -1.3455
   14MOL   H26510431   6.289   6.664   0.810 -0.5787 -1.2104  2.7973
   14MOL   H26610432   6.252   6.726   1.058  0.6362  0.8165  1.1441
   14MOL   H26710433   6.281   6.892   1.015  0.8547  0.0004  1.9163
   14MOL   H26810434   6.490   6.671   1.016 -2.0354 -0.3710 -0.8963
   14MOL   H26910435   6.459   6.925   1.190 -0.6090 -0.7557  1.0040
   14MOL   H27010436   6.391   6.777   1.230  1.4500 -1.1604  0.1866
   14MOL   H27110437   6.706   6.666   1.577  0.5698  1.4945  1.9232
   14MOL   H27210438   6.938   6.673   1.665 -1.4821 -0.8616  0.4572
   14MOL   H27310439   7.078   6.887   1.325 -0.5517  1.2125  1.2163
   14MOL   H27410440   6.840   6.853   1.210  0.2225  3.5814  0.9993
   14MOL   C27510441   7.404   7.000   2.029  0.3288  0.4303 -0.3476
   14MOL   C27610442   7.417   7.046   1.886 -0.2545  0.2744  0.8877
   14MOL   C27710443   7.386   6.925   1.793 -0.0525 -0.0351  0.0835
   14MOL   C27810444   7.394   6.958   1.648  0.1945 -0.0599 -0.3650
   14MOL   O27910445   7.376   6.855   1.558 -0.1746  0.3190 -0.2464
   14MOL   C28010446   7.475   6.798   1.819 -0.1955  0.1916  0.0087
   14MOL   C28110447   7.462   6.767   1.973 -0.4171  0.7665  0.5621
   14MOL   C28210448   7.500   6.886   2.058  0.2689 -0.4630 -0.8119
   14MOL   C28310449   7.512   6.866   2.209  0.5013  0.0224  0.2105
   14MOL   O28410450   7.603   6.762   2.229 -0.3884 -0.6247 -0.7079
   14MOL   C28510451   7.716   6.778   2.298 -0.0252 -0.2460  0.2166
   14MOL   O28610452   7.756   6.889   2.336  0.1814 -0.0839 -0.2344
   14MOL   C28710453   7.786   6.642   2.306 -0.3584 -0.1932  0.1434
   14MOL   C28810454   7.719   6.517   2.290 -0.5226 -0.2505  0.4116
   14MOL   C28910455   7.786   6.396   2.306  0.6129  0.1083  0.6566
   14MOL   C29010456   7.926   6.396   2.328  0.6766 -0.4269 -0.2891
   14MOL   C29110457   8.006   6.269   2.340 -0.3242 -0.8080 -0.5492
   14MOL   O29210458   7.953   6.161   2.369 -0.1124  0.1227 -0.3876
   14MOL   O29310459   0.106   6.288   2.312 -0.4010  0.1750 -0.1631
   14MOL   C29410460   7.992   6.522   2.358  0.2572 -0.1840  0.1697
   14MOL   C29510461   7.924   6.641   2.346 -0.2539  0.1143 -0.1744
   14MOL   H29610462   7.423   7.083   2.097  0.4157  0.3437 -0.2654
   14MOL   H29710463   7.299   6.978   2.045  0.0410  1.3668 -0.8802
   14MOL   H29810464   7.352   7.130   1.862  0.2240  0.5870  0.6754
   14MOL   H29910465   7.511   7.096   1.861 -0.5908  1.1310  1.3129
   14MOL   H30010466   7.282   6.899   1.814  0.3103 -1.4514  0.1927
   14MOL   H30110467   7.348   7.052   1.618  1.9699  1.6486  2.1232
   14MOL   H30210468   7.497   6.981   1.621  0.8654 -1.5018  0.8967
   14MOL   H30310469   7.449   6.708   1.763 -0.6287 -0.0755  0.6368
   14MOL   H30410470   7.578   6.821   1.793 -0.3117 -1.4350 -2.0299
   14MOL   H30510471   7.531   6.685   1.992 -0.4811  0.8624  1.1966
   14MOL   H30610472   7.361   6.730   1.994 -0.3463 -0.9291 -1.8986
   14MOL   H30710473   7.595   6.913   2.012  0.0111  1.0804 -0.4799
   14MOL   H30810474   7.523   6.961   2.260 -1.3622 -0.0115  0.7358
   14MOL   H30910475   7.413   6.836   2.245 -1.4201  5.5306  0.0112
   14MOL   H31010476   7.614   6.514   2.263 -0.2575 -0.4124 -0.6458
   14MOL   H31110477   7.734   6.302   2.296  0.7884  0.0280  0.4854
   14MOL   H31210478   0.061   6.515   2.384  0.9681  2.9845 -1.5238
   14MOL   H31310479   7.970   6.738   2.359  0.7134 -0.5267  1.3673
   14MOL   C31410480   0.465   5.837   2.213 -0.7229 -0.6889 -0.0479
   14MOL   C31510481   0.406   5.979   2.236  0.5177 -0.4839 -0.3167
   14MOL   C31610482   0.343   6.004   2.372 -0.2269  0.2146 -0.5761
   14MOL   C31710483   0.280   6.145   2.389 -0.1249 -1.6401 -0.4124
   14MOL   O31810484   0.180   6.160   2.291 -0.0907 -0.1597  0.0603
   14MOL   C31910485   0.233   5.894   2.399  0.0004 -0.2048 -0.6727
   14MOL   C32010486   0.298   5.757   2.379 -0.1919  0.8436 -0.4601
   14MOL   C32110487   0.352   5.732   2.239  0.0025 -0.0379  0.9673
   14MOL   C32210488   0.413   5.589   2.229  0.4332 -0.1872  0.2702
   14MOL   O32310489   0.481   5.569   2.106  0.2900  0.1884  0.0356
   14MOL   C32410490   0.419   5.531   1.989 -0.9400 -0.1431  0.9262
   14MOL   O32510491   0.301   5.519   1.979  0.3137  0.2456 -0.2093
   14MOL   C32610492   0.514   5.503   1.882  0.2998 -0.1525 -0.1024
   14MOL   C32710493   0.640   5.558   1.880 -0.2791 -0.1048 -0.0912
   14MOL   C32810494   0.730   5.535   1.777  0.1182 -0.0083  0.2456
   14MOL   C32910495   0.697   5.447   1.674  0.1220  1.0750  0.3690
   14MOL   C33010496   0.789   5.414   1.564 -0.0279  0.4108 -0.2624
   14MOL   O33110497   0.896   5.473   1.550  0.1731 -0.1037  0.4949
   14MOL   O33210498   0.744   5.315   1.489 -0.1911 -0.6032 -0.3587
   14MOL   C33310499   0.569   5.387   1.674  0.5211  0.8104 -0.2168
   14MOL   C33410500   0.474   5.420   1.775  0.1684  0.5136 -0.5189
   14MOL   H33510501   0.512   5.833   2.115  1.3118 -3.4362  0.9500
   14MOL   H33610502   0.558   5.819   2.269 -0.6685  1.3441  0.5497
   14MOL   H33710503   0.477   6.058   2.214  1.0010 -0.4491  1.2941
   14MOL   H33810504   0.327   5.983   2.161 -0.2354 -0.0181  0.4849
   14MOL   H33910505   0.419   5.985   2.448 -0.4955  0.3042 -0.2858
   14MOL   H34010506   0.240   6.146   2.490  0.6322  1.5137 -0.0782
   14MOL   H34110507   0.350   6.228   2.382 -2.4169  0.3252 -0.8341
   14MOL   H34210508   0.194   5.910   2.500  1.4641  0.0776 -0.1417
   14MOL   H34310509   0.154   5.902   2.324 -1.5335  1.1284  1.0065
   14MOL   H34410510   0.216   5.686   2.388 -1.4182  2.1652 -1.1223
   14MOL   H34510511   0.374   5.749   2.458 -0.2231  0.3976 -0.4748
   14MOL   H34610512   0.276   5.751   2.163  1.5066  0.2705 -0.4858
   14MOL   H34710513   0.488   5.583   2.308  4.1057 -0.0502 -3.0378
   14MOL   H34810514   0.339   5.509   2.226  1.0298 -0.6917 -1.7395
   14MOL   H34910515   0.676   5.631   1.950  1.0341 -1.7622  0.9953
   14MOL   H35010516   0.825   5.586   1.789 -0.1923  1.3208 -2.7229
   14MOL   H35110517   0.541   5.320   1.595 -1.0137 -1.2251  2.0054
   14MOL   H35210518   0.375   5.378   1.766 -0.1890  1.2335 -0.0005
   14MOL   C35310519   1.192   4.978   1.206 -0.7851  0.1864 -0.0852
   14MOL   C35410520   1.085   5.007   1.310  0.3978 -0.2095 -0.1463
   14MOL   C35510521   1.017   5.142   1.288  0.0446  0.6066 -0.1803
   14MOL   C35610522   0.920   5.170   1.407  0.1346  0.2768 -0.0274
   14MOL   O35710523   0.840   5.288   1.376 -0.0994  0.2828  0.0616
   14MOL   C35810524   1.124   5.253   1.271  0.8950 -0.6171  0.3588
   14MOL   C35910525   1.219   5.221   1.159 -0.0473  0.1915  1.2130
   14MOL   C36010526   1.291   5.089   1.183 -0.0879  0.1311  0.4457
   14MOL   C36110527   1.401   5.041   1.084  0.0043 -0.3178  0.7658
   14MOL   O36210528   1.469   4.928   1.140  0.4648  0.2961 -0.0938
   14MOL   C36310529   1.573   4.875   1.076  0.1150 -0.8135  0.5436
   14MOL   O36410530   1.602   4.914   0.963 -0.2460  0.1727 -0.5680
   14MOL   C36510531   1.640   4.768   1.155 -0.2380  0.5338 -0.2774
   14MOL   C36610532   1.621   4.763   1.295 -0.2081  0.7038  1.0000
   14MOL   C36710533   1.689   4.666   1.368 -0.0476 -1.1458  0.1139
   14MOL   C36810534   1.766   4.570   1.311 -0.3912  0.4071  0.0569
   14MOL   C36910535   1.839   4.473   1.399  0.1856  0.0053  0.4163
   14MOL   O37010536   1.812   4.455   1.517 -0.2859 -0.4592 -0.4596
   14MOL   O37110537   1.932   4.407   1.331  0.6108 -0.2803  0.0250
   14MOL   C37210538   1.789   4.573   1.170  0.0422  0.0280 -0.5750
   14MOL   C37310539   1.722   4.671   1.092 -0.2996  0.3190  0.2026
   14MOL   H37410540   1.245   4.883   1.216  0.6089  0.9142 -0.4978
   14MOL   H37510541   1.137   4.955   1.115 -1.5775 -0.4334  0.5366
   14MOL   H37610542   1.016   4.922   1.311 -2.6403  2.1847 -0.3110
   14MOL   H37710543   1.136   5.004   1.407 -0.9658  0.4980  0.5993
   14MOL   H37810544   0.963   5.141   1.193  1.9466  2.2731 -1.3208
   14MOL   H37910545   0.858   5.085   1.436  0.8581  0.1339  1.1069
   14MOL   H38010546   0.987   5.192   1.490  0.6275  1.2050 -0.6579
   14MOL   H38110547   1.082   5.352   1.253  0.9487 -0.5792  0.4457
   14MOL   H38210548   1.182   5.262   1.363  0.8923 -1.2746  0.4318
   14MOL   H38310549   1.279   5.312   1.154 -0.3108  0.3242  0.5155
   14MOL   H38410550   1.163   5.215   1.066 -2.1795  0.5894  2.4309
   14MOL   H38510551   1.339   5.095   1.280 -0.2755 -0.7574  0.5960
   14MOL   H38610552   1.370   5.019   0.982 -2.7970  4.0514  0.5471
   14MOL   H38710553   1.479   5.117   1.084 -1.2553  0.9953 -0.4253
   14MOL   H38810554   1.564   4.839   1.346  0.6420  2.3734 -0.4819
   14MOL   H38910555   1.678   4.666   1.475 -1.5110  0.2605 -0.0227
   14MOL   H39010556   1.866   4.514   1.122  0.2316  2.6504 -3.6689
   14MOL   H39110557   1.728   4.684   0.985  0.1517  3.0801  0.5209
   14MOL   C39210558   2.003   3.802   1.423  0.6633 -0.0994 -0.5472
   14MOL   C39310559   1.935   3.937   1.377  0.3588  0.4720  0.2890
   14MOL   C39410560   2.006   4.059   1.431 -0.3797 -1.0972 -0.3581
   14MOL   C39510561   1.932   4.183   1.377 -0.1848 -0.5917  0.3710
   14MOL   O39610562   2.001   4.303   1.412  0.3479  0.1432  0.4207
   14MOL   C39710563   2.006   4.056   1.581 -0.0778  0.2937  0.6435
   14MOL   C39810564   2.081   3.929   1.634 -0.4291  0.1224  0.4627
   14MOL   C39910565   2.012   3.802   1.583  0.4256  0.0363 -0.0586
   14MOL   C40010566   2.076   3.670   1.630  0.1396  0.1588  0.9887
   14MOL   O40110567   1.994   3.563   1.608 -0.3490 -0.5029 -0.2953
   14MOL   C40210568   1.905   3.536   1.712  0.2487 -0.1815 -0.0148
   14MOL   O40310569   1.904   3.606   1.810 -0.0629  0.2306  0.0740
   14MOL   C40410570   1.800   3.430   1.687  0.2971  0.5276 -0.6930
   14MOL   C40510571   1.821   3.333   1.582 -0.6446 -0.5806  0.7491
   14MOL   C40610572   1.731   3.221   1.570  0.2301 -0.4285 -0.2039
   14MOL   C40710573   1.616   3.209   1.648 -0.4131 -0.2107 -0.0187
   14MOL   C40810574   1.509   3.111   1.614  0.2571  0.1615 -0.0246
   14MOL   O40910575   1.397   3.110   1.669  0.4907 -0.2441  0.1674
   14MOL   O41010576   1.535   3.041   1.507 -0.0221  0.0182  0.8428
   14MOL   C41110577   1.604   3.298   1.757  0.4263 -0.6624  0.1713
   14MOL   C41210578   1.689   3.403   1.776 -0.6078 -0.1338  0.1594
   14MOL   H41310579   1.941   3.718   1.393  1.0802 -0.4149 -0.5174
   14MOL   H41410580   2.107   3.801   1.392  0.6810 -0.6546 -0.4801
   14MOL   H41510581   1.939   3.917   1.270  0.4041  1.8907  0.0167
   14MOL   H41610582   1.829   3.946   1.400  0.0948  0.6142 -0.9410
   14MOL   H41710583   2.113   4.064   1.412 -0.2141 -1.5787  0.4093
   14MOL   H41810584   1.911   4.185   1.270  2.4963  0.5354 -0.1649
   14MOL   H41910585   1.833   4.181   1.424 -1.0586 -1.6487 -1.4530
   14MOL   H42010586   2.054   4.143   1.626  1.4481 -1.6212  2.8045
   14MOL   H42110587   1.907   4.047   1.623 -0.7920 -0.6434 -1.1811
   14MOL   H42210588   2.070   3.930   1.743 -1.4501  0.5303  0.3586
   14MOL   H42310589   2.189   3.921   1.617 -0.6647  0.4699 -1.2790
   14MOL   H42410590   1.905   3.798   1.600  0.4582 -1.3126 -0.1358
   14MOL   H42510591   2.164   3.645   1.570 -1.5986 -0.8214 -1.2434
   14MOL   H42610592   2.106   3.673   1.735 -1.2541  1.8630  1.3715
   14MOL   H42710593   1.904   3.327   1.513  0.7192  0.6202  2.2157
   14MOL   H42810594   1.746   3.149   1.491  2.1142 -0.3204  0.0270
   14MOL   H42910595   1.520   3.280   1.824  2.5412 -3.1080  2.2864
   14MOL   H43010596   1.684   3.467   1.863 -1.0781  0.6640 -0.4388
   14MOL   C43110597   1.183   2.584   1.555 -0.2515  0.3698  0.3567
   14MOL   C43210598   1.301   2.666   1.492  0.4437  0.5416  0.1771
   14MOL   C43310599   1.398   2.723   1.598 -0.4742 -0.2371  0.0156
   14MOL   C43410600   1.500   2.802   1.519 -1.1945 -0.2586  1.0271
   14MOL   O43510601   1.438   2.927   1.479  0.9154  0.2246  0.6795
   14MOL   C43610602   1.323   2.802   1.710  0.0758  0.1168  0.4489
   14MOL   C43710603   1.211   2.713   1.775  0.6335  0.6712 -0.0026
   14MOL   C43810604   1.111   2.654   1.669 -0.8433 -0.1825 -0.4507
   14MOL   C43910605   0.996   2.582   1.747 -0.0723 -0.3658  0.2912
   14MOL   O44010606   1.063   2.484   1.833  0.5298 -0.3503  0.5981
   14MOL   C44110607   1.058   2.358   1.792 -0.0174 -0.3424  0.6050
   14MOL   O44210608   0.985   2.328   1.700 -0.1130 -0.1291  0.0447
   14MOL   C44310609   1.148   2.261   1.866  0.0793  0.2142 -0.2199
   14MOL   C44410610   1.105   2.130   1.884 -0.6176 -0.4089  0.0557
   14MOL   C44510611   1.195   2.038   1.936 -0.1640 -0.1598 -0.0992
   14MOL   C44610612   1.330   2.072   1.968 -0.6888 -0.3843  0.8603
   14MOL   C44710613   1.428   1.972   2.025 -0.2093 -0.3752 -0.0062
   14MOL   O44810614   1.548   1.997   2.042 -0.5795 -0.1903 -0.0852
   14MOL   O44910615   1.372   1.858   2.065  0.5851  0.7435 -0.5229
   14MOL   C45010616   1.368   2.204   1.939 -0.5966 -0.0888  0.1425
   14MOL   C45110617   1.276   2.301   1.896  0.4854 -0.2203 -0.3040
   14MOL   H45210618   1.107   2.557   1.481  0.0373  0.2653  0.0991
   14MOL   H45310619   1.206   2.485   1.593 -0.2468  0.6046  0.9681
   14MOL   H45410620   1.364   2.614   1.420  0.2039 -1.5456  1.4602
   14MOL   H45510621   1.263   2.749   1.432 -2.1486 -1.0726 -0.4567
   14MOL   H45610622   1.436   2.628   1.635 -0.3453 -0.2315 -0.1030
   14MOL   H45710623   1.589   2.834   1.574 -0.5721  1.4128 -0.8830
   14MOL   H45810624   1.535   2.750   1.430 -2.2634  0.4711  0.1657
   14MOL   H45910625   1.394   2.845   1.781 -1.8651  0.4166  2.2400
   14MOL   H46010626   1.269   2.887   1.669  0.6079  0.8404  1.2316
   14MOL   H46110627   1.147   2.762   1.848 -1.5644 -2.7683  0.4771
   14MOL   H46210628   1.266   2.637   1.830 -0.4213  0.0568  0.2251
   14MOL   H46310629   1.048   2.732   1.625 -2.5943 -0.4598  1.4874
   14MOL   H46410630   0.943   2.658   1.804 -0.8757  0.4359 -1.5004
   14MOL   H46510631   0.929   2.538   1.673  0.8756 -1.0728 -0.1540
   14MOL   H46610632   1.004   2.104   1.857 -1.0795  0.9304  0.4553
   14MOL   H46710633   1.165   1.935   1.939  0.0081 -0.2124 -0.1501
   14MOL   H46810634   1.472   2.234   1.942  0.2309 -2.9028  0.8414
   14MOL   H46910635   1.303   2.404   1.878  0.8999 -0.3944 -0.6765
   14MOL   C47010636   1.709   1.408   2.285 -0.5540 -0.0749 -0.1096
   14MOL   C47110637   1.597   1.502   2.241  0.4900  0.3461 -0.4123
   14MOL   C47210638   1.628   1.566   2.105 -0.3032 -0.5242 -0.0243
   14MOL   C47310639   1.511   1.650   2.046  0.8354  0.3325  0.0968
   14MOL   O47410640   1.473   1.757   2.134 -0.2691  0.1615  0.2025
   14MOL   C47510641   1.757   1.649   2.122  1.0646  0.8339  0.0951
   14MOL   C47610642   1.864   1.546   2.166 -0.1858 -0.4084  0.5976
   14MOL   C47710643   1.840   1.481   2.295  0.0623 -0.5511 -0.1711
   14MOL   C47810644   1.956   1.379   2.333  0.7318  0.4492 -0.7505
   14MOL   O47910645   2.089   1.430   2.309 -0.9020 -0.4807 -0.2063
   14MOL   C48010646   2.153   1.509   2.407  0.5134  0.7928 -0.1542
   14MOL   O48110647   2.121   1.501   2.532 -0.5574 -0.3030  0.1270
   14MOL   C48210648   2.241   1.611   2.346 -0.1172 -0.9361 -0.5012
   14MOL   C48310649   2.283   1.607   2.209 -0.4560  0.4902  0.0973
   14MOL   C48410650   2.384   1.695   2.166  0.1855 -0.0008  0.5183
   14MOL   C48510651   2.452   1.789   2.255 -0.2323  0.2210  0.0398
   14MOL   C48610652   2.557   1.884   2.219 -0.2330 -0.1239  0.1469
   14MOL   O48710653   2.583   1.984   2.290  0.2546  0.2320 -0.2949
   14MOL   O48810654   2.622   1.851   2.112 -0.2978 -0.0408 -0.0668
   14MOL   C48910655   2.412   1.782   2.385 -0.1321  0.0639 -0.9043
   14MOL   C49010656   2.309   1.699   2.434 -0.1939  0.2690 -0.5320
   14MOL   H49110657   1.678   1.375   2.384  0.0248 -3.2197 -0.8974
   14MOL   H49210658   1.697   1.307   2.243  1.5183 -1.3721  2.3156
   14MOL   H49310659   1.498   1.456   2.242  0.6049  0.1082 -0.2209
   14MOL   H49410660   1.585   1.575   2.321  0.4148 -1.8785  1.6404
   14MOL   H49510661   1.636   1.475   2.045 -1.9064 -1.3288  0.9643
   14MOL   H49610662   1.544   1.687   1.949 -0.3156  0.5781 -0.2056
   14MOL   H49710663   1.420   1.592   2.028  0.7600  0.8138 -1.0999
   14MOL   H49810664   1.789   1.698   2.030 -2.1785  1.5666 -0.6757
   14MOL   H49910665   1.733   1.718   2.203 -2.7769 -0.9991  0.6387
   14MOL   H50010666   1.962   1.593   2.172  0.6781 -2.1414  0.4766
   14MOL   H50110667   1.872   1.477   2.082 -0.3772  2.6522 -1.9954
   14MOL   H50210668   1.841   1.548   2.381  2.4434 -2.0263  1.0210
   14MOL   H50310669   1.953   1.339   2.435  1.3860  1.3138 -0.3883
   14MOL   H50410670   1.943   1.292   2.270  0.9768 -1.2567  1.4702
   14MOL   H50510671   2.232   1.541   2.140  0.4462  1.2483 -1.3190
   14MOL   H50610672   2.416   1.700   2.063 -0.4824 -0.5602  0.2812
   14MOL   H50710673   2.458   1.840   2.464 -0.3726  1.0979 -1.5118
   14MOL   H50810674   2.286   1.691   2.539  1.2541 -0.0844 -0.2296
   14MOL   C50910675   2.962   2.309   2.108  0.7427 -0.0793 -1.1627
   14MOL   C51010676   2.841   2.216   2.108  0.7055  0.1405  0.4687
   14MOL   C51110677   2.859   2.110   1.990  0.0590 -0.4328 -0.6938
   14MOL   C51210678   2.737   2.014   1.992  0.2699 -0.7111 -0.1868
   14MOL   O51310679   2.754   1.917   2.090 -0.0549 -0.3604  0.0813
   14MOL   C51410680   2.875   2.187   1.864  0.5886  0.9553  0.0889
   14MOL   C51510681   2.993   2.283   1.858 -0.5500 -0.1053  0.2250
   14MOL   C51610682   2.997   2.384   1.979  0.2838  0.0366  0.1511
   14MOL   C51710683   3.141   2.448   1.997  0.3090  0.6231  0.0217
   14MOL   O51810684   3.130   2.572   2.070  0.7061 -0.5977  0.7895
   14MOL   C51910685   3.231   2.606   2.154 -0.4618 -0.6531 -0.3620
   14MOL   O52010686   3.322   2.529   2.185  0.5293 -0.4015 -0.1568
   14MOL   C52110687   3.221   2.745   2.214 -0.0441  0.0251  0.2400
   14MOL   C52210688   3.327   2.791   2.293 -0.0453 -0.6655  0.2240
   14MOL   C52310689   3.333   2.919   2.340 -0.3579  0.5322  0.4488
   14MOL   C52410690   3.228   3.014   2.315  0.0044  0.4595  0.0113
   14MOL   C52510691   3.241   3.151   2.369  0.1124 -0.5307 -0.6996
   14MOL   O52610692   3.337   3.187   2.439 -0.2527  0.9194  0.3048
   14MOL   O52710693   3.142   3.235   2.332 -0.3241  0.3689 -0.1736
   14MOL   C52810694   3.112   2.968   2.250  0.1573  0.3577  0.3566
   14MOL   C52910695   3.118   2.836   2.195  0.2334  0.1953  0.1220
   14MOL   H53010696   2.964   2.385   2.186  0.1744 -0.8079 -0.4321
   14MOL   H53110697   3.050   2.259   2.149  0.9217 -0.0358 -1.4937
   14MOL   H53210698   2.838   2.162   2.203 -0.8164  2.1676  1.6252
   14MOL   H53310699   2.743   2.263   2.099  1.1424  0.7396 -1.3599
   14MOL   H53410700   2.950   2.049   1.998  1.3404  1.3731 -1.1039
   14MOL   H53510701   2.643   2.067   2.006 -0.0208 -1.4777  0.8730
   14MOL   H53610702   2.730   1.960   1.898  0.4616 -2.1816  0.6295
   14MOL   H53710703   2.885   2.125   1.775 -1.5421  0.8893 -0.1340
   14MOL   H53810704   2.783   2.246   1.856 -2.0067 -2.7948  1.0500
   14MOL   H53910705   2.998   2.336   1.763  0.8042 -0.9424 -0.1793
   14MOL   H54010706   3.079   2.216   1.861  0.0052  0.6424  1.2859
   14MOL   H54110707   2.922   2.462   1.968 -0.5073 -0.9631 -1.7211
   14MOL   H54210708   3.208   2.374   2.041  0.6604  1.1170  0.3224
   14MOL   H54310709   3.186   2.469   1.900 -0.8424 -2.6732 -1.3223
   14MOL   H54410710   3.417   2.735   2.313  1.5172  1.5876 -0.3403
   14MOL   H54510711   3.424   2.957   2.384  0.7659  0.9199 -2.1290
   14MOL   H54610712   3.020   3.019   2.223 -0.3812  0.6123  2.5658
   14MOL   H54710713   3.040   2.803   2.128  1.1638  1.3257 -1.5278
   14MOL   C54810714   3.202   3.782   2.556  0.8441 -0.4492 -0.0567
   14MOL   C54910715   3.212   3.631   2.532 -0.6273 -0.0917  0.0118
   14MOL   C55010716   3.077   3.573   2.487  1.5054 -0.4912 -0.6610
   14MOL   C55110717   3.078   3.421   2.469  0.0088 -0.1985  0.1424
   14MOL   O55210718   3.163   3.382   2.372  0.0071 -0.0589 -0.1893
   14MOL   C55310719   2.970   3.608   2.588  0.3685 -0.2689  0.0637
   14MOL   C55410720   2.960   3.759   2.614 -0.3207  0.1294 -0.0364
   14MOL   C55510721   3.100   3.815   2.660  0.0736  0.5832 -0.4485
   14MOL   C55610722   3.092   3.963   2.701 -0.2237  0.4722 -0.1413
   14MOL   O55710723   2.992   4.005   2.785  0.0882 -0.1637  0.4930
   14MOL   C55810724   2.968   3.962   2.905  0.0626  0.6823  0.3366
   14MOL   O55910725   3.039   3.881   2.957 -0.2823 -0.0042  0.0451
   14MOL   C56010726   2.853   4.027   2.972  0.2956  0.6474  0.7344
   14MOL   C56110727   2.772   4.129   2.912 -0.3685 -0.2828 -0.7099
   14MOL   C56210728   2.671   4.195   2.982 -0.4371  0.0266  0.0964
   14MOL   C56310729   2.652   4.158   3.125  0.1340 -0.6221  0.8292
   14MOL   C56410730   2.539   4.221   3.203 -1.1384 -0.7179 -0.4603
   14MOL   O56510731   2.463   4.292   3.135 -0.1729  0.5493 -0.6604
   14MOL   O56610732   2.527   4.187   3.327 -0.2220  0.4418 -0.2177
   14MOL   C56710733   2.727   4.058   3.178 -0.2648  0.9136  0.2153
   14MOL   C56810734   2.829   3.991   3.108  0.0585  0.7206  0.7637
   14MOL   H56910735   3.304   3.821   2.566  1.4417 -1.0599 -3.0961
   14MOL   H57010736   3.166   3.824   2.462  0.1065 -1.8617 -0.4121
   14MOL   H57110737   3.284   3.602   2.455  1.3062  2.3938  0.8127
   14MOL   H57210738   3.246   3.584   2.624  1.2323  1.8238  0.3277
   14MOL   H57310739   3.049   3.628   2.397  1.4966  0.5734 -0.0199
   14MOL   H57410740   3.101   3.369   2.562 -0.2117 -0.2835  0.1493
   14MOL   H57510741   2.980   3.380   2.446  0.4427 -1.1596 -0.0304
   14MOL   H57610742   2.877   3.568   2.548 -0.4492 -0.6900  2.3018
   14MOL   H57710743   2.993   3.548   2.676 -0.8542  0.5737  0.9827
   14MOL   H57810744   2.894   3.770   2.700 -0.1417 -0.6180  0.2061
   14MOL   H57910745   2.925   3.824   2.534  1.1347  1.2317  0.2138
   14MOL   H58010746   3.121   3.749   2.744 -0.0938 -0.6976 -1.3888
   14MOL   H58110747   3.192   3.993   2.735 -0.2275 -0.6038  0.8336
   14MOL   H58210748   3.082   4.022   2.610 -0.1665 -1.7114 -1.6039
   14MOL   H58310749   2.786   4.159   2.809 -2.8836 -0.7339 -1.2283
   14MOL   H58410750   2.615   4.277   2.940 -1.6243 -1.2810 -0.9111
   14MOL   H58510751   2.699   4.019   3.275  2.7146  0.9403  1.1415
   14MOL   H58610752   2.884   3.911   3.154 -0.5827 -1.5458 -2.3001
   14MOL   C58710753   2.204   4.644   3.582  0.0455  0.0037  0.0808
   14MOL   C58810754   2.348   4.586   3.539  0.0432 -0.4846  0.2498
   14MOL   C58910755   2.324   4.442   3.508 -0.0121 -0.5511 -0.1740
   14MOL   C59010756   2.452   4.377   3.454  0.1942  0.3909 -0.0658
   14MOL   O59110757   2.415   4.252   3.393  0.5063  0.0404 -0.2223
   14MOL   C59210758   2.275   4.365   3.639  0.1229  0.0724 -0.1768
   14MOL   C59310759   2.140   4.421   3.681 -0.3147 -0.0957  0.6898
   14MOL   C59410760   2.152   4.573   3.706  0.6434  0.4482 -0.5156
   14MOL   C59510761   2.020   4.633   3.761  0.5089  0.2368 -0.5854
   14MOL   O59610762   2.031   4.774   3.777  0.3135 -0.0132 -1.1240
   14MOL   C59710763   2.067   4.821   3.900  0.0435  0.0703 -0.1762
   14MOL   O59810764   2.088   4.754   4.003 -0.8312 -1.1248 -0.5152
   14MOL   C59910765   2.084   4.969   3.900 -0.2224  0.2172 -0.5160
   14MOL   C60010766   2.132   5.035   4.015  0.2275  1.1068 -1.4053
   14MOL   C60110767   2.147   5.179   4.012 -0.5668  0.0280 -0.3292
   14MOL   C60210768   2.126   5.256   3.895 -1.3054 -0.4643  0.3015
   14MOL   C60310769   2.149   5.400   3.889 -0.2915  0.1503 -0.7157
   14MOL   O60410770   2.151   5.478   3.991 -0.3854  0.0796  0.5951
   14MOL   O60510771   2.183   5.444   3.766  0.2941 -0.6318  0.2361
   14MOL   C60610772   2.084   5.183   3.778 -0.4410  0.0876  0.0845
   14MOL   C60710773   2.057   5.048   3.784 -0.2857  0.5098  0.0333
   14MOL   H60810774   2.208   4.751   3.599 -2.3475  0.5495 -2.4674
   14MOL   H60910775   2.132   4.645   3.500 -1.0401 -0.5688  1.0215
   14MOL   H61010776   2.379   4.639   3.449 -0.3533 -1.7208 -0.6302
   14MOL   H61110777   2.433   4.602   3.605 -1.7189 -1.1545  2.7442
   14MOL   H61210778   2.248   4.438   3.430 -0.7139  1.0236  0.4105
   14MOL   H61310779   2.493   4.448   3.383  1.2098  0.8453  0.9539
   14MOL   H61410780   2.530   4.361   3.529 -0.9035  0.9154  1.2079
   14MOL   H61510781   2.268   4.256   3.630 -2.8925  0.1510  0.7469
   14MOL   H61610782   2.354   4.381   3.712  0.6449 -0.7821 -0.5319
   14MOL   H61710783   2.104   4.364   3.767  0.5764 -1.1240  0.3935
   14MOL   H61810784   2.057   4.403   3.613  0.3135 -0.4274  0.0009
   14MOL   H61910785   2.227   4.600   3.780 -0.9849  1.0374  0.9677
   14MOL   H62010786   1.941   4.628   3.686 -0.3817  1.3446  0.2568
   14MOL   H62110787   1.987   4.577   3.849  0.1903  0.8195 -0.3348
   14MOL   H62210788   2.145   4.980   4.108  0.5859  2.3132 -0.7363
   14MOL   H62310789   2.168   5.236   4.101  0.2769  0.0146 -0.5151
   14MOL   H62410790   2.047   5.236   3.692 -0.1304 -0.4936 -0.4087
   14MOL   H62510791   2.032   5.005   3.688  0.8632  1.7637 -0.8457
   14MOL   C62610792   2.594   5.487   3.474  0.5743 -0.7690  0.0327
   14MOL   C62710793   2.552   5.526   3.617  0.6310 -0.4183  0.3338
   14MOL   C62810794   2.400   5.555   3.615 -0.5740  0.3045  1.1643
   14MOL   C62910795   2.352   5.598   3.751  0.1995  1.0659 -0.6369
   14MOL   O63010796   2.211   5.590   3.758  0.4838 -0.0923 -0.6449
   14MOL   C63110797   2.369   5.676   3.521 -0.0457  0.1997  0.0539
   14MOL   C63210798   2.427   5.653   3.373  0.1467 -0.3426 -0.1429
   14MOL   C63310799   2.575   5.603   3.371 -0.5107 -0.5997  0.2635
   14MOL   C63410800   2.612   5.555   3.226  0.3786  0.7611 -0.2799
   14MOL   O63510801   2.746   5.559   3.204  0.6684 -0.3920  0.1852
   14MOL   C63610802   2.797   5.559   3.084  0.0486 -0.6364 -0.2492
   14MOL   O63710803   2.735   5.573   2.976  0.0333  0.6071  0.1436
   14MOL   C63810804   2.939   5.525   3.092  0.6347  0.2789  0.0322
   14MOL   C63910805   3.005   5.503   2.971  0.5866  0.3033  0.6826
   14MOL   C64010806   3.138   5.451   2.967 -0.6691 -0.1567 -0.0303
   14MOL   C64110807   3.204   5.423   3.083 -0.6179  0.1134  0.0126
   14MOL   C64210808   3.333   5.354   3.090 -0.5621 -0.8219  0.2893
   14MOL   O64310809   3.394   5.319   3.186 -0.0717 -0.4148 -0.6497
   14MOL   O64410810   3.391   5.343   2.967 -0.5216 -0.0253  0.3196
   14MOL   C64510811   3.146   5.458   3.207  0.6134 -0.2792 -0.5904
   14MOL   C64610812   3.010   5.506   3.213 -0.2812  0.5937  0.1714
   14MOL   H64710813   2.700   5.461   3.480  1.4381  2.2310 -0.9534
   14MOL   H64810814   2.554   5.393   3.439 -0.3876 -0.4726  0.3262
   14MOL   H64910815   2.575   5.447   3.689  2.4677  1.3357  1.7127
   14MOL   H65010816   2.610   5.609   3.656 -1.4946  1.9385 -1.3654
   14MOL   H65110817   2.336   5.470   3.587 -1.4575  0.5885  2.2971
   14MOL   H65210818   2.399   5.530   3.823  0.1197  0.2394 -1.3592
   14MOL   H65310819   2.392   5.696   3.777 -0.0384  0.6874  1.2717
   14MOL   H65410820   2.267   5.713   3.510 -0.0808 -0.1600 -0.9117
   14MOL   H65510821   2.419   5.767   3.555  0.1114  0.5985 -1.2007
   14MOL   H65610822   2.415   5.745   3.316  0.6732  0.6969  1.3761
   14MOL   H65710823   2.370   5.578   3.319  3.2629 -1.3016 -2.2717
   14MOL   H65810824   2.632   5.689   3.407 -1.7195  0.1475  0.3983
   14MOL   H65910825   2.577   5.453   3.212  2.1990  0.1118 -0.2319
   14MOL   H66010826   2.560   5.626   3.161  0.1541 -0.6087 -1.6264
   14MOL   H66110827   2.955   5.521   2.877  1.1899 -1.7022 -0.0412
   14MOL   H66210828   3.184   5.418   2.875 -1.4320  1.6821 -1.0960
   14MOL   H66310829   3.206   5.435   3.294 -0.0926 -0.0210 -0.0301
   14MOL   H66410830   2.974   5.528   3.313 -0.5099 -1.7545  0.6206
   14MOL   C66510831   3.991   5.290   2.988 -0.5309  0.5334  0.2600
   14MOL   C66610832   3.867   5.368   2.943 -0.4357 -0.1491 -0.8237
   14MOL   C66710833   3.751   5.277   2.970  0.2299  0.2202 -0.3021
   14MOL   C66810834   3.626   5.350   2.954  0.3629 -0.0125 -1.1134
   14MOL   O66910835   3.516   5.264   2.954  0.1195  0.2811 -0.6610
   14MOL   C67010836   3.754   5.156   2.879  0.3993 -0.0941 -0.2656
   14MOL   C67110837   3.862   5.068   2.916  0.0769  0.4729 -0.2212
   14MOL   C67210838   3.995   5.149   2.921  0.2915  0.5636  0.8372
   14MOL   C67310839   4.111   5.066   2.969  0.2276 -0.7604  0.0184
   14MOL   O67410840   4.091   5.003   3.099  0.0182  0.3769  0.1446
   14MOL   C67510841   4.189   4.931   3.154  0.2883 -0.3552 -0.0791
   14MOL   O67610842   4.303   4.922   3.102 -1.1391 -0.2113 -0.4747
   14MOL   C67710843   4.138   4.858   3.268 -0.7287  0.5793 -0.0949
   14MOL   C67810844   4.224   4.750   3.319 -0.0950 -1.0028  0.0609
   14MOL   C67910845   4.188   4.669   3.430  0.2472  0.6400  0.4918
   14MOL   C68010846   4.054   4.681   3.470  0.3069 -0.1843 -0.2152
   14MOL   C68110847   3.999   4.581   3.573  0.0246  0.4121 -0.0998
   14MOL   O68210848   3.890   4.526   3.569 -0.4351  0.3014 -0.1589
   14MOL   O68310849   4.084   4.573   3.680 -0.3851 -0.0605 -0.0646
   14MOL   C68410850   3.963   4.772   3.412 -0.4206  0.5249  0.2194
   14MOL   C68510851   4.003   4.865   3.316  0.3705 -0.2775 -0.0225
   14MOL   H68610852   4.075   5.345   2.944 -0.1071  0.2162  0.6697
   14MOL   H68710853   3.988   5.291   3.097  0.7734  1.4747  0.3051
   14MOL   H68810854   3.866   5.456   3.007 -2.1067 -2.3005  2.2227
   14MOL   H68910855   3.886   5.402   2.841 -0.9837  0.9591 -0.5617
   14MOL   H69010856   3.741   5.234   3.070 -0.3384 -0.1368 -0.5102
   14MOL   H69110857   3.609   5.408   3.045  2.8576 -2.4090  0.9589
   14MOL   H69210858   3.627   5.413   2.864 -2.5428  1.1994 -0.3384
   14MOL   H69310859   3.673   5.085   2.896  0.0520  0.4457  0.3500
   14MOL   H69410860   3.746   5.184   2.774 -3.9490  1.2530  0.3267
   14MOL   H69510861   3.877   4.984   2.848  2.4085 -1.0105  2.0421
   14MOL   H69610862   3.842   5.026   3.014  0.9029  2.2593  0.7403
   14MOL   H69710863   4.032   5.150   2.819  1.1597  0.1759  1.1488
   14MOL   H69810864   4.118   4.986   2.895  1.5298 -0.7333  0.0955
   14MOL   H69910865   4.210   5.109   2.958 -0.8907  1.3363 -2.1846
   14MOL   H70010866   4.320   4.732   3.272  0.9135 -1.1722  2.1190
   14MOL   H70110867   4.263   4.603   3.470  0.4634  1.3309  1.2404
   14MOL   H70210868   3.864   4.779   3.453 -1.1815  1.8282 -1.7657
   14MOL   H70310869   3.927   4.937   3.292 -0.8321 -1.2633  0.7368
   14MOL   C70410870   4.058   4.385   4.209 -0.2051  1.0844  0.1670
   14MOL   C70510871   4.090   4.451   4.081 -0.5773  0.3201 -0.5256
   14MOL   C70610872   3.968   4.536   4.036 -0.2949 -0.5209 -0.4175
   14MOL   C70710873   3.995   4.603   3.896  0.0005  0.1896  0.8984
   14MOL   O70810874   4.029   4.507   3.806 -0.5700 -0.1486 -0.1369
   14MOL   C70910875   3.831   4.468   4.032 -0.1950 -0.5002  0.2303
   14MOL   C71010876   3.805   4.400   4.164 -0.5783 -0.1472 -0.0048
   14MOL   C71110877   3.920   4.302   4.194  0.1894  0.0627 -0.1765
   14MOL   C71210878   3.900   4.188   4.289  0.7317 -0.0996 -0.6982
   14MOL   O71310879   3.855   4.225   4.416 -0.3068 -0.1702  0.0388
   14MOL   C71410880   3.726   4.235   4.450  0.2087  0.5832  0.0106
   14MOL   O71510881   3.630   4.207   4.378 -0.6237  0.1932  0.3227
   14MOL   C71610882   3.712   4.295   4.583  0.6033  0.5712 -0.0361
   14MOL   C71710883   3.583   4.328   4.630 -0.0291  0.4828  0.2687
   14MOL   C71810884   3.568   4.362   4.769  1.1835  0.2350 -0.1047
   14MOL   C71910885   3.682   4.360   4.856  0.6544  0.9936 -0.0440
   14MOL   C72010886   3.671   4.384   5.001 -0.1425 -0.0535 -0.1802
   14MOL   O72110887   3.767   4.378   5.080 -0.0746 -0.3901 -0.2089
   14MOL   O72210888   3.544   4.422   5.041 -0.4337 -0.2491  0.3683
   14MOL   C72310889   3.808   4.344   4.803  0.6170 -0.5721 -0.7130
   14MOL   C72410890   3.826   4.305   4.667 -0.0240  0.6855  0.0226
   14MOL   H72510891   4.139   4.315   4.230  2.1119  3.4779 -0.5703
   14MOL   H72610892   4.069   4.450   4.296  0.3297  0.8799  0.2521
   14MOL   H72710893   4.170   4.516   4.116 -1.2464  0.6500  0.4119
   14MOL   H72810894   4.118   4.385   3.999 -1.3424  0.3775 -0.8376
   14MOL   H72910895   3.961   4.609   4.116  1.5485 -0.6439 -0.1253
   14MOL   H73010896   3.903   4.648   3.861  0.3472 -0.3564 -0.7334
   14MOL   H73110897   4.075   4.676   3.901 -1.4039  2.0110 -1.9359
   14MOL   H73210898   3.751   4.539   4.009 -0.1141 -0.4353  0.1453
   14MOL   H73310899   3.824   4.393   3.953  0.2862  0.7909 -1.0799
   14MOL   H73410900   3.706   4.354   4.172  0.0544 -1.3333  1.2049
   14MOL   H73510901   3.805   4.473   4.244 -0.6003  0.0132 -0.1514
   14MOL   H73610902   3.939   4.246   4.101  1.0675 -0.6220  0.3993
   14MOL   H73710903   3.818   4.126   4.253  0.6944  0.9912 -2.5871
   14MOL   H73810904   3.980   4.114   4.298  1.8700  1.1778 -0.0522
   14MOL   H73910905   3.499   4.329   4.562  0.9838  1.0598 -0.9986
   14MOL   H74010906   3.471   4.385   4.809  0.3749 -0.8710 -1.3640
   14MOL   H74110907   3.894   4.350   4.868  0.4808 -0.6004 -0.5304
   14MOL   H74210908   3.927   4.286   4.634 -0.1446 -0.9416  0.5512
   14MOL   C74310909   3.661   4.278   5.556 -0.2182  0.2954  0.4124
   14MOL   C74410910   3.620   4.274   5.409  0.5303 -0.1395  0.1269
   14MOL   C74510911   3.485   4.343   5.386 -0.7865 -0.1581 -0.4916
   14MOL   C74610912   3.453   4.343   5.241  0.7316 -0.3097 -0.3349
   14MOL   O74710913   3.520   4.454   5.182  1.0401  0.9814 -0.1287
   14MOL   C74810914   3.382   4.255   5.455  0.1335  0.1894  0.4343
   14MOL   C74910915   3.417   4.251   5.609 -0.0504  0.3459 -0.0611
   14MOL   C75010916   3.556   4.195   5.634 -0.1160 -0.2239  0.0009
   14MOL   C75110917   3.596   4.195   5.785 -0.3110  0.6727 -0.9197
   14MOL   O75210918   3.504   4.117   5.859 -0.1029  0.2547 -0.0812
   14MOL   C75310919   3.526   4.082   5.985  0.2820 -0.6008  0.0923
   14MOL   O75410920   3.604   4.148   6.058 -0.1309  0.5823  0.3878
   14MOL   C75510921   3.457   3.958   6.028 -0.6893  0.4055  0.2764
   14MOL   C75610922   3.345   3.905   5.960 -0.2295  0.2023  0.1263
   14MOL   C75710923   3.280   3.786   5.997  0.6307  0.8808  0.2469
   14MOL   C75810924   3.321   3.714   6.103 -1.0327  0.5905  0.0753
   14MOL   C75910925   3.255   3.583   6.144 -0.2448  0.1231  0.2370
   14MOL   O76010926   3.295   3.517   6.242  0.4489 -0.0231  0.2753
   14MOL   O76110927   3.143   3.545   6.077 -0.0130 -0.1726 -0.2884
   14MOL   C76210928   3.421   3.775   6.190  0.7562 -0.8454 -0.3413
   14MOL   C76310929   3.490   3.896   6.154 -0.2633 -0.1767  0.2760
   14MOL   H76410930   3.757   4.226   5.555 -1.0800 -1.3305  0.7536
   14MOL   H76510931   3.670   4.379   5.595  0.4730 -0.2621  1.7076
   14MOL   H76610932   3.696   4.329   5.352 -0.6277 -1.2678 -2.5909
   14MOL   H76710933   3.639   4.175   5.369  1.3538  0.0014  0.1557
   14MOL   H76810934   3.474   4.439   5.436  0.7884  0.8387 -2.0109
   14MOL   H76910935   3.481   4.249   5.194  0.5877 -0.0826 -0.8879
   14MOL   H77010936   3.348   4.353   5.214  0.9798  3.0165 -0.3317
   14MOL   H77110937   3.288   4.311   5.451  0.1699  0.1909 -0.7297
   14MOL   H77210938   3.366   4.155   5.415 -0.4771 -0.4124  2.1433
   14MOL   H77310939   3.349   4.191   5.670  0.8207  0.4208  0.9848
   14MOL   H77410940   3.407   4.352   5.647 -0.9433 -0.0565  0.7926
   14MOL   H77510941   3.567   4.095   5.592 -1.9650 -0.7116  0.6620
   14MOL   H77610942   3.695   4.153   5.808 -1.6043 -1.0192  1.8499
   14MOL   H77710943   3.595   4.298   5.821 -0.9982 -0.2956  2.0241
   14MOL   H77810944   3.302   3.958   5.876 -1.1293 -1.2586 -0.3536
   14MOL   H77910945   3.202   3.749   5.932 -0.1334  3.1410 -0.1526
   14MOL   H78010946   3.447   3.726   6.283 -1.2136  1.2851  1.3986
   14MOL   H78110947   3.579   3.933   6.204 -0.6781  2.2713 -0.7077
   14MOL   H78210948   3.136   3.452   6.089 -1.6316 -0.2364 -1.4861
   15MOL     C110949   1.084   0.656   0.667 -0.4267  0.4030  0.3836
   15MOL     C210950   1.040   0.808   0.687  1.1413  0.8961 -0.5605
   15MOL     C310951   1.111   0.864   0.809  0.0194  0.0987  0.2028
   15MOL     C410952   1.096   1.012   0.857  0.0657 -0.2142  0.0928
   15MOL     O510953   1.146   1.093   0.757 -0.6632 -0.3073 -0.2828
   15MOL     C610954   1.067   0.778   0.925 -0.7519 -0.7570  0.5392
   15MOL     C710955   1.120   0.635   0.903  0.3477  0.2464  0.5141
   15MOL     C810956   1.061   0.560   0.787  0.1114 -0.0978 -0.3456
   15MOL     C910957   1.126   0.422   0.759  1.0889 -0.9821 -0.5934
   15MOL    O1010958   1.140   0.349   0.876 -0.1188 -0.5757 -1.0217
   15MOL    C1110959   1.043   0.287   0.925 -0.0688  0.0561  0.0506
   15MOL    O1210960   0.924   0.312   0.887 -0.4720  0.2766  0.2890
   15MOL    C1310961   1.085   0.202   1.036 -0.2978  0.1433  0.6015
   15MOL    C1410962   0.989   0.156   1.127  0.0752 -0.1287  0.1804
   15MOL    C1510963   1.029   0.090   1.245 -0.0217  0.6446  0.0269
   15MOL    C1610964   1.162   0.049   1.262  0.2391  0.4025  0.0439
   15MOL    C1710965   1.198   8.000   1.382  0.2443 -0.2403 -0.1253
   15MOL    O1810966   1.108   7.945   1.444 -0.3455  0.7344  0.0283
   15MOL    O1910967   1.334   7.973   1.397 -0.4935  0.0924 -0.4467
   15MOL    C2010968   1.264   0.089   1.170  0.0679  0.0187 -0.2760
   15MOL    C2110969   1.223   0.169   1.059 -0.0940  0.0969 -0.4038
   15MOL    H2210970   1.022   0.621   0.584 -1.9475  0.0636  1.6478
   15MOL    H2310971   1.189   0.646   0.637  0.2523  1.3460  2.3697
   15MOL    H2410972   1.059   0.873   0.602 -0.0846  1.1516 -0.6409
   15MOL    H2510973   0.935   0.823   0.713  1.0034 -0.6855 -0.1826
   15MOL    H2610974   1.217   0.844   0.793 -0.2307  0.2352 -1.6943
   15MOL    H2710975   0.992   1.045   0.860  1.0820  3.2469 -0.5448
   15MOL    H2810976   1.149   1.026   0.951  1.6581 -2.3633 -0.4314
   15MOL    H2910977   1.125   0.821   1.007 -0.2837  3.5440 -1.9047
   15MOL    H3010978   0.960   0.781   0.947 -0.6530 -0.3825  0.9796
   15MOL    H3110979   1.094   0.586   0.998 -0.0913  0.2145  0.3805
   15MOL    H3210980   1.228   0.640   0.900  0.2618  1.1482 -2.1547
   15MOL    H3310981   0.955   0.548   0.808 -0.0697 -0.0782 -1.2222
   15MOL    H3410982   1.070   0.348   0.701  1.3897 -1.0061 -0.8530
   15MOL    H3510983   1.225   0.447   0.722  0.3353  0.3247 -1.8255
   15MOL    H3610984   0.884   0.178   1.111  0.3119 -0.3030 -1.7721
   15MOL    H3710985   0.955   0.072   1.321  0.4886  1.2494  0.6857
   15MOL    H3810986   1.370   0.070   1.176 -0.0759 -0.9263 -0.5969
   15MOL    H3910987   1.298   0.213   0.995  1.0457  0.8721  1.4328
   15MOL    H4010988   1.081   1.098   0.688 -1.0995  1.7821  0.2439
   15MOL    C4110989   1.526   7.418   1.581 -0.3227 -0.2562  0.2673
   15MOL    C4210990   1.466   7.512   1.478 -0.4662  0.6097  0.1766
   15MOL    C4310991   1.424   7.645   1.541 -0.6176 -0.4450  0.0958
   15MOL    C4410992   1.375   7.745   1.439  0.3888 -0.3881  0.0748
   15MOL    O4510993   1.348   7.869   1.504 -0.5827 -0.0348  0.4607
   15MOL    C4610994   1.304   7.615   1.637 -0.0940  0.0491  0.1728
   15MOL    C4710995   1.342   7.503   1.740 -0.1692  0.6596 -0.8663
   15MOL    C4810996   1.417   7.379   1.684  0.1299 -0.1118  0.1871
   15MOL    C4910997   1.483   7.296   1.789 -0.0135  0.1620 -0.2501
   15MOL    O5010998   1.401   7.229   1.881 -0.3041 -0.1857 -0.4401
   15MOL    C5110999   1.367   7.104   1.869 -0.0097  0.1270 -0.0406
   15MOL    O5211000   1.379   7.050   1.759 -0.3728  0.0188  0.4020
   15MOL    C5311001   1.304   7.043   1.990  0.5357 -0.2373  0.4502
   15MOL    C5411002   1.288   7.105   2.116  0.1622 -0.2292 -0.4677
   15MOL    C5511003   1.237   7.040   2.228 -0.1456 -0.1283  0.5724
   15MOL    C5611004   1.186   6.912   2.212 -0.1290  0.1099  0.4435
   15MOL    C5711005   1.109   6.848   2.324 -0.8159  0.5570 -0.0554
   15MOL    O5811006   1.061   6.911   2.418 -0.0204 -0.1306 -0.3027
   15MOL    O5911007   1.099   6.717   2.310  0.3127 -0.3054 -0.1333
   15MOL    C6011008   1.204   6.850   2.085 -0.1225  0.3144 -0.0580
   15MOL    C6111009   1.262   6.915   1.972  0.1012 -0.1979  0.1920
   15MOL    H6211010   1.550   7.326   1.530 -2.8452  1.0790 -3.6197
   15MOL    H6311011   1.614   7.464   1.626 -0.7566  2.3708 -1.4364
   15MOL    H6411012   1.541   7.538   1.404 -1.0034 -0.7471 -0.8680
   15MOL    H6511013   1.383   7.472   1.420 -0.9153  0.8590  0.6449
   15MOL    H6611014   1.512   7.684   1.592 -0.6151 -1.2711  0.7371
   15MOL    H6711015   1.448   7.753   1.358 -0.4643  0.2910 -0.6358
   15MOL    H6811016   1.285   7.707   1.390  1.2414 -1.8683 -0.3953
   15MOL    H6911017   1.274   7.701   1.696 -1.9115 -0.9787  0.7977
   15MOL    H7011018   1.214   7.588   1.581  1.0522 -1.0615 -1.1645
   15MOL    H7111019   1.257   7.471   1.799  2.2259  0.3541  2.5498
   15MOL    H7211020   1.400   7.556   1.815 -1.8043 -1.1201  1.7170
   15MOL    H7311021   1.348   7.318   1.624  0.7782 -0.5431 -0.1245
   15MOL    H7411022   1.562   7.234   1.747  0.1585  1.1191 -1.3674
   15MOL    H7511023   1.547   7.353   1.857  2.0312 -0.8149 -1.2880
   15MOL    H7611024   1.331   7.204   2.125 -0.0883 -0.2326  0.8685
   15MOL    H7711025   1.228   7.086   2.325  0.5392 -0.1417  0.6421
   15MOL    H7811026   1.153   6.759   2.059 -0.4800  1.1049 -2.2811
   15MOL    H7911027   1.265   6.863   1.877  0.4725 -3.4239  1.9194
   15MOL    C8011028   1.091   6.789   2.852  0.7043  0.1569  0.3641
   15MOL    C8111029   1.080   6.770   2.704  0.2605  0.1452 -0.0832
   15MOL    C8211030   1.020   6.633   2.657 -0.0543 -0.3746  0.2283
   15MOL    C8311031   0.992   6.622   2.506 -0.0383 -0.4438 -1.1448
   15MOL    O8411032   1.119   6.637   2.436  0.0651 -0.9383  0.1084
   15MOL    C8511033   1.123   6.525   2.708  0.3817  0.3310  0.5318
   15MOL    C8611034   1.151   6.543   2.865 -0.7931 -0.6594  0.8447
   15MOL    C8711035   1.194   6.687   2.908  0.2628  0.3099  0.0696
   15MOL    C8811036   1.208   6.690   3.065  0.3139 -0.3140 -0.0048
   15MOL    O8911037   1.244   6.820   3.113  0.0032 -0.0359  0.7579
   15MOL    C9011038   1.327   6.832   3.220 -0.8405  0.4149  0.2470
   15MOL    O9111039   1.370   6.741   3.284 -0.0306 -0.7891  0.4371
   15MOL    C9211040   1.365   6.974   3.246 -0.0154 -0.7160 -0.7647
   15MOL    C9311041   1.425   7.011   3.368  0.1042 -0.3508 -0.3816
   15MOL    C9411042   1.443   7.144   3.409 -0.0458 -0.3877  0.3941
   15MOL    C9511043   1.418   7.251   3.321  1.0401  0.2705  0.0002
   15MOL    C9611044   1.461   7.385   3.366 -0.2059  0.6558 -0.7312
   15MOL    O9711045   1.498   7.415   3.478 -0.4651  0.5585 -0.2854
   15MOL    O9811046   1.475   7.462   3.256 -0.4661  0.2844 -0.0067
   15MOL    C9911047   1.360   7.216   3.192  0.0155 -0.2286  0.2622
   15MOL   C10011048   1.333   7.083   3.158 -0.4226 -0.2692 -0.4712
   15MOL   H10111049   1.124   6.890   2.878  0.6547  0.7304 -1.6496
   15MOL   H10211050   0.996   6.773   2.902  1.7141 -0.1475  2.2370
   15MOL   H10311051   1.006   6.843   2.674  1.5650  0.9860 -1.2522
   15MOL   H10411052   1.168   6.797   2.646 -0.2423  1.3352 -0.3040
   15MOL   H10511053   0.931   6.610   2.716  0.1029  2.0161  1.4573
   15MOL   H10611054   0.947   6.528   2.473 -0.8604 -0.3549 -0.2996
   15MOL   H10711055   0.922   6.703   2.485 -1.9715 -1.5985  0.6314
   15MOL   H10811056   1.084   6.427   2.682 -1.8500  1.7120 -1.6256
   15MOL   H10911057   1.212   6.541   2.647 -0.1354  1.5666  0.0744
   15MOL   H11011058   1.220   6.464   2.896  2.3495  1.2765 -0.9257
   15MOL   H11111059   1.061   6.518   2.920  0.0200 -2.0694  1.5739
   15MOL   H11211060   1.289   6.713   2.861  0.2397 -0.7318 -0.5667
   15MOL   H11311061   1.110   6.665   3.107  0.2696 -1.0980 -0.5620
   15MOL   H11411062   1.278   6.616   3.103  2.6273  0.8616 -1.8847
   15MOL   H11511063   1.433   6.932   3.441 -2.9241  0.1354  0.5625
   15MOL   H11611064   1.497   7.166   3.500 -1.2116  2.0653  0.5457
   15MOL   H11711065   1.333   7.292   3.121  1.1538 -0.8834 -0.8748
   15MOL   H11811066   1.283   7.053   3.067  0.3632 -1.7594 -0.4354
   15MOL   C11911067   1.760   7.911   3.498 -0.3944 -0.5946 -0.6409
   15MOL   C12011068   1.679   7.788   3.455  0.4286  0.4494 -1.1268
   15MOL   C12111069   1.714   7.747   3.311  0.4694 -0.0484 -0.3713
   15MOL   C12211070   1.652   7.611   3.279  0.1146  0.2630  0.1041
   15MOL   O12311071   1.520   7.607   3.285 -0.1042  0.1876  0.7432
   15MOL   C12411072   1.668   7.860   3.222  0.6029 -0.6321 -0.9221
   15MOL   C12511073   1.742   7.993   3.262  0.0503 -0.1689 -0.2495
   15MOL   C12611074   1.724   8.028   3.408 -0.4227 -0.8718  0.2454
   15MOL   C12711075   1.789   0.125   3.435 -0.2053 -0.4408 -0.0182
   15MOL   O12811076   1.806   0.147   3.575  0.4616  0.7044 -1.1342
   15MOL   C12911077   1.874   0.257   3.619 -0.2966  0.0279 -0.5838
   15MOL   O13011078   1.909   0.350   3.544  0.8083  0.1274 -0.0912
   15MOL   C13111079   1.883   0.259   3.768  0.5984  0.5675 -1.1151
   15MOL   C13211080   1.887   0.380   3.840 -0.0246 -0.8616  0.0424
   15MOL   C13311081   1.906   0.379   3.973 -0.8098  0.0419 -0.2253
   15MOL   C13411082   1.923   0.259   4.045 -0.1157 -0.7482 -0.3880
   15MOL   C13511083   1.964   0.268   4.184  0.1978 -0.0161  0.1686
   15MOL   O13611084   1.969   0.382   4.240  0.1509 -0.1349 -0.4044
   15MOL   O13711085   2.010   0.150   4.239  0.2782  0.0196  0.5455
   15MOL   C13811086   1.899   0.132   3.978  1.0047 -0.6108 -0.1988
   15MOL   C13911087   1.880   0.135   3.838 -0.0491 -0.5428  0.5027
   15MOL   H14011088   1.728   7.925   3.602  0.8244 -1.6680 -0.1039
   15MOL   H14111089   1.867   7.892   3.502  0.0435  1.3146 -2.3208
   15MOL   H14211090   1.686   7.708   3.528  0.5980  0.4169 -1.1781
   15MOL   H14311091   1.575   7.820   3.463  0.4215  0.5905 -1.7121
   15MOL   H14411092   1.821   7.729   3.304  0.4121 -0.4208 -0.2902
   15MOL   H14511093   1.682   7.592   3.175  0.2443  0.3380  0.1273
   15MOL   H14611094   1.706   7.532   3.330 -2.4531 -1.5203  0.1168
   15MOL   H14711095   1.685   7.833   3.118  1.7283  1.6740 -1.3878
   15MOL   H14811096   1.561   7.871   3.238  0.3851  0.6910 -2.9949
   15MOL   H14911097   1.710   0.035   3.192  0.3880  1.6754  1.6070
   15MOL   H15011098   1.843   7.954   3.248 -0.7425 -1.9889 -1.0522
   15MOL   H15111099   1.617   0.014   3.411 -0.2159  0.0592  2.9430
   15MOL   H15211100   1.886   0.134   3.385 -0.0725 -0.5424  0.2194
   15MOL   H15311101   1.743   0.207   3.379 -1.1788  1.0199  2.8372
   15MOL   H15411102   1.880   0.476   3.791  0.4454 -0.2498  1.1750
   15MOL   H15511103   1.926   0.473   4.021 -1.8270 -0.4574  1.1908
   15MOL   H15611104   1.904   0.040   4.036 -0.1368  0.1982  1.2130
   15MOL   H15711105   1.866   0.041   3.789  1.1778 -0.7946  0.6008
   15MOL   C15811106   2.420   0.109   4.688  0.2195 -0.1940 -1.0854
   15MOL   C15911107   2.397   0.143   4.538 -0.2410  0.3793  0.4256
   15MOL   C16011108   2.257   0.107   4.497 -0.5818 -0.3453  0.5580
   15MOL   C16111109   2.219   0.153   4.361 -0.1152  0.2200 -0.3310
   15MOL   O16211110   2.075   0.169   4.373  0.4066  0.5125  0.0834
   15MOL   C16311111   2.241   7.994   4.508  0.1246  0.2918  0.0939
   15MOL   C16411112   2.266   7.942   4.648 -0.5821  0.8075 -0.2550
   15MOL   C16511113   2.397   7.992   4.721  0.2043 -0.7060  0.4753
   15MOL   C16611114   2.390   7.961   4.867 -0.0560 -0.3193  0.3220
   15MOL   O16711115   2.511   7.968   4.925  0.3897  0.5531  0.2688
   15MOL   C16811116   2.538   8.018   5.045 -0.0999 -0.5949  0.1679
   15MOL   O16911117   2.458   0.048   5.114  0.1895 -0.1617 -0.1333
   15MOL   C17011118   2.678   7.988   5.081 -0.3056  0.1093 -0.8222
   15MOL   C17111119   2.743   7.876   5.018  0.3389  0.4226 -0.8499
   15MOL   C17211120   2.877   7.854   5.048 -0.3343 -0.0021  0.7978
   15MOL   C17311121   2.946   7.928   5.150 -0.3062 -0.5788 -0.0307
   15MOL   C17411122   3.083   7.882   5.190  0.8714  0.6330  0.0147
   15MOL   O17511123   3.131   7.878   5.300  0.5252 -0.3893  0.1195
   15MOL   O17611124   3.156   7.843   5.086  0.2698 -0.5936  0.5269
   15MOL   C17711125   2.871   8.027   5.218 -0.0744 -0.1400  0.2330
   15MOL   C17811126   2.741   0.030   5.179 -0.6020 -0.0706  0.1743
   15MOL   H17911127   2.523   0.138   4.711 -0.6658  0.4403  2.4059
   15MOL   H18011128   2.361   0.182   4.743  0.6389 -1.1458  0.6759
   15MOL   H18111129   2.407   0.251   4.533  1.3306  0.3592  2.4379
   15MOL   H18211130   2.476   0.099   4.478 -1.4914  0.0743 -1.0279
   15MOL   H18311131   2.193   0.164   4.565 -0.2400 -0.2171  0.7767
   15MOL   H18411132   2.265   0.251   4.346 -0.1412  0.2943  0.0697
   15MOL   H18511133   2.238   0.081   4.281  1.2349  0.3031 -0.1091
   15MOL   H18611134   2.138   7.965   4.488  0.6013 -0.9987 -0.5614
   15MOL   H18711135   2.301   7.942   4.433 -0.6365  0.8957 -0.9493
   15MOL   H18811136   2.254   7.833   4.645 -0.1678  0.7477  0.1115
   15MOL   H18911137   2.186   7.973   4.714  0.8726 -0.6282  2.2799
   15MOL   H19011138   2.484   7.940   4.682 -0.1992  0.9022 -2.7271
   15MOL   H19111139   2.314   8.027   4.908  0.2397 -0.3645  0.9402
   15MOL   H19211140   2.344   7.863   4.878 -0.0191 -0.4841 -0.8358
   15MOL   H19311141   2.700   7.812   4.943  0.2325  0.4866 -0.8438
   15MOL   H19411142   2.931   7.778   4.993  1.2081 -0.8310  3.3559
   15MOL   H19511143   2.914   0.043   5.303 -2.1091  0.2618  1.0655
   15MOL   H19611144   2.701   0.117   5.228 -0.0899 -0.1454  0.7354
   15MOL   C19711145   3.663   7.650   4.964 -0.4713 -0.0665 -0.6018
   15MOL   C19811146   3.557   7.702   5.051 -0.1628  0.2134 -0.3296
   15MOL   C19911147   3.419   7.631   5.017 -0.7163 -0.2206 -0.1794
   15MOL   C20011148   3.314   7.671   5.124  0.5183 -0.2608  0.2457
   15MOL   O20111149   3.299   7.813   5.119  0.0502  0.4547 -0.3966
   15MOL   C20211150   3.377   7.676   4.877 -0.0536 -0.3502  0.4127
   15MOL   C20311151   3.475   7.619   4.780 -0.5222 -0.0418  0.1354
   15MOL   C20411152   3.617   7.670   4.821 -0.7005  0.6394 -0.8026
   15MOL   C20511153   3.728   7.603   4.744  0.3134 -0.5471 -0.6679
   15MOL   O20611154   3.690   7.583   4.607  0.0023  0.7856  0.1722
   15MOL   C20711155   3.702   7.692   4.526  0.1335  0.5495 -0.0676
   15MOL   O20811156   3.751   7.800   4.558 -0.6813  0.7745 -0.2555
   15MOL   C20911157   3.637   7.674   4.394  0.4197 -0.0166 -0.2863
   15MOL   C21011158   3.575   7.779   4.331  0.2036 -0.6512 -0.0106
   15MOL   C21111159   3.523   7.758   4.196 -0.1821  0.2636 -0.2613
   15MOL   C21211160   3.539   7.633   4.133 -0.4637  0.1552  0.3176
   15MOL   C21311161   3.483   7.612   3.989 -0.4319 -0.0737  0.2520
   15MOL   O21411162   3.430   7.701   3.922  0.0303 -0.2373 -0.0083
   15MOL   O21511163   3.505   7.491   3.938 -0.6850 -0.6279 -0.2711
   15MOL   C21611164   3.586   7.524   4.211 -0.0682  0.2270  0.8111
   15MOL   C21711165   3.637   7.541   4.339  0.6418  0.1877  0.4867
   15MOL   H21811166   3.759   7.701   4.975 -0.8797  0.7322 -0.7645
   15MOL   H21911167   3.673   7.544   4.987 -0.5561  0.5098  2.2569
   15MOL   H22011168   3.578   7.671   5.153 -0.6319  1.2524  0.0813
   15MOL   H22111169   3.546   7.810   5.053  0.3542  0.3509 -3.0052
   15MOL   H22211170   3.426   7.522   5.022 -0.8406 -0.2724 -1.0563
   15MOL   H22311171   3.217   7.623   5.111 -0.8263  2.8854 -1.8733
   15MOL   H22411172   3.340   7.647   5.227  1.2526  0.1522  0.1619
   15MOL   H22511173   3.273   7.656   4.851 -0.2537  2.9918 -1.5863
   15MOL   H22611174   3.377   7.785   4.874 -0.2093 -0.3745 -0.4781
   15MOL   H22711175   3.465   7.651   4.676 -1.7733 -0.5912  0.0762
   15MOL   H22811176   3.485   7.511   4.788 -0.2447  0.1145  2.2046
   15MOL   H22911177   3.617   7.779   4.809 -1.5842  0.7513  0.1405
   15MOL   H23011178   3.820   7.657   4.766  0.4033 -1.6111  1.7665
   15MOL   H23111179   3.748   7.509   4.796 -1.3083 -0.6881 -0.2609
   15MOL   H23211180   3.570   7.877   4.376  1.2055 -0.8187  0.4760
   15MOL   H23311181   3.481   7.840   4.140 -0.8593  0.6429  0.7919
   15MOL   H23411182   3.574   7.428   4.163 -0.4948  1.0821 -0.8194
   15MOL   H23511183   3.681   7.460   4.395  0.5789 -0.8413 -0.9142
   15MOL   C23611184   3.845   7.775   3.817 -0.6588  1.0305 -0.0519
   15MOL   C23711185   3.734   7.692   3.754  0.3931  0.7962  0.0160
   15MOL   C23811186   3.744   7.541   3.795 -0.2829  0.5166 -0.0875
   15MOL   C23911187   3.627   7.460   3.734 -0.5831 -0.8220 -0.0802
   15MOL   O24011188   3.499   7.486   3.786 -0.4451  0.4303  0.5598
   15MOL   C24111189   3.882   7.501   3.736  0.2887 -0.1547 -0.5874
   15MOL   C24211190   4.003   7.578   3.790 -1.2325  0.0738  0.3510
   15MOL   C24311191   3.989   7.734   3.768 -0.1611 -0.4430 -0.0392
   15MOL   C24411192   4.098   7.818   3.842  0.0612  1.3315 -0.2882
   15MOL   O24511193   4.086   7.832   3.984 -0.0164  0.3508 -0.3833
   15MOL   C24611194   4.174   7.768   4.065  0.4440 -0.1109 -0.0064
   15MOL   O24711195   4.267   7.699   4.025  0.0348 -0.2637  0.4160
   15MOL   C24811196   4.152   7.807   4.208 -0.4386  0.5305  0.5762
   15MOL   C24911197   4.241   7.751   4.300 -0.4087 -0.5182 -0.1548
   15MOL   C25011198   4.238   7.790   4.433 -0.3286  0.3440  0.6652
   15MOL   C25111199   4.129   7.866   4.480  0.0321  0.1403  0.1506
   15MOL   C25211200   4.113   7.907   4.619  0.5456 -0.6558 -0.0443
   15MOL   O25311201   4.042   7.997   4.659 -0.2061 -0.5383  0.4893
   15MOL   O25411202   4.194   7.841   4.694  1.0410 -0.3563  0.4907
   15MOL   C25511203   4.030   7.909   4.385  0.4597  0.2636 -0.0013
   15MOL   C25611204   4.047   7.887   4.253 -0.3109  0.9784 -0.2251
   15MOL   H25711205   3.817   7.880   3.804 -0.3496  1.1473  0.2325
   15MOL   H25811206   3.830   7.767   3.924 -0.4268  1.4879  0.0158
   15MOL   H25911207   3.638   7.729   3.789 -0.4199 -0.6997 -0.5921
   15MOL   H26011208   3.734   7.698   3.645 -2.2224 -0.9524 -0.1083
   15MOL   H26111209   3.747   7.536   3.903  0.2066  1.1351 -0.0697
   15MOL   H26211210   3.630   7.466   3.625 -0.7939 -1.9912 -0.1616
   15MOL   H26311211   3.646   7.353   3.742  0.0218 -0.6163  1.4133
   15MOL   H26411212   3.891   7.395   3.758 -2.0950  0.0209  1.4282
   15MOL   H26511213   3.886   7.520   3.628 -2.5498  1.0592 -0.5339
   15MOL   H26611214   4.096   7.542   3.745 -1.0441 -0.2932  1.0322
   15MOL   H26711215   4.015   7.579   3.898  3.7006 -0.8293 -0.0663
   15MOL   H26811216   4.000   7.754   3.661 -0.2447  0.2351  0.0776
   15MOL   H26911217   4.186   7.763   3.807 -0.6393  0.8779 -1.3933
   15MOL   H27011218   4.096   7.913   3.788 -0.4403  2.1371  1.1320
   15MOL   H27111219   4.326   7.693   4.268  0.3056 -0.9283  2.4095
   15MOL   H27211220   4.307   7.752   4.507 -0.4954 -0.2677  0.5136
   15MOL   H27311221   3.942   7.960   4.422 -0.6131 -2.1390  0.8901
   15MOL   H27411222   3.970   7.918   4.184 -0.5937 -0.0624 -0.3928
   15MOL   C27511223   4.145   0.004   5.250  0.4928  0.0906  0.5939
   15MOL   C27611224   4.159   0.002   5.100  0.1386  0.9354  0.4040
   15MOL   C27711225   4.285   7.950   5.049 -0.2145 -0.2974 -0.0449
   15MOL   C27811226   4.291   7.944   4.893  0.3322  0.3555  0.6650
   15MOL   O27911227   4.182   7.866   4.847 -0.0715 -0.2315  0.1347
   15MOL   C28011228   4.398   8.024   5.107 -0.1756 -0.0128  0.0859
   15MOL   C28111229   4.392   0.006   5.265  0.1565  0.3192  0.4048
   15MOL   C28211230   4.264   0.068   5.320  0.0011 -0.0536  0.2416
   15MOL   C28311231   4.243   0.063   5.475  0.6290  0.3776 -0.0666
   15MOL   O28411232   4.244   7.965   5.522 -0.4795 -0.0574  0.5157
   15MOL   C28511233   4.247   7.924   5.652  0.5303 -0.7732  0.1847
   15MOL   O28611234   4.256   8.006   5.747 -0.1418  0.2202  0.5316
   15MOL   C28711235   4.240   7.775   5.671  0.6950  0.0065 -0.0541
   15MOL   C28811236   4.284   7.686   5.577 -0.0581  0.5502 -0.0140
   15MOL   C28911237   4.283   7.551   5.604  0.7492  0.0713  0.2749
   15MOL   C29011238   4.232   7.501   5.726 -0.1262  0.3597  0.7667
   15MOL   C29111239   4.231   7.349   5.756 -0.0487  0.5672  0.2932
   15MOL   O29211240   4.267   7.264   5.673  0.3816  0.4734 -0.3241
   15MOL   O29311241   4.187   7.326   5.885  0.2878  0.3618 -0.8359
   15MOL   C29411242   4.201   7.590   5.830 -0.4514  0.5327  0.1178
   15MOL   C29511243   4.199   7.726   5.797 -0.5232  0.9822 -0.3305
   15MOL   H29611244   4.059   0.068   5.271 -0.7132 -1.2072 -0.3283
   15MOL   H29711245   4.121   7.942   5.291 -2.0450 -0.0733 -1.1852
   15MOL   H29811246   4.067   8.004   5.052  0.3849  1.2871 -0.3292
   15MOL   H29911247   4.170   0.103   5.061  0.7545  0.5168 -0.5055
   15MOL   H30011248   4.271   7.852   5.095  0.9080  0.0507  1.0523
   15MOL   H30111249   4.298   0.007   4.847 -1.4664  0.9601  1.6305
   15MOL   H30211250   4.375   7.880   4.865 -0.0265  1.1210 -2.3674
   15MOL   H30311251   4.492   7.974   5.081  0.6454  2.2880 -1.5540
   15MOL   H30411252   4.428   0.081   5.057  0.9080 -1.0203 -1.1797
   15MOL   H30511253   4.481   0.052   5.308  0.8192  2.0293 -2.6372
   15MOL   H30611254   4.400   7.939   5.302 -0.0650  0.0408 -0.3182
   15MOL   H30711255   4.263   0.172   5.289  2.1803  0.5211  1.9634
   15MOL   H30811256   4.317   0.127   5.523  2.1770 -0.9514 -0.6481
   15MOL   H30911257   4.145   0.106   5.494  0.3132  0.5758 -2.0052
   15MOL   H31011258   4.320   7.718   5.480 -0.8371  0.5394 -0.3123
   15MOL   H31111259   4.310   7.476   5.531 -0.5059  0.6084 -0.7526
   15MOL   H31211260   4.156   7.549   5.920 -2.8493  0.2985 -1.1299
   15MOL   H31311261   4.177   7.797   5.876  0.2693  1.1578 -0.2686
   15MOL   C31411262   4.355   7.071   6.412  0.7311  0.2005 -0.5474
   15MOL   C31511263   4.352   7.183   6.308 -0.1389 -0.5276 -1.0179
   15MOL   C31611264   4.321   7.132   6.164 -0.4876 -0.2784 -0.1944
   15MOL   C31711265   4.308   7.251   6.061 -0.3266  0.1257 -0.0910
   15MOL   O31811266   4.228   7.211   5.953 -0.0697 -0.0356 -0.1954
   15MOL   C31911267   4.416   7.021   6.124  0.0979 -0.4709  0.2528
   15MOL   C32011268   4.449   6.916   6.238 -0.4670  0.2048  0.1998
   15MOL   C32111269   4.477   6.984   6.380  0.6583 -0.2162  0.2825
   15MOL   C32211270   4.504   6.876   6.482 -0.2970 -0.2390 -0.2389
   15MOL   O32311271   4.501   6.920   6.615  0.0457  0.3999  0.2751
   15MOL   C32411272   4.598   6.993   6.672 -0.2002  1.0988  0.1108
   15MOL   O32511273   4.705   7.011   6.615 -0.0475  0.1074 -0.6798
   15MOL   C32611274   4.569   7.036   6.811  0.3400  0.3284 -0.6953
   15MOL   C32711275   4.451   6.993   6.874  0.0110 -0.2193 -0.7315
   15MOL   C32811276   4.450   7.003   7.016  0.6464 -0.4428  0.4226
   15MOL   C32911277   4.543   7.079   7.091 -0.8466  0.0393  0.3723
   15MOL   C33011278   4.526   7.076   7.246 -0.4965  0.2595  0.0763
   15MOL   O33111279   4.464   6.992   7.307  0.0729  0.3249  0.4401
   15MOL   O33211280   4.588   7.186   7.293  0.1498 -0.4458  0.0629
   15MOL   C33311281   4.650   7.145   7.020 -0.4988 -0.1784  0.0874
   15MOL   C33411282   4.666   7.116   6.883 -0.2014 -0.1874  0.1370
   15MOL   H33511283   4.369   7.116   6.510  1.4754  1.1026 -1.0588
   15MOL   H33611284   4.268   7.006   6.419  1.2947 -0.6484 -1.1777
   15MOL   H33711285   4.278   7.254   6.345  0.6697 -0.1771 -0.0691
   15MOL   H33811286   4.444   7.238   6.285  0.3755 -0.5391  0.9798
   15MOL   H33911287   4.220   7.093   6.174 -0.3391 -0.1568  1.9531
   15MOL   H34011288   4.265   7.337   6.112  0.8320  0.1331  0.9107
   15MOL   H34111289   4.406   7.286   6.028 -0.7026  2.4698  1.2008
   15MOL   H34211290   4.372   6.976   6.035  0.0623  0.2601 -0.1055
   15MOL   H34311291   4.515   7.059   6.099  1.2314 -2.0063  2.2954
   15MOL   H34411292   4.534   6.856   6.207  0.7870  2.4526 -0.8151
   15MOL   H34511293   4.365   6.846   6.233  0.1940 -0.5748  0.0560
   15MOL   H34611294   4.560   7.053   6.361  2.0016 -1.0922  2.6886
   15MOL   H34711295   4.442   6.788   6.463  1.3088 -1.4244 -0.0584
   15MOL   H34811296   4.604   6.837   6.465 -0.5018 -0.8726 -0.0168
   15MOL   H34911297   4.372   6.947   6.816 -0.5003  0.4701 -0.5917
   15MOL   H35011298   4.356   6.980   7.064  1.0537 -1.7362  0.6174
   15MOL   H35111299   4.722   7.212   7.065  0.0218 -0.6594 -0.0237
   15MOL   H35211300   4.753   7.158   6.835  0.4506 -0.7378  0.8371
   15MOL   C35311301   4.456   7.640   7.304  0.1702 -0.2069  0.0198
   15MOL   C35411302   4.420   7.500   7.352 -0.0171  0.8640 -0.1333
   15MOL   C35511303   4.519   7.432   7.449  0.2823 -0.7278  0.3803
   15MOL   C35611304   4.487   7.289   7.483 -0.3223  0.1201 -0.6607
   15MOL   O35711305   4.586   7.202   7.444  0.0453 -0.1247 -0.4115
   15MOL   C35811306   4.667   7.466   7.417  0.6042 -0.2273 -0.1619
   15MOL   C35911307   4.694   7.613   7.381 -0.0491 -0.4420  0.4804
   15MOL   C36011308   4.601   7.665   7.272 -0.3157  0.3958 -0.6375
   15MOL   C36111309   4.627   7.809   7.233  0.1625  0.6499 -0.8518
   15MOL   O36211310   4.759   7.826   7.194  0.3543 -0.2175 -0.4031
   15MOL   C36311311   4.848   7.892   7.269 -0.0590 -0.0591  0.1835
   15MOL   O36411312   4.826   7.952   7.371 -0.3855 -0.3436 -0.5208
   15MOL   C36511313   4.982   7.894   7.202  0.0132 -0.0714  0.4676
   15MOL   C36611314   5.093   7.963   7.268 -0.1287  0.0586  0.0504
   15MOL   C36711315   5.215   7.974   7.199 -0.3646  0.4804  0.1419
   15MOL   C36811316   5.234   7.911   7.075  0.5157 -0.1242 -0.3892
   15MOL   C36911317   5.350   7.950   6.988  0.3602 -0.3276 -0.3789
   15MOL   O37011318   5.347   7.937   6.867  0.0386  0.4364 -0.0401
   15MOL   O37111319   5.455   7.985   7.054  0.4914  0.4640 -0.2171
   15MOL   C37211320   5.128   7.835   7.018  0.5764 -0.4014  0.0171
   15MOL   C37311321   5.004   7.831   7.077 -0.3317  1.0421 -0.6784
   15MOL   H37411322   4.401   7.664   7.213 -0.7053 -1.4660  0.2153
   15MOL   H37511323   4.420   7.711   7.379  0.4316  0.7331 -0.7281
   15MOL   H37611324   4.321   7.505   7.398 -0.9937  0.5246 -2.1077
   15MOL   H37711325   4.407   7.439   7.262 -2.0936 -2.4430  2.2766
   15MOL   H37811326   4.516   7.471   7.550 -0.2545 -0.1020  0.1297
   15MOL   H37911327   4.477   7.274   7.590  0.6817 -1.2678 -0.7548
   15MOL   H38011328   4.389   7.266   7.441  0.9314 -1.3986 -2.8954
   15MOL   H38111329   4.727   7.442   7.504  1.2188 -0.1199 -0.5571
   15MOL   H38211330   4.710   7.392   7.351  0.9192  0.3968 -0.6589
   15MOL   H38311331   4.800   7.625   7.357 -0.8498  0.5347 -2.8162
   15MOL   H38411332   4.678   7.674   7.470 -0.1191  1.0934 -0.5567
   15MOL   H38511333   4.627   7.599   7.190  0.9291  1.9576 -1.5377
   15MOL   H38611334   4.558   7.825   7.151  1.9517  0.8445 -2.3376
   15MOL   H38711335   4.589   7.874   7.312  1.5680 -1.0506  1.2765
   15MOL   H38811336   5.071   8.021   7.356 -0.3080 -0.2216  0.1906
   15MOL   H38911337   5.293   0.006   7.232  0.5321 -0.8274  0.7412
   15MOL   H39011338   5.133   7.786   6.922 -0.5052  1.3706 -0.9687
   15MOL   H39111339   4.930   7.776   7.020  2.1260 -0.7762 -2.2444
   15MOL   C39211340   5.868   0.087   6.615  0.3973 -0.6232 -0.0088
   15MOL   C39311341   5.768   0.136   6.724  0.1206 -0.0272 -1.0423
   15MOL   C39411342   5.721   0.017   6.805 -0.0854  0.1693 -0.0058
   15MOL   C39511343   5.621   0.052   6.919  0.3364  0.0706  0.6059
   15MOL   O39611344   5.589   7.966   6.984  0.1301  0.2296 -0.4571
   15MOL   C39711345   5.660   7.949   6.721 -0.2761  0.0120  0.6875
   15MOL   C39811346   5.751   7.906   6.607 -0.2967  0.7834  0.0529
   15MOL   C39911347   5.795   8.021   6.516  0.5602 -0.6999 -0.2884
   15MOL   C40011348   5.885   7.969   6.399 -0.5119  0.1210 -0.9630
   15MOL   O40111349   5.793   7.900   6.314 -0.9445 -0.0534 -0.2165
   15MOL   C40211350   5.812   7.770   6.272 -0.3634  0.4423 -0.0790
   15MOL   O40311351   5.917   7.711   6.292  0.3104 -0.0361  0.0393
   15MOL   C40411352   5.698   7.707   6.202  0.0911 -0.1606  0.7882
   15MOL   C40511353   5.564   7.750   6.217 -0.2986 -0.0345 -0.5205
   15MOL   C40611354   5.457   7.712   6.133 -0.1198 -0.1418 -0.3758
   15MOL   C40711355   5.481   7.620   6.034 -0.3033  0.0358  0.0690
   15MOL   C40811356   5.387   7.553   5.935 -0.0382  0.0191  0.0192
   15MOL   O40911357   5.430   7.475   5.845  0.2139  0.3236  0.2950
   15MOL   O41011358   5.259   7.592   5.953  0.8884  0.3111 -0.2773
   15MOL   C41111359   5.621   7.580   6.015  0.3972 -0.2531  0.2759
   15MOL   C41211360   5.724   7.622   6.095 -0.1070  0.3913  0.0244
   15MOL   H41311361   5.925   0.166   6.566  0.1454  0.1472  0.9213
   15MOL   H41411362   5.958   0.039   6.654  0.3077 -0.2269  0.6999
   15MOL   H41511363   5.820   0.204   6.791 -2.1141 -0.9936  1.7862
   15MOL   H41611364   5.693   0.201   6.679 -1.2536 -0.2982  0.7935
   15MOL   H41711365   5.813   8.013   6.848  0.0916  0.5333 -0.0499
   15MOL   H41811366   5.672   0.121   6.986  1.0233 -0.2064  0.3803
   15MOL   H41911367   5.529   0.101   6.888 -0.2958 -1.1804  0.4788
   15MOL   H42011368   5.647   7.855   6.774  1.2355 -0.7497 -0.2457
   15MOL   H42111369   5.563   7.987   6.692  0.3590 -0.5060 -2.2862
   15MOL   H42211370   5.686   7.840   6.550 -1.5021 -0.2905  2.6062
   15MOL   H42311371   5.834   7.849   6.647 -3.0839 -3.4808 -0.0040
   15MOL   H42411372   5.711   0.037   6.469  1.0567  0.2045 -0.1965
   15MOL   H42511373   5.944   0.012   6.353  0.9748  0.5594  1.5590
   15MOL   H42611374   5.957   7.901   6.445 -1.7439  0.5175  1.6404
   15MOL   H42711375   5.541   7.826   6.290  0.4953 -1.6356  1.4692
   15MOL   H42811376   5.361   7.760   6.146  0.1915 -0.0810  1.9842
   15MOL   H42911377   5.646   7.520   5.928 -0.4603 -1.0762  0.5848
   15MOL   H43011378   5.825   7.589   6.075 -1.1811 -2.5131 -0.8697
   15MOL   C43111379   4.953   7.067   5.880  0.3237 -0.1102 -0.0826
   15MOL   C43211380   4.969   7.208   5.952  0.2710  0.2471 -0.2876
   15MOL   C43311381   5.056   7.306   5.870  0.1720 -0.5347 -0.1213
   15MOL   C43411382   5.089   7.436   5.945 -0.1055  0.2656 -0.2270
   15MOL   O43511383   5.169   7.521   5.858 -0.5188  0.1611 -0.0070
   15MOL   C43611384   5.193   7.235   5.829 -0.5724 -0.1726  0.4554
   15MOL   C43711385   5.170   7.095   5.761 -0.8190 -0.6080 -0.2232
   15MOL   C43811386   5.090   7.004   5.859  0.3784  0.4384  0.2933
   15MOL   C43911387   5.072   6.859   5.809 -0.1290 -0.4422  0.2470
   15MOL   O44011388   5.192   6.802   5.778  0.6066  1.0809  0.4608
   15MOL   C44111389   5.195   6.670   5.757 -0.2141  0.0654 -0.2693
   15MOL   O44211390   5.095   6.597   5.735 -0.0308  0.4348 -0.8024
   15MOL   C44311391   5.334   6.612   5.779 -0.4629 -0.7407 -0.5772
   15MOL   C44411392   5.350   6.474   5.782 -0.0603  0.2176  0.0812
   15MOL   C44511393   5.470   6.420   5.833  0.1814  0.8760  0.1268
   15MOL   C44611394   5.566   6.506   5.892  0.2944 -0.5607 -0.1070
   15MOL   C44711395   5.688   6.453   5.953 -0.1753 -0.2437 -0.2557
   15MOL   O44811396   5.692   6.353   6.017  0.1499  0.1179  0.5659
   15MOL   O44911397   5.797   6.533   5.930 -0.4677  0.5447 -0.4770
   15MOL   C45011398   5.551   6.644   5.873 -0.6633  0.5191 -0.5743
   15MOL   C45111399   5.438   6.696   5.819  0.6814  0.7493  0.6603
   15MOL   H45211400   4.878   7.011   5.934 -0.3739  0.8137 -0.0854
   15MOL   H45311401   4.915   7.083   5.779 -1.2809  0.4219  0.5924
   15MOL   H45411402   4.874   7.258   5.972  0.6561  0.3809  1.2498
   15MOL   H45511403   5.016   7.191   6.049  0.9311 -0.5317 -0.7431
   15MOL   H45611404   4.996   7.327   5.781 -1.5224 -4.0470  0.1187
   15MOL   H45711405   5.008   7.494   5.988  0.6716  1.6967 -0.6732
   15MOL   H45811406   5.142   7.402   6.034 -3.0630  2.7374  2.6159
   15MOL   H45911407   5.251   7.277   5.747  0.7171  0.6454  1.7758
   15MOL   H46011408   5.262   7.222   5.912  0.6376  1.9581 -0.1707
   15MOL   H46111409   5.266   7.046   5.746 -0.9485 -0.5681 -1.2264
   15MOL   H46211410   5.102   7.107   5.676 -1.7641  0.2580  0.6293
   15MOL   H46311411   5.136   6.992   5.957  1.1400  0.9000 -0.0037
   15MOL   H46411412   5.024   6.807   5.892 -1.9614  1.7467  0.6067
   15MOL   H46511413   5.005   6.855   5.723  0.1619  0.6175 -0.0286
   15MOL   H46611414   5.265   6.411   5.761 -0.1547  0.7557 -1.1616
   15MOL   H46711415   5.479   6.314   5.848 -1.9158  0.5437 -0.7032
   15MOL   H46811416   5.631   6.710   5.902  1.0945 -2.4356  1.5920
   15MOL   H46911417   5.439   6.804   5.821 -1.4275  0.8163 -0.7908
   15MOL   C47011418   6.092   6.746   5.649 -0.3448  0.1512  0.0315
   15MOL   C47111419   5.992   6.647   5.725 -0.1405 -0.4943 -0.2349
   15MOL   C47211420   6.075   6.526   5.783  0.0677 -0.0352 -0.0349
   15MOL   C47311421   5.989   6.422   5.865 -0.0655  0.1926  0.1679
   15MOL   O47411422   5.926   6.473   5.976  0.3816  0.4354 -0.9968
   15MOL   C47511423   6.176   6.472   5.682 -0.1935 -0.1868 -0.0802
   15MOL   C47611424   6.263   6.580   5.620 -0.3140 -0.5407  0.2082
   15MOL   C47711425   6.181   6.680   5.544 -0.7172  0.4002 -0.9286
   15MOL   C47811426   6.265   6.773   5.457 -0.3140 -0.2298  0.5910
   15MOL   O47911427   6.307   6.678   5.355 -0.0969  0.3027  0.6627
   15MOL   C48011428   6.334   6.734   5.234  0.0262  1.2681 -0.0242
   15MOL   O48111429   6.337   6.855   5.219  0.1555  1.2553  0.2212
   15MOL   C48211430   6.362   6.636   5.129 -0.2905  0.2424 -0.0327
   15MOL   C48311431   6.310   6.661   4.997 -0.2056 -0.6630  0.5447
   15MOL   C48411432   6.331   6.571   4.892 -0.6444 -0.3487  0.1246
   15MOL   C48511433   6.384   6.439   4.927 -0.7413  0.0112  0.8169
   15MOL   C48611434   6.377   6.329   4.831  0.2717 -0.0845  0.4299
   15MOL   O48711435   6.457   6.232   4.830  0.5343  0.1955 -0.2173
   15MOL   O48811436   6.275   6.349   4.735  0.1922 -0.8889  0.3389
   15MOL   C48911437   6.444   6.417   5.052 -0.2337  0.4192 -0.8112
   15MOL   C49011438   6.422   6.515   5.150 -0.4232 -0.2239 -0.1401
   15MOL   H49111439   6.037   6.829   5.606  0.5433  1.2741  1.0310
   15MOL   H49211440   6.150   6.795   5.728  2.5692 -1.4413 -1.0495
   15MOL   H49311441   5.948   6.703   5.806  1.6189 -0.9442  1.0689
   15MOL   H49411442   5.911   6.616   5.658  0.1028 -3.0620  0.5964
   15MOL   H49511443   6.138   6.578   5.855  1.5199 -0.1913 -1.1626
   15MOL   H49611444   5.922   6.371   5.795 -0.9956  2.1275 -0.3834
   15MOL   H49711445   6.051   6.337   5.893  0.5264 -0.4791 -2.9719
   15MOL   H49811446   6.230   6.392   5.733  0.0106  0.1666  0.2571
   15MOL   H49911447   6.133   6.408   5.604  1.3475 -0.2582 -0.8874
   15MOL   H50011448   6.333   6.526   5.556 -0.0905  0.9002 -0.7805
   15MOL   H50111449   6.334   6.623   5.692 -0.0464 -0.4822 -0.0906
   15MOL   H50211450   6.129   6.616   5.473 -0.6976 -2.0125  1.1875
   15MOL   H50311451   6.207   6.854   5.413  0.3270 -0.7294 -1.2374
   15MOL   H50411452   6.352   6.817   5.505  0.4255 -1.0895  0.0581
   15MOL   H50511453   6.252   6.751   4.986  0.9976  0.2681  1.7357
   15MOL   H50611454   6.285   6.582   4.796 -0.1458 -0.1898 -0.0993
   15MOL   H50711455   6.485   6.321   5.079  0.2778  1.6848  3.3498
   15MOL   H50811456   6.468   6.509   5.248  0.3387 -0.0647 -0.4915
   15MOL   C50911457   5.928   6.124   4.943 -0.0323  0.3235 -0.2095
   15MOL   C51011458   6.070   6.147   4.880 -0.4292 -0.5491  0.1932
   15MOL   C51111459   6.085   6.121   4.728  0.3186  0.1762 -0.1601
   15MOL   C51211460   6.227   6.124   4.675 -0.3582  0.5464 -0.6127
   15MOL   O51311461   6.274   6.247   4.621 -0.2739 -0.2953  0.4032
   15MOL   C51411462   6.013   5.990   4.693 -0.2382  0.6473  0.1653
   15MOL   C51511463   5.869   5.977   4.759  0.1873  0.7197 -0.6674
   15MOL   C51611464   5.875   5.984   4.912 -0.1905  0.5322  0.2328
   15MOL   C51711465   5.740   5.963   4.984 -0.3297  0.4403  0.2638
   15MOL   O51811466   5.774   5.932   5.120 -0.5127  0.5490 -0.4783
   15MOL   C51911467   5.685   5.909   5.222  0.0943 -0.2082  0.3697
   15MOL   O52011468   5.563   5.921   5.206 -0.2173 -0.6361  0.5993
   15MOL   C52111469   5.755   5.869   5.348 -0.2205  0.6074 -0.0677
   15MOL   C52211470   5.878   5.928   5.384  0.4493  0.5666  0.2378
   15MOL   C52311471   5.958   5.880   5.486 -0.5821  0.3851 -0.0431
   15MOL   C52411472   5.911   5.770   5.564 -0.7388  0.1392 -0.6745
   15MOL   C52511473   5.998   5.710   5.678 -0.2565  0.2454  0.5648
   15MOL   O52611474   5.973   5.617   5.759 -0.0218 -0.0368 -0.1453
   15MOL   O52711475   6.125   5.770   5.675  0.1458 -0.3611  0.0986
   15MOL   C52811476   5.788   5.709   5.537 -0.0989 -0.0431  0.0965
   15MOL   C52911477   5.715   5.758   5.424  0.1422 -0.5072  0.1719
   15MOL   H53011478   5.939   6.122   5.052  1.2076  1.3082 -0.3061
   15MOL   H53111479   5.856   6.199   4.911  1.9663  1.3813 -2.3747
   15MOL   H53211480   6.091   6.253   4.897  0.8942 -0.1037 -3.7451
   15MOL   H53311481   6.146   6.094   4.937  0.7600  0.0891 -0.7736
   15MOL   H53411482   6.019   6.191   4.676  1.0819  0.4007 -0.8477
   15MOL   H53511483   6.299   6.074   4.739 -0.2075 -0.6369 -1.6770
   15MOL   H53611484   6.235   6.067   4.582  1.8034  1.1356 -0.8071
   15MOL   H53711485   5.995   5.978   4.586 -2.3530  0.4910  0.5088
   15MOL   H53811486   6.076   5.904   4.713 -2.0571 -1.2119 -1.9003
   15MOL   H53911487   5.833   5.878   4.729  0.4089  0.5608 -0.4032
   15MOL   H54011488   5.804   6.056   4.720  1.9909  1.4446 -2.2634
   15MOL   H54111489   5.960   5.919   4.934 -1.3616 -1.1564 -0.1363
   15MOL   H54211490   5.673   6.048   4.971  0.2641  1.0746  1.3060
   15MOL   H54311491   5.687   5.879   4.938 -0.6967  0.1192  1.2563
   15MOL   H54411492   5.920   6.004   5.321  0.9473  1.0872  1.1875
   15MOL   H54511493   6.056   5.921   5.504  0.4935 -2.9335  2.0729
   15MOL   H54611494   5.755   5.629   5.601 -2.9476  0.5552 -0.5886
   15MOL   H54711495   5.623   5.713   5.388  0.0035 -0.5572  0.5876
   15MOL   C54811496   6.547   5.639   6.052  0.0072  0.1081  0.1434
   15MOL   C54911497   6.401   5.643   5.988 -0.0770 -0.3144 -0.2078
   15MOL   C55011498   6.409   5.600   5.839  1.5514  0.0993  0.0095
   15MOL   C55111499   6.269   5.603   5.777  0.5571 -0.2143  0.0673
   15MOL   O55211500   6.209   5.735   5.795 -0.2050  0.2846  0.4850
   15MOL   C55311501   6.495   5.696   5.765 -0.1497 -0.1268  0.2540
   15MOL   C55411502   6.634   5.693   5.823  0.1001 -0.2276  0.1565
   15MOL   C55511503   6.639   5.738   5.970  0.1327 -0.8277  0.1461
   15MOL   C55611504   6.785   5.733   6.024  0.0109  0.1044 -0.4758
   15MOL   O55711505   6.779   5.794   6.155  0.5983 -0.1883  0.5007
   15MOL   C55811506   6.887   5.803   6.228  0.4793 -0.2498  1.4291
   15MOL   O55911507   6.993   5.745   6.208  0.1838  0.1867 -0.6160
   15MOL   C56011508   6.866   5.893   6.343 -0.0214 -1.0100 -0.1357
   15MOL   C56111509   6.977   5.950   6.403 -0.7574 -0.3363  0.7273
   15MOL   C56211510   6.960   6.040   6.510 -0.0740 -0.2345  0.3746
   15MOL   C56311511   6.829   6.067   6.567  0.4911 -0.4283  0.0476
   15MOL   C56411512   6.820   6.149   6.688  0.8003  0.2426  0.1042
   15MOL   O56511513   6.918   6.179   6.753 -0.2430  0.5673  0.1409
   15MOL   O56611514   6.691   6.172   6.724 -0.1122 -0.5161 -0.0320
   15MOL   C56711515   6.715   6.014   6.506 -0.1326 -0.1234 -0.4430
   15MOL   C56811516   6.741   5.931   6.389  0.0990  0.4787  0.1886
   15MOL   H56911517   6.563   5.660   6.158  1.8438 -0.8170  0.0710
   15MOL   H57011518   6.588   5.541   6.031  0.5064  0.4251 -0.3784
   15MOL   H57111519   6.330   5.573   6.032 -0.0326  1.8049  3.3992
   15MOL   H57211520   6.358   5.741   6.005  0.2360 -0.4070  1.1826
   15MOL   H57311521   6.444   5.498   5.824 -0.1951 -0.2598 -1.8452
   15MOL   H57411522   6.265   5.548   5.683  1.4061  0.2345 -0.2347
   15MOL   H57511523   6.194   5.555   5.840 -0.1460  1.8249  0.8434
   15MOL   H57611524   6.493   5.653   5.665  0.8076 -1.2281  0.6949
   15MOL   H57711525   6.448   5.794   5.762  0.5828  0.2714  1.2246
   15MOL   H57811526   6.705   5.757   5.769  1.7695 -1.2230  1.1315
   15MOL   H57911527   6.687   5.599   5.807  0.7762  0.1269  0.2455
   15MOL   H58011528   6.597   5.838   5.981  1.2524 -0.4548  1.2178
   15MOL   H58111529   6.826   5.632   6.029  2.0077  0.8730 -0.8883
   15MOL   H58211530   6.850   5.780   5.951  0.5465  2.8557  1.6666
   15MOL   H58311531   7.074   5.929   6.361 -0.7811  0.0069  0.5022
   15MOL   H58411532   7.050   6.082   6.551 -0.8399  1.6409  0.1807
   15MOL   H58511533   6.614   6.038   6.535  0.2037 -0.5471  1.1100
   15MOL   H58611534   6.651   5.900   6.338 -0.5837  0.7287  1.2200
   15MOL   C58711535   6.636   6.491   7.187 -0.4689 -0.1973  0.8645
   15MOL   C58811536   6.601   6.384   7.080 -0.6399 -0.4042 -0.3067
   15MOL   C58911537   6.712   6.286   7.066  0.4036 -0.4218  0.2979
   15MOL   C59011538   6.680   6.177   6.962  0.2950  0.8331  0.3160
   15MOL   O59111539   6.682   6.257   6.848  0.3594 -0.6217  0.1179
   15MOL   C59211540   6.856   6.342   7.051 -0.0134  0.1815  0.1098
   15MOL   C59311541   6.877   6.435   7.176 -0.1560  0.5481  0.1327
   15MOL   C59411542   6.779   6.549   7.181  0.5816  0.3411 -0.1500
   15MOL   C59511543   6.799   6.632   7.306 -0.2817  0.1616  0.3587
   15MOL   O59611544   6.928   6.679   7.324  0.0932  0.1944  0.1524
   15MOL   C59711545   6.953   6.807   7.310  0.3716 -0.4394 -0.2963
   15MOL   O59811546   6.876   6.886   7.257  0.7800 -0.0486 -0.2390
   15MOL   C59911547   7.080   6.842   7.378 -0.5333  0.6948  0.5666
   15MOL   C60011548   7.122   6.975   7.397 -0.2528  0.0163  0.1101
   15MOL   C60111549   7.257   6.996   7.446  0.6593 -0.3737  0.0517
   15MOL   C60211550   7.343   6.895   7.478  0.5631  0.9884 -0.3449
   15MOL   C60311551   7.477   6.927   7.523 -0.0749  0.8267  0.2699
   15MOL   O60411552   7.557   6.841   7.562 -0.8514  0.8908 -0.1138
   15MOL   O60511553   7.511   7.056   7.529  0.1742 -0.1154 -0.1873
   15MOL   C60611554   7.304   6.762   7.460  0.4055 -0.2118  1.1868
   15MOL   C60711555   7.169   6.736   7.417  0.8318  0.1260 -0.1994
   15MOL   H60811556   6.573   6.578   7.174  0.8147  1.0255  2.5467
   15MOL   H60911557   6.616   6.442   7.283  1.3471 -0.2284  1.2559
   15MOL   H61011558   6.501   6.342   7.090 -0.2408 -0.4433  4.1247
   15MOL   H61111559   6.580   6.434   6.985 -2.0598 -1.3843 -0.5374
   15MOL   H61211560   6.706   6.234   7.162 -2.1922 -3.2271 -1.2890
   15MOL   H61311561   6.766   6.110   6.967  1.7528  2.7239  1.3090
   15MOL   H61411562   6.591   6.115   6.967  1.8930 -1.5510  0.0569
   15MOL   H61511563   6.920   6.253   7.051  0.1348  0.2875 -0.1414
   15MOL   H61611564   6.865   6.388   6.953  0.5791 -1.2554 -0.5332
   15MOL   H61711565   6.983   6.464   7.176  0.3468 -1.2556  1.0837
   15MOL   H61811566   6.861   6.373   7.264 -0.9156  0.3643 -0.1343
   15MOL   H61911567   6.788   6.608   7.091 -2.2038  0.0420 -0.6787
   15MOL   H62011568   6.730   6.716   7.295  1.5661  1.7338  0.6488
   15MOL   H62111569   6.773   6.577   7.396 -1.3586 -0.8471 -0.5461
   15MOL   H62211570   7.058   7.056   7.364 -0.1969 -0.1421 -0.3771
   15MOL   H62311571   7.280   7.101   7.452  0.6552 -0.3429 -0.4214
   15MOL   H62411572   7.364   6.681   7.497 -0.5084 -0.1686  2.8226
   15MOL   H62511573   7.152   6.631   7.395 -1.2778  0.0327  1.7535
   15MOL   C62611574   7.875   7.443   7.642  0.0818  0.0962 -0.1282
   15MOL   C62711575   7.767   7.335   7.629 -0.2278 -0.9128 -0.0012
   15MOL   C62811576   7.770   7.219   7.724 -0.3640 -0.4362 -0.3106
   15MOL   C62911577   7.659   7.110   7.705  0.0205  0.4856 -0.2386
   15MOL   O63011578   7.656   7.069   7.568 -0.5446  0.2706  0.0955
   15MOL   C63111579   7.915   7.158   7.713  0.4771 -0.0751  0.1803
   15MOL   C63211580   8.019   7.267   7.755 -0.2435  0.3564 -0.2287
   15MOL   C63311581   8.013   7.382   7.662 -0.4607 -0.3518  0.4272
   15MOL   C63411582   0.081   7.484   7.700 -0.4523 -0.0131  0.5048
   15MOL   O63511583   0.210   7.430   7.691 -0.4895 -0.3022  0.4199
   15MOL   C63611584   0.308   7.496   7.745  0.0088 -0.4476 -0.3800
   15MOL   O63711585   0.292   7.608   7.798  0.4490 -0.5390 -0.0702
   15MOL   C63811586   0.442   7.421   7.732  0.8474  0.0646  0.9176
   15MOL   C63911587   0.445   7.283   7.697  0.3592 -0.0517  0.1231
   15MOL   C64011588   0.565   7.218   7.666  0.8896  0.4078  0.0102
   15MOL   C64111589   0.693   7.277   7.691  0.2459 -0.3345 -0.0218
   15MOL   C64211590   0.818   7.202   7.679 -0.6522 -0.8618 -0.2274
   15MOL   O64311591   0.924   7.226   7.739  0.2933  0.6844  0.5515
   15MOL   O64411592   0.807   7.090   7.600 -0.6212  0.0429 -0.5411
   15MOL   C64511593   0.690   7.412   7.734  0.0220  0.1111  0.3793
   15MOL   C64611594   0.566   7.483   7.745  0.5697  0.8020 -0.6893
   15MOL   H64711595   7.858   7.509   7.558 -1.5584  2.1149  1.7108
   15MOL   H64811596   7.844   7.498   7.731  4.5725  1.4937  0.7052
   15MOL   H64911597   7.673   7.389   7.640 -1.4155 -3.3760  2.6424
   15MOL   H65011598   7.777   7.298   7.527 -3.1501 -0.7828 -0.3921
   15MOL   H65111599   7.756   7.265   7.822  1.4764 -0.3313 -0.0776
   15MOL   H65211600   7.669   7.025   7.772  0.9136  0.8896  0.1489
   15MOL   H65311601   7.566   7.158   7.735 -0.5031 -1.1587  0.8052
   15MOL   H65411602   7.910   7.074   7.782  2.6655 -1.3183 -1.0893
   15MOL   H65511603   7.934   7.101   7.622  1.9016 -2.5141  1.9459
   15MOL   H65611604   0.083   7.223   7.765 -0.3499 -0.5857 -2.8667
   15MOL   H65711605   7.984   7.300   7.853  2.1712  0.3782  0.6511
   15MOL   H65811606   0.014   7.344   7.567  0.9913  3.9545 -0.8888
   15MOL   H65911607   0.071   7.573   7.638 -1.2487 -1.5255 -1.5855
   15MOL   H66011608   0.060   7.516   7.802 -2.0942  0.9083 -0.1095
   15MOL   H66111609   0.351   7.233   7.679  1.1098 -0.8509 -1.6293
   15MOL   H66211610   0.554   7.113   7.641  2.3890  0.5650 -1.4137
   15MOL   H66311611   0.782   7.466   7.752  0.0449 -0.4331  2.0006
   15MOL   H66411612   0.565   7.590   7.764  3.4910  0.5219  1.3040
   15MOL   C66511613   1.233   6.680   7.561 -0.4534  0.0560  0.0204
   15MOL   C66611614   1.108   6.755   7.533 -0.3300 -0.5183  1.0143
   15MOL   C66711615   1.136   6.907   7.540 -0.4182  0.5266  0.1083
   15MOL   C66811616   1.012   6.991   7.513 -0.8088 -0.1116  0.0599
   15MOL   O66911617   0.922   6.997   7.629  0.1154 -0.0374 -0.0648
   15MOL   C67011618   1.193   6.958   7.671 -0.5523 -0.1045 -0.9335
   15MOL   C67111619   1.309   6.870   7.713 -0.8062 -0.0896 -0.0253
   15MOL   C67211620   1.287   6.714   7.701  0.4776  0.4457  0.6062
   15MOL   C67311621   1.416   6.634   7.712 -0.3799  0.3528  0.9385
   15MOL   O67411622   1.466   6.650   7.842 -0.0145  0.2057 -0.3376
   15MOL   C67511623   1.582   6.587   7.872 -0.1388 -0.4827  0.3313
   15MOL   O67611624   1.632   6.491   7.812  0.0141  0.0221 -0.3446
   15MOL   C67711625   1.645   6.639   7.997 -0.2424  0.8863  0.9073
   15MOL   C67811626   1.729   6.552   0.033 -0.3626 -0.1619  0.1417
   15MOL   C67911627   1.803   6.599   0.140  0.7279  0.2064 -0.0401
   15MOL   C68011628   1.774   6.728   0.195 -0.1186 -0.1232  0.0258
   15MOL   C68111629   1.839   6.763   0.325  0.5566 -0.2423 -1.3105
   15MOL   O68211630   1.924   6.702   0.391  0.4052  0.2224 -0.8992
   15MOL   O68311631   1.794   6.880   0.357 -0.3874 -0.3326  0.3643
   15MOL   C68411632   1.684   6.813   0.124  0.0930  0.1925 -0.0288
   15MOL   C68511633   1.619   6.769   0.008  0.0223 -0.2921  0.4199
   15MOL   H68611634   1.210   6.575   7.546 -1.2249  0.4559 -1.7652
   15MOL   H68711635   1.304   6.705   7.483 -1.1812  0.3882 -0.5490
   15MOL   H68811636   1.083   6.729   7.431 -0.3669  1.0188  0.6164
   15MOL   H68911637   1.027   6.724   7.599 -2.5484 -0.7670 -1.7703
   15MOL   H69011638   1.212   6.926   7.464  1.0419  2.8533  2.0577
   15MOL   H69111639   1.025   7.096   7.487 -1.1257  0.1023  0.7786
   15MOL   H69211640   0.950   6.952   7.432 -0.7713  0.1081 -0.0739
   15MOL   H69311641   1.225   7.062   7.661  2.2849 -1.0607 -2.1670
   15MOL   H69411642   1.122   6.971   7.753  0.0905 -2.8030  0.0947
   15MOL   H69511643   1.343   6.898   7.813 -0.6643  0.7928 -0.3141
   15MOL   H69611644   1.396   6.884   7.648 -0.4290  1.1360  0.7266
   15MOL   H69711645   1.215   6.675   7.772  0.5259 -1.5501 -0.4089
   15MOL   H69811646   1.395   6.530   7.687 -2.0932  0.7652  0.6424
   15MOL   H69911647   1.488   6.672   7.640  0.0650  0.3508  1.3723
   15MOL   H70011648   1.754   6.451   0.005  1.4593  0.6128 -1.0639
   15MOL   H70111649   1.883   6.534   0.170  0.6832  0.4107  0.5351
   15MOL   H70211650   1.649   6.910   0.156  0.4076  0.3055 -0.0192
   15MOL   H70311651   1.540   6.825   7.996 -0.5140 -1.3956 -0.0194
   15MOL   C70411652   2.093   7.124   0.858  0.0040 -0.3651  0.5215
   15MOL   C70511653   2.086   7.108   0.698  0.0749  0.0345  0.2000
   15MOL   C70611654   1.974   7.004   0.655  0.6481 -0.2508  0.1470
   15MOL   C70711655   1.953   6.987   0.506 -0.2244 -0.1263 -0.5339
   15MOL   O70811656   1.825   6.927   0.497 -0.3325  0.6685  0.2598
   15MOL   C70911657   2.021   6.867   0.722  0.0834  0.2264  0.6084
   15MOL   C71011658   2.034   6.875   0.873 -0.2410  0.4575 -0.0597
   15MOL   C71111659   2.139   6.982   0.917  0.0904 -0.9055 -0.0858
   15MOL   C71211660   2.141   6.982   1.068  0.1207 -0.1555 -0.5593
   15MOL   O71311661   2.020   7.003   1.125 -0.1030 -0.2698  0.4802
   15MOL   C71411662   1.996   6.978   1.257  0.3067 -0.5369 -0.5291
   15MOL   O71511663   2.091   6.946   1.327 -0.4026  0.6101  0.1314
   15MOL   C71611664   1.855   6.997   1.305 -0.6249  0.2585  0.1352
   15MOL   C71711665   1.816   6.981   1.440 -0.0339 -0.0547 -0.2088
   15MOL   C71811666   1.678   6.983   1.474 -0.1108 -0.0405  0.2905
   15MOL   C71911667   1.581   7.011   1.378  0.0080 -0.6637 -0.4095
   15MOL   C72011668   1.438   7.006   1.404  0.2222 -0.4469  0.1168
   15MOL   O72111669   1.348   7.060   1.330  0.4020  0.3244 -0.1845
   15MOL   O72211670   1.401   6.925   1.502  0.3998  0.1504  0.1584
   15MOL   C72311671   1.624   7.048   1.247  0.7138  0.1180 -0.1723
   15MOL   C72411672   1.759   7.042   1.212  0.6443 -0.1621  0.3399
   15MOL   H72511673   2.168   7.197   0.889 -0.5480 -1.2107  4.0496
   15MOL   H72611674   1.994   7.143   0.898  0.0163  0.5215  0.1318
   15MOL   H72711675   2.051   7.198   0.647  0.5644 -0.6053 -1.2906
   15MOL   H72811676   2.185   7.092   0.656 -0.6454 -2.0500 -0.7759
   15MOL   H72911677   1.883   7.040   0.703  1.0431  0.5143  0.3239
   15MOL   H73011678   1.936   7.078   0.448 -1.4952  0.9051  1.3854
   15MOL   H73111679   2.027   6.925   0.457  0.2309 -0.7876  0.9720
   15MOL   H73211680   1.937   6.800   0.702  1.0330 -0.8347  0.1121
   15MOL   H73311681   2.102   6.826   0.662 -0.7208  0.3905 -0.6339
   15MOL   H73411682   2.065   6.778   0.912  1.1256  0.9314  0.0680
   15MOL   H73511683   1.937   6.904   0.914 -0.4733 -0.4413  0.0320
   15MOL   H73611684   2.235   6.957   0.873  0.9412  0.1885  1.1128
   15MOL   H73711685   2.175   6.883   1.101 -1.2312 -0.0800  1.1547
   15MOL   H73811686   2.214   7.055   1.101 -1.8146  1.2485  0.7569
   15MOL   H73911687   1.886   6.943   1.514  0.2345 -1.6706 -1.2663
   15MOL   H74011688   1.661   6.956   1.578  1.9758 -0.9308  0.4289
   15MOL   H74111689   1.547   7.082   1.179 -0.1745 -0.5694  0.4747
   15MOL   H74211690   1.792   7.075   1.115  0.9823  0.6867  0.7334
   15MOL   C74311691   1.086   6.808   1.100  0.1451  0.1652  0.2703
   15MOL   C74411692   1.095   6.825   1.249 -0.0418 -0.4810 -0.7734
   15MOL   C74511693   1.209   6.747   1.309 -0.4262  0.4635  0.4698
   15MOL   C74611694   1.233   6.759   1.464  0.4323  0.0083  0.2085
   15MOL   O74711695   1.248   6.893   1.512 -0.2834  0.1648 -0.3889
   15MOL   C74811696   1.212   6.602   1.252 -0.4951 -0.7490  0.4743
   15MOL   C74911697   1.199   6.606   1.102 -0.2763 -0.1801 -0.0758
   15MOL   C75011698   1.076   6.667   1.045  0.0046 -0.0373 -0.4407
   15MOL   C75111699   1.057   6.652   0.895 -0.3379 -0.4611 -0.3104
   15MOL   O75211700   0.921   6.650   0.863 -0.1863 -0.2854  0.0392
   15MOL   C75311701   0.869   6.755   0.803 -0.0971 -0.1647  0.8090
   15MOL   O75411702   0.940   6.848   0.766  0.1405  0.2830  0.7423
   15MOL   C75511703   0.723   6.746   0.793 -0.1231 -0.1775  0.0292
   15MOL   C75611704   0.662   6.623   0.823  0.0238  0.1001 -0.4460
   15MOL   C75711705   0.521   6.609   0.809 -0.1196 -0.5942  0.0785
   15MOL   C75811706   0.443   6.723   0.771 -0.3176 -0.0495 -0.4791
   15MOL   C75911707   0.295   6.715   0.747 -0.2739  0.3167  0.6139
   15MOL   O76011708   0.223   6.619   0.754 -0.4646 -0.4623  0.2655
   15MOL   O76111709   0.239   6.834   0.714  0.2724  0.4496 -0.2566
   15MOL   C76211710   0.504   6.847   0.752 -1.0316  0.4461 -0.2731
   15MOL   C76311711   0.646   6.859   0.753  0.0047 -0.2772  0.9801
   15MOL   H76411712   1.005   6.874   1.067  1.0265  0.9270 -0.4041
   15MOL   H76511713   1.170   6.861   1.055 -1.4509  1.2591 -1.5130
   15MOL   H76611714   1.104   6.932   1.267 -1.0839 -0.5296  0.0478
   15MOL   H76711715   1.011   6.800   1.313  1.6919 -1.0543  1.3465
   15MOL   H76811716   1.299   6.800   1.279  0.2104  0.7284  2.7995
   15MOL   H76911717   1.147   6.707   1.508  0.5219 -0.6818 -0.4274
   15MOL   H77011718   1.321   6.700   1.490 -0.0639 -1.6695 -1.7323
   15MOL   H77111719   1.313   6.562   1.261 -0.5285 -0.3285  2.8203
   15MOL   H77211720   1.147   6.527   1.298 -0.4724 -1.0196  0.0686
   15MOL   H77311721   1.228   6.510   1.059  1.6865  0.4459 -0.2159
   15MOL   H77411722   1.277   6.664   1.052 -0.0040 -0.7857 -0.3608
   15MOL   H77511723   0.996   6.611   1.093 -0.9697  2.2331  0.6571
   15MOL   H77611724   1.122   6.716   0.835 -0.3695 -1.8377 -1.8617
   15MOL   H77711725   1.084   6.551   0.865 -0.1399 -0.4584 -0.1489
   15MOL   H77811726   0.712   6.535   0.860 -0.1011  0.6696  1.1155
   15MOL   H77911727   0.473   6.515   0.830  0.1750 -0.7980 -0.1660
   15MOL   H78011728   0.440   6.931   0.728  0.9793  2.1780  0.2246
   15MOL   H78111729   0.693   6.953   0.726  0.6142 -1.0701 -0.8259
   15MOL   H78211730   0.149   6.813   0.697 -0.1801  1.2344  1.1019
   16MOL     C111731   1.354   6.509   4.462 -0.1261  0.0609  0.1995
   16MOL     C211732   1.493   6.520   4.400 -0.0847  0.2733 -0.1357
   16MOL     C311733   1.611   6.491   4.501  0.7184  0.5837 -0.3141
   16MOL     C411734   1.736   6.493   4.426  0.5149  0.0071 -0.4106
   16MOL     O511735   1.741   6.379   4.351 -0.0128  0.4966  0.0852
   16MOL     C611736   1.586   6.579   4.625  0.1246 -0.1833 -0.5265
   16MOL     C711737   1.445   6.564   4.690 -1.0388  0.0583  1.2443
   16MOL     C811738   1.331   6.589   4.584  0.6034  0.1439 -0.3693
   16MOL     C911739   1.192   6.555   4.640  0.1061 -0.1881 -0.1681
   16MOL    O1011740   1.176   6.597   4.773  0.3026  0.2820  0.1618
   16MOL    C1111741   1.065   6.559   4.836  0.1297 -0.0873 -0.4190
   16MOL    O1211742   0.996   6.463   4.805 -0.6078 -0.2992  0.2164
   16MOL    C1311743   1.049   6.636   4.963  0.6676 -0.9283  0.1484
   16MOL    C1411744   0.923   6.615   5.026  0.1408  0.2199 -0.0809
   16MOL    C1511745   0.894   6.686   5.140  0.3423 -0.1203 -0.3969
   16MOL    C1611746   0.987   6.781   5.189  0.6434  0.3034 -1.3960
   16MOL    C1711747   0.955   6.868   5.300  0.1943  0.0572 -0.6131
   16MOL    O1811748   0.844   6.893   5.338 -0.0213  0.0451 -0.2758
   16MOL    O1911749   1.064   6.926   5.355  0.3570  0.0921 -0.2234
   16MOL    C2011750   1.109   6.810   5.123  0.7292  0.2593 -0.0967
   16MOL    C2111751   1.142   6.727   5.013  0.3219 -0.2541  0.3074
   16MOL    H2211752   1.286   6.527   4.378  1.3681  0.0972 -1.0125
   16MOL    H2311753   1.343   6.405   4.495 -0.5248  0.6928  2.1133
   16MOL    H2411754   1.488   6.439   4.327 -0.6776  1.8848 -1.9419
   16MOL    H2511755   1.515   6.615   4.351 -1.3585  0.5348 -0.2030
   16MOL    H2611756   1.605   6.392   4.546 -1.3443  0.1402 -1.5164
   16MOL    H2711757   1.749   6.586   4.371  0.8757 -0.0333 -0.3935
   16MOL    H2811758   1.828   6.494   4.484  1.4026 -0.0332 -1.8116
   16MOL    H2911759   1.667   6.554   4.694 -0.9681 -0.2781  0.7377
   16MOL    H3011760   1.607   6.683   4.599 -2.5688  0.6094  0.3232
   16MOL    H3111761   1.433   6.635   4.772 -1.0687 -0.3170  1.5691
   16MOL    H3211762   1.437   6.467   4.739  1.1595 -0.5474  0.4249
   16MOL    H3311763   1.350   6.692   4.556  0.6122  0.4975  0.9008
   16MOL    H3411764   1.118   6.594   4.570  0.9810 -0.8923 -1.5149
   16MOL    H3511765   1.179   6.447   4.631  4.2774 -0.9383  1.5082
   16MOL    H3611766   0.854   6.541   4.988 -0.2762  1.2356 -1.3716
   16MOL    H3711767   0.801   6.669   5.192  1.6188 -0.7549  1.7412
   16MOL    H3811768   1.179   6.887   5.153 -0.3102  1.5389 -0.9237
   16MOL    H3911769   1.230   6.747   4.954 -1.1256  1.7423 -1.2127
   16MOL    H4011770   1.660   6.359   4.307  1.5151  0.3582 -2.8101
   16MOL    C4111771   1.036   7.359   5.755  0.0896  0.1898  0.0862
   16MOL    C4211772   1.066   7.233   5.665  0.7049 -0.6370 -0.2117
   16MOL    C4311773   1.010   7.258   5.520  0.3045 -0.5881 -0.1682
   16MOL    C4411774   1.059   7.146   5.426 -0.2189 -0.3860 -0.1123
   16MOL    O4511775   1.025   7.015   5.467 -0.0168 -0.1262 -0.3525
   16MOL    C4611776   0.856   7.262   5.537  0.7473  0.5355  0.1185
   16MOL    C4711777   0.811   7.369   5.629 -0.5393  0.3105  0.1131
   16MOL    C4811778   0.879   7.373   5.767 -0.4939 -0.9339 -0.8432
   16MOL    C4911779   0.838   7.498   5.857 -0.2902  0.5345  0.0983
   16MOL    O5011780   0.876   7.602   5.779  0.5417 -0.0888  0.1896
   16MOL    C5111781   0.945   7.701   5.838  0.3649 -0.1250 -0.3720
   16MOL    O5211782   0.948   7.723   5.958  0.5766  0.6687 -0.4103
   16MOL    C5311783   1.003   7.782   5.730 -0.3458 -0.7108 -0.5546
   16MOL    C5411784   0.970   7.760   5.592  0.6213 -0.3617  0.2470
   16MOL    C5511785   1.036   7.834   5.487  0.1872  0.7650 -0.0362
   16MOL    C5611786   1.123   7.938   5.515  0.0514 -0.3287  0.0190
   16MOL    C5711787   1.193   8.014   5.404  0.7391 -0.5741 -0.8349
   16MOL    O5811788   1.290   0.051   5.435  0.0918  0.0642 -0.1713
   16MOL    O5911789   1.153   7.992   5.287 -0.2586 -0.1704 -0.1814
   16MOL    C6011790   1.154   7.965   5.652 -0.4510  0.1978  0.2513
   16MOL    C6111791   1.097   7.886   5.758 -0.1727 -0.7099 -0.3945
   16MOL    H6211792   1.071   7.342   5.857  1.7717 -1.3960 -0.7105
   16MOL    H6311793   1.089   7.448   5.721 -0.6131  0.1090 -1.2807
   16MOL    H6411794   1.175   7.228   5.662  0.7057  0.0670 -3.0959
   16MOL    H6511795   1.011   7.150   5.710 -1.1728  0.6121 -0.1316
   16MOL    H6611796   1.054   7.353   5.492 -0.9236  0.1680  0.4412
   16MOL    H6711797   1.035   7.165   5.322 -1.2684 -0.4183  0.1145
   16MOL    H6811798   1.168   7.135   5.430  0.0546 -0.6064 -5.1090
   16MOL    H6911799   0.829   7.278   5.432 -0.0297  0.6747  0.3357
   16MOL    H7011800   0.819   7.166   5.573  1.6324 -0.0110 -0.4147
   16MOL    H7111801   0.702   7.360   5.629 -0.6853  1.7957 -0.7713
   16MOL    H7211802   0.831   7.465   5.579 -2.3280 -0.1074 -1.5048
   16MOL    H7311803   0.833   7.297   5.830 -0.1879 -0.7749 -0.4266
   16MOL    H7411804   0.732   7.503   5.884  0.2271 -2.5364  2.9956
   16MOL    H7511805   0.889   7.489   5.952 -0.7669 -1.8471  0.1623
   16MOL    H7611806   0.904   7.682   5.557  0.5904 -0.9537  1.5779
   16MOL    H7711807   1.010   7.804   5.386  1.7994 -0.2507 -0.1603
   16MOL    H7811808   1.229   0.005   5.671  1.0425 -1.5196  1.3148
   16MOL    H7911809   1.117   7.904   5.863 -0.4884 -1.0896 -0.2708
   16MOL    C8011810   1.581   0.297   5.184 -0.3324  0.1433 -0.6253
   16MOL    C8111811   1.480   0.174   5.201 -0.3637 -0.4211 -0.1751
   16MOL    C8211812   1.414   0.129   5.074 -0.1765  1.2197  0.0103
   16MOL    C8311813   1.316   0.007   5.106 -0.2939 -0.3717 -0.2935
   16MOL    O8411814   1.199   0.058   5.184  0.2476 -0.3126 -0.6105
   16MOL    C8511815   1.346   0.245   4.997  0.1673  0.3488  0.1036
   16MOL    C8611816   1.442   0.364   4.977 -0.0884 -0.0694  0.4965
   16MOL    C8711817   1.516   0.409   5.103  0.4978 -0.9130 -0.6984
   16MOL    C8811818   1.633   0.509   5.083 -0.1409 -0.4939 -0.1704
   16MOL    O8911819   1.590   0.638   5.062  0.4052 -0.2564  0.4702
   16MOL    C9011820   1.587   0.699   4.946 -0.3201  0.2168  0.3244
   16MOL    O9111821   1.602   0.642   4.839  0.8543 -0.1143 -0.1431
   16MOL    C9211822   1.553   0.848   4.959 -0.0222  0.1103  0.4589
   16MOL    C9311823   1.477   0.890   5.066  0.2670  0.0411 -0.1184
   16MOL    C9411824   1.461   1.029   5.085 -0.0518 -0.4054 -0.7667
   16MOL    C9511825   1.501   1.123   4.981  0.3678 -1.0928 -0.1010
   16MOL    C9611826   1.474   1.267   5.009 -0.1766 -0.1167  0.5116
   16MOL    O9711827   1.524   1.352   4.935 -0.2271  0.3461  0.1121
   16MOL    O9811828   1.392   1.283   5.113  0.1979 -0.3071  0.3558
   16MOL    C9911829   1.564   1.074   4.863  0.2544 -0.4610  0.1199
   16MOL   C10011830   1.591   0.937   4.853 -0.1106  0.2133  0.3673
   16MOL   H10111831   1.611   0.340   5.280 -1.7592  0.7762 -0.4579
   16MOL   H10211832   1.680   0.269   5.148  0.2198  0.4066  0.6497
   16MOL   H10311833   1.539   0.100   5.255  0.7202  1.3616  1.1431
   16MOL   H10411834   1.405   0.213   5.269  0.6166  3.5333 -1.2179
   16MOL   H10511835   1.481   0.084   5.001  0.0945 -1.2295  1.6890
   16MOL   H10611836   1.275   7.981   5.026 -1.1256 -1.2183  0.7794
   16MOL   H10711837   1.374   7.966   5.157  0.7733 -0.9655 -2.3750
   16MOL   H10811838   1.312   0.208   4.900  0.4721  2.3972 -0.8045
   16MOL   H10911839   1.261   0.291   5.047  0.8313  0.6568  0.9468
   16MOL   H11011840   1.395   0.448   4.927  0.9447  0.1228 -0.1612
   16MOL   H11111841   1.516   0.336   4.902  0.0680  0.9252  0.2811
   16MOL   H11211842   1.444   0.459   5.167  2.2925  2.6947 -1.3672
   16MOL   H11311843   1.695   0.513   5.172 -1.2848  0.6867  0.5925
   16MOL   H11411844   1.698   0.482   5.000  0.2792  0.5007 -0.1811
   16MOL   H11511845   1.452   0.821   5.145 -0.0049 -1.5107 -1.5369
   16MOL   H11611846   1.422   1.065   5.179  0.0507 -0.5474 -0.6710
   16MOL   H11711847   1.601   1.138   4.784 -0.7097  2.1568  1.6998
   16MOL   H11811848   1.642   0.894   4.769 -0.3586  0.9936 -0.1957
   16MOL   C11911849   1.478   1.629   5.541 -0.1432  0.0646  0.8685
   16MOL   C12011850   1.546   1.629   5.397  0.2081 -0.1282 -0.4172
   16MOL   C12111851   1.437   1.605   5.293  0.2294 -0.3846 -0.3961
   16MOL   C12211852   1.408   1.451   5.287 -0.4087  0.3400  0.3230
   16MOL   O12311853   1.363   1.421   5.154  0.0296  0.4944  0.4761
   16MOL   C12411854   1.320   1.698   5.295  0.1032  0.4996 -0.0951
   16MOL   C12511855   1.262   1.704   5.446 -0.1777  0.0001  0.2098
   16MOL   C12611856   1.367   1.734   5.556  0.3246  0.2278  0.9263
   16MOL   C12711857   1.407   1.874   5.552  0.0987  0.0593  0.2233
   16MOL   O12811858   1.495   1.910   5.658 -0.5854  0.5590  0.6821
   16MOL   C12911859   1.563   2.023   5.646  0.4763  0.2328  0.6853
   16MOL   O13011860   1.523   2.115   5.573 -0.6642 -0.0345  0.0592
   16MOL   C13111861   1.676   2.033   5.745 -0.0012  0.0763  0.4704
   16MOL   C13211862   1.738   1.923   5.808  0.3893 -0.4923 -0.0492
   16MOL   C13311863   1.838   1.947   5.902  0.0820  0.2526 -0.2803
   16MOL   C13411864   1.885   2.077   5.928 -0.0080  0.9898  0.2111
   16MOL   C13511865   1.998   2.104   6.016 -0.5228 -0.6704  0.1026
   16MOL   O13611866   2.003   2.218   6.070  0.1938  0.3939 -0.2036
   16MOL   O13711867   2.099   2.012   6.018 -0.0395 -0.0003 -0.0098
   16MOL   C13811868   1.827   2.183   5.862 -0.1955  0.2389  0.2058
   16MOL   C13911869   1.719   2.164   5.776 -0.3868 -0.3816 -1.0643
   16MOL   H14011870   1.436   1.529   5.559  0.8440 -0.2059  1.6797
   16MOL   H14111871   1.543   1.644   5.627  0.0821  0.2732  0.6597
   16MOL   H14211872   1.603   1.718   5.371  1.5276 -0.9817 -0.4481
   16MOL   H14311873   1.622   1.552   5.389 -0.0912 -0.4718  0.0114
   16MOL   H14411874   1.480   1.625   5.195 -0.7626  1.4705 -0.4808
   16MOL   H14511875   1.497   1.388   5.293 -0.3050  0.5492  1.0264
   16MOL   H14611876   1.344   1.413   5.366  1.6571  0.6692  2.2238
   16MOL   H14711877   1.347   1.798   5.261 -0.3446  0.9480  0.8702
   16MOL   H14811878   1.240   1.671   5.225  0.3594 -1.9487  0.5096
   16MOL   H14911879   1.220   1.609   5.479  0.0176 -0.3074 -0.4314
   16MOL   H15011880   1.188   1.784   5.454 -1.3575 -0.8685 -1.8067
   16MOL   H15111881   1.320   1.720   5.653 -1.1618  3.1800  0.6763
   16MOL   H15211882   1.458   1.904   5.460 -0.7589 -1.2782 -0.7155
   16MOL   H15311883   1.314   1.930   5.554 -0.5524 -1.0453  2.2846
   16MOL   H15411884   1.702   1.823   5.788  2.5518 -1.9468  2.8678
   16MOL   H15511885   1.883   1.868   5.961 -0.4686 -0.4139 -0.7459
   16MOL   H15611886   1.864   2.283   5.875  1.2074 -0.0697 -1.2157
   16MOL   H15711887   1.682   2.249   5.721 -0.9160  1.2482  1.6701
   16MOL   C15811888   2.520   2.144   6.453  0.3179  0.1309 -0.1536
   16MOL   C15911889   2.410   2.050   6.392  0.3727 -0.3459 -0.2194
   16MOL   C16011890   2.349   2.112   6.265 -0.0461  0.4835  0.2474
   16MOL   C16111891   2.233   2.029   6.210  0.1607 -0.0586  0.4302
   16MOL   O16211892   2.221   2.076   6.077 -0.3189  0.0688 -0.1276
   16MOL   C16311893   2.307   2.259   6.286  0.0377  0.2320  0.3282
   16MOL   C16411894   2.421   2.347   6.343  0.3321 -0.4330  0.4910
   16MOL   C16511895   2.473   2.288   6.478  1.0065  0.3649 -0.0059
   16MOL   C16611896   2.571   2.382   6.553 -0.5486 -0.0770  0.4480
   16MOL   O16711897   2.605   2.325   6.679  0.1484 -0.2927 -0.0484
   16MOL   C16811898   2.684   2.399   6.767  0.3000 -0.4107 -0.1389
   16MOL   O16911899   2.721   2.515   6.748  0.4157 -0.3283  0.3780
   16MOL   C17011900   2.723   2.322   6.887 -0.7435  0.3828  0.3953
   16MOL   C17111901   2.772   2.389   7.006 -0.1489  0.2514 -0.1607
   16MOL   C17211902   2.799   2.313   7.125  0.1576  0.4876  0.5121
   16MOL   C17311903   2.783   2.174   7.125  0.1461  0.2878 -0.3897
   16MOL   C17411904   2.809   2.100   7.252 -0.6138  0.1901 -1.0992
   16MOL   O17511905   2.829   2.155   7.359 -0.1878 -0.0837  0.3660
   16MOL   O17611906   2.810   1.964   7.235 -0.4207 -0.2563 -0.3734
   16MOL   C17711907   2.743   2.108   7.009 -0.2155 -0.3080 -0.4449
   16MOL   C17811908   2.715   2.176   6.888  0.2060 -0.3616 -0.1715
   16MOL   H17911909   2.574   2.096   6.534 -0.2461 -1.1052 -0.4983
   16MOL   H18011910   2.603   2.148   6.382  0.6132 -0.5539  0.1489
   16MOL   H18111911   2.455   1.956   6.361  1.5702  0.0693  0.2407
   16MOL   H18211912   2.339   2.037   6.474  0.0821  1.8136 -0.1135
   16MOL   H18311913   2.423   2.110   6.185  0.1338  0.4693  0.4151
   16MOL   H18411914   2.242   1.920   6.203 -0.1471  0.0467 -1.9097
   16MOL   H18511915   2.135   2.042   6.258 -1.8563  0.4612 -3.6294
   16MOL   H18611916   2.270   2.307   6.196 -0.7866  2.3602  1.7451
   16MOL   H18711917   2.220   2.256   6.352 -0.2312  1.9599  0.0645
   16MOL   H18811918   2.379   2.447   6.349  1.9580  0.2402  0.8720
   16MOL   H18911919   2.500   2.366   6.271 -0.7987  4.5485  0.3637
   16MOL   H19011920   2.393   2.297   6.552  0.8365  0.8644 -0.2451
   16MOL   H19111921   2.660   2.409   6.497  0.1217 -1.3649  0.8840
   16MOL   H19211922   2.515   2.474   6.569 -0.6274  0.3148 -1.8531
   16MOL   H19311923   2.789   2.495   6.993  2.2351 -0.3461 -2.3631
   16MOL   H19411924   2.844   2.363   7.209 -1.5411 -0.1451  1.8193
   16MOL   H19511925   2.719   2.004   7.022 -0.1062 -0.3511 -0.5872
   16MOL   H19611926   2.670   2.122   6.806 -0.9803 -0.8576  0.7862
   16MOL   C19711927   3.245   1.692   7.599 -0.8236 -0.3493 -0.0527
   16MOL   C19811928   3.202   1.742   7.460 -0.2364  0.0348  0.3299
   16MOL   C19911929   3.047   1.781   7.459  0.2175 -0.1123 -0.2381
   16MOL   C20011930   2.990   1.836   7.327  0.3445  0.4516 -0.1295
   16MOL   O20111931   2.854   1.878   7.355 -0.2321  0.0623  0.3403
   16MOL   C20211932   2.963   1.673   7.524  0.0737 -0.4424  0.2007
   16MOL   C20311933   3.002   1.639   7.665  0.8104  0.3180 -0.0242
   16MOL   C20411934   3.150   1.589   7.659  0.0933 -0.3087  0.0659
   16MOL   C20511935   3.197   1.528   7.791 -0.3333  0.4665  0.4486
   16MOL   O20611936   3.330   1.463   7.776  0.6152 -0.0867  0.1715
   16MOL   C20711937   3.353   1.332   7.807 -0.3832  0.0933  0.0830
   16MOL   O20811938   3.266   1.258   7.854  0.0938 -0.1179 -0.1872
   16MOL   C20911939   3.489   1.293   7.784 -0.3309  0.1143  0.1622
   16MOL   C21011940   3.534   1.177   7.842 -0.5175 -0.1617  0.3812
   16MOL   C21111941   3.670   1.141   7.833  0.2546 -0.0317 -0.1637
   16MOL   C21211942   3.760   1.208   7.751  0.5585 -0.4055  0.3521
   16MOL   C21311943   3.902   1.161   7.745  0.3550 -0.3594  0.6222
   16MOL   O21411944   3.954   1.086   7.826  0.4715  0.3282  0.1633
   16MOL   O21511945   3.977   1.220   7.656 -0.2093 -0.4321  0.2987
   16MOL   C21611946   3.706   1.317   7.672 -0.3435 -0.6236 -0.4484
   16MOL   C21711947   3.575   1.357   7.695 -0.1299 -0.0102 -0.0151
   16MOL   H21811948   3.348   1.655   7.591  0.2487  1.9666  2.2181
   16MOL   H21911949   3.253   1.779   7.664  1.8115 -0.2660 -0.4138
   16MOL   H22011950   3.253   1.835   7.436  0.7562 -0.5834  0.0069
   16MOL   H22111951   3.216   1.678   7.373  0.7568  0.6890 -0.0040
   16MOL   H22211952   3.031   1.866   7.525 -0.3052 -0.0439 -0.4492
   16MOL   H22311953   3.055   1.914   7.287  1.2437  0.9645  2.2080
   16MOL   H22411954   2.989   1.748   7.264 -1.2517  1.0066 -0.9132
   16MOL   H22511955   2.857   1.695   7.537  0.2402 -0.8544  2.5534
   16MOL   H22611956   2.955   1.581   7.466 -2.2522  0.7893 -1.4720
   16MOL   H22711957   2.933   1.560   7.694  0.7125 -0.1077 -1.3875
   16MOL   H22811958   2.994   1.712   7.746  0.2915  0.0830  0.1355
   16MOL   H22911959   3.147   1.504   7.592  0.7878 -0.1271 -0.1931
   16MOL   H23011960   3.202   1.608   7.865 -1.8642  1.5703 -0.6209
   16MOL   H23111961   3.122   1.458   7.827  0.1405 -0.0307  0.4838
   16MOL   H23211962   3.463   1.128   7.908  1.8839 -1.3324  2.1660
   16MOL   H23311963   3.717   1.068   7.897  0.8010  2.3494  2.2585
   16MOL   H23411964   3.770   1.370   7.603 -1.0561 -0.8761 -1.3044
   16MOL   H23511965   3.526   1.438   7.642 -3.0293 -2.1943 -0.7745
   16MOL   C23611966   4.053   1.213   7.138  0.3632 -0.2850  0.3692
   16MOL   C23711967   4.110   1.118   7.249  0.3169  0.3584 -0.2029
   16MOL   C23811968   4.081   1.182   7.389 -0.1261 -0.0634 -0.5570
   16MOL   C23911969   4.114   1.096   7.515 -0.5531 -0.3630 -0.0806
   16MOL   O24011970   4.115   1.174   7.635  0.3968  0.1235 -0.5042
   16MOL   C24111971   4.131   1.332   7.394 -0.1015  0.0329 -0.4460
   16MOL   C24211972   4.071   1.422   7.287 -0.3038  0.3048 -0.3247
   16MOL   C24311973   4.089   1.363   7.150  0.5305  0.5178  0.0754
   16MOL   C24411974   3.995   1.445   7.065  0.1106 -0.2219  0.0620
   16MOL   O24511975   4.016   1.415   6.921 -0.1403 -0.2679 -0.3322
   16MOL   C24611976   4.125   1.472   6.866 -0.6427  0.3666  0.3954
   16MOL   O24711977   4.192   1.562   6.919  0.3323 -0.0415  0.1959
   16MOL   C24811978   4.148   1.427   6.722 -0.2648  0.1510 -0.6000
   16MOL   C24911979   4.255   1.482   6.645  0.1632 -0.3602 -0.1105
   16MOL   C25011980   4.276   1.451   6.511  0.2627 -0.4555  0.3461
   16MOL   C25111981   4.205   1.350   6.452  0.9745 -0.0950  0.6461
   16MOL   C25211982   4.236   1.310   6.309 -0.9742  0.0516 -0.8681
   16MOL   O25311983   4.347   1.321   6.260 -0.6110 -0.0495  0.5905
   16MOL   O25411984   4.129   1.260   6.248 -0.2110  0.1052  0.0159
   16MOL   C25511985   4.092   1.297   6.524 -0.5440 -0.3517 -0.6199
   16MOL   C25611986   4.063   1.328   6.658  0.4137 -0.2987  0.6272
   16MOL   H25711987   4.086   1.181   7.039  0.0815  2.1642 -0.5601
   16MOL   H25811988   3.944   1.214   7.137  0.3398  0.1365  2.0408
   16MOL   H25911989   4.076   1.014   7.248  0.2686  0.3775 -0.6486
   16MOL   H26011990   4.219   1.114   7.237  0.2360 -1.2784 -0.6131
   16MOL   H26111991   3.973   1.195   7.393 -0.4503 -2.6432 -0.1695
   16MOL   H26211992   4.067   0.998   7.521 -2.3235  0.4221 -0.8150
   16MOL   H26311993   4.221   1.084   7.503 -0.6464 -0.9379 -0.3488
   16MOL   H26411994   4.110   1.380   7.489 -0.2955 -0.2397 -0.3526
   16MOL   H26511995   4.239   1.337   7.382 -0.0285  2.1088  0.7930
   16MOL   H26611996   4.092   1.529   7.293 -2.0754  0.6319  0.5858
   16MOL   H26711997   3.967   1.408   7.318 -0.1565  1.9466  0.9827
   16MOL   H26811998   4.189   1.376   7.109  0.5420  0.3619  0.0557
   16MOL   H26911999   3.895   1.412   7.097  0.6516 -1.0807  0.9012
   16MOL   H27012000   3.999   1.551   7.089  1.3373 -0.2798  0.1383
   16MOL   H27112001   4.320   1.562   6.674  0.3965 -0.0125 -1.5443
   16MOL   H27212002   4.352   1.510   6.461 -0.0817  0.6968  1.1667
   16MOL   H27312003   4.020   1.226   6.486 -1.9505 -0.4344  2.1150
   16MOL   H27412004   3.978   1.285   6.709 -0.7598  1.6263  0.3540
   16MOL   C27512005   4.058   1.479   5.680 -0.3026  0.9144  0.5548
   16MOL   C27612006   4.021   1.471   5.826 -0.1738 -0.1026 -0.3891
   16MOL   C27712007   4.104   1.354   5.901 -0.5729  0.1876 -0.4470
   16MOL   C27812008   4.067   1.359   6.050 -0.1925  0.5279  0.2450
   16MOL   O27912009   4.151   1.255   6.097  0.7436 -0.3249 -1.0033
   16MOL   C28012010   4.066   1.221   5.832 -0.0591 -0.2010 -0.1539
   16MOL   C28112011   4.101   1.217   5.684  0.5856  0.2167 -0.3248
   16MOL   C28212012   4.027   1.336   5.613  0.0495 -0.6598 -0.1595
   16MOL   C28312013   4.062   1.326   5.466  0.2258  0.4464 -0.3857
   16MOL   O28412014   3.978   1.409   5.386 -0.0202 -0.4603 -0.1746
   16MOL   C28512015   4.024   1.526   5.338  0.1780  0.6451 -0.0146
   16MOL   O28612016   4.134   1.575   5.367  0.0406  0.2385  0.0561
   16MOL   C28712017   3.927   1.596   5.249  0.1461  0.5148 -0.3950
   16MOL   C28812018   3.919   1.736   5.231 -0.2059  0.1492  0.4789
   16MOL   C28912019   3.836   1.790   5.131  0.6652 -0.0825 -0.4682
   16MOL   C29012020   3.738   1.711   5.064  0.1857  0.4583 -0.0001
   16MOL   C29112021   3.628   1.772   4.967 -0.3688  0.2187 -0.1528
   16MOL   O29212022   3.545   1.710   4.904 -0.4763  0.3591  0.3315
   16MOL   O29312023   3.624   1.902   4.976  0.0500 -0.7822 -0.7429
   16MOL   C29412024   3.726   1.578   5.100  0.0999  0.6295  0.0235
   16MOL   C29512025   3.828   1.521   5.184  0.3628  0.0071  0.2419
   16MOL   H29612026   4.003   1.556   5.628 -2.5154 -2.3347 -2.0933
   16MOL   H29712027   4.164   1.502   5.668 -0.0637  1.5890  3.5736
   16MOL   H29812028   4.031   1.572   5.866 -1.8523 -0.5143  1.1356
   16MOL   H29912029   3.913   1.464   5.836 -0.1026  1.9060  2.3241
   16MOL   H30012030   4.209   1.377   5.886 -0.5392 -0.6549 -1.5902
   16MOL   H30112031   4.085   1.462   6.078 -0.1646  0.9601 -1.2979
   16MOL   H30212032   3.960   1.338   6.054 -0.7710  3.0599 -1.0463
   16MOL   H30312033   4.115   1.139   5.885 -1.5777 -0.6714  0.5586
   16MOL   H30412034   3.963   1.192   5.857 -0.4865  0.0832 -1.5438
   16MOL   H30512035   4.067   1.122   5.643  0.2615  0.3374 -0.3371
   16MOL   H30612036   4.206   1.239   5.665  0.9607 -1.3609 -0.1672
   16MOL   H30712037   3.920   1.320   5.611 -0.1395  0.3999  0.7069
   16MOL   H30812038   4.170   1.338   5.454  0.5112  0.2298  1.7525
   16MOL   H30912039   4.049   1.221   5.441 -1.2483  0.0259  2.1055
   16MOL   H31012040   3.984   1.801   5.287  0.7968  0.4661 -1.0201
   16MOL   H31112041   3.842   1.895   5.106  0.5100  0.7697  2.9249
   16MOL   H31212042   3.647   1.518   5.057  2.5385 -1.3866 -1.8043
   16MOL   H31312043   3.821   1.419   5.217 -1.4918 -0.1483 -0.5575
   16MOL   C31412044   3.496   2.366   4.569 -0.0186  0.5454 -0.6885
   16MOL   C31512045   3.561   2.234   4.626 -0.2366  0.5805  0.3787
   16MOL   C31612046   3.486   2.152   4.722  0.7587  0.0228  0.2142
   16MOL   C31712047   3.575   2.043   4.777 -0.9142  0.3079  0.4811
   16MOL   O31812048   3.517   1.969   4.890 -0.3706 -0.4928 -0.5482
   16MOL   C31912049   3.436   2.242   4.829 -0.4828  0.1382 -0.8622
   16MOL   C32012050   3.368   2.372   4.788 -0.3595  0.5239 -0.2617
   16MOL   C32112051   3.455   2.452   4.690 -0.6724  0.5768  1.2030
   16MOL   C32212052   3.380   2.575   4.635  0.1899  0.0298 -0.2922
   16MOL   O32312053   3.333   2.646   4.749  0.3431 -0.0554 -0.1310
   16MOL   C32412054   3.254   2.753   4.748 -0.6681 -0.6567 -0.0863
   16MOL   O32512055   3.210   2.800   4.646 -0.1802 -0.0632 -0.4973
   16MOL   C32612056   3.220   2.816   4.880 -0.0162 -0.1964 -0.1449
   16MOL   C32712057   3.157   2.941   4.888  0.2970 -0.1234 -0.3598
   16MOL   C32812058   3.122   3.003   5.012  0.0720 -0.4382 -0.4225
   16MOL   C32912059   3.154   2.939   5.135  0.5462 -0.5913 -0.1682
   16MOL   C33012060   3.131   3.003   5.271 -0.8733  0.6422  0.0124
   16MOL   O33112061   3.094   3.117   5.289  0.2161 -0.0989  0.6515
   16MOL   O33212062   3.149   2.918   5.377 -0.2379  0.2717 -0.7589
   16MOL   C33312063   3.211   2.813   5.130 -0.3365 -0.9195  0.3119
   16MOL   C33412064   3.245   2.754   5.002  0.4213 -0.0126  0.1902
   16MOL   H33512065   3.568   2.414   4.503  1.7603 -0.5225  0.4275
   16MOL   H33612066   3.412   2.346   4.502 -0.4560  0.3883 -0.0991
   16MOL   H33712067   3.601   2.175   4.544 -2.5000 -0.8735  0.3009
   16MOL   H33812068   3.650   2.269   4.679  1.0541 -1.6321 -0.2891
   16MOL   H33912069   3.403   2.108   4.667  1.7604  0.3176 -1.5884
   16MOL   H34012070   3.601   1.966   4.704 -1.5795  1.2861 -0.8237
   16MOL   H34112071   3.664   2.096   4.811 -0.6961  1.0996 -1.2306
   16MOL   H34212072   3.371   2.184   4.895 -1.6904  1.4290 -0.8758
   16MOL   H34312073   3.519   2.270   4.893 -0.7589 -3.9791  1.4695
   16MOL   H34412074   3.336   2.434   4.872 -0.2509  2.2635 -1.4900
   16MOL   H34512075   3.275   2.342   4.739  0.2049 -1.0061 -0.4202
   16MOL   H34612076   3.553   2.486   4.723  0.4095 -3.4808  2.4434
   16MOL   H34712077   3.455   2.624   4.572  0.3071  0.4961  0.2047
   16MOL   H34812078   3.297   2.544   4.572  0.3797 -2.0073  0.4046
   16MOL   H34912079   3.140   2.993   4.795 -0.1932 -0.8901 -0.7015
   16MOL   H35012080   3.079   3.102   5.011  2.1443  0.6239  3.4763
   16MOL   H35112081   3.247   2.768   5.222 -1.2461 -0.0018  1.1168
   16MOL   H35212082   3.293   2.658   5.008 -1.3551 -0.8691  1.1217
   16MOL   C35312083   3.054   2.604   5.760 -0.0443 -0.3007 -0.7325
   16MOL   C35412084   3.081   2.751   5.729  0.0631  0.6099  0.3540
   16MOL   C35512085   2.990   2.817   5.615  0.4745  0.1021 -0.4202
   16MOL   C35612086   3.028   2.967   5.570  0.7946  0.2565  0.4334
   16MOL   O35712087   3.152   2.981   5.507 -0.2176 -0.1783  0.2054
   16MOL   C35812088   2.966   2.721   5.498  0.4443 -0.4709  0.2742
   16MOL   C35912089   2.932   2.570   5.539  0.5431 -0.9900 -0.0807
   16MOL   C36012090   3.039   2.519   5.635 -0.6158  0.7947  0.2676
   16MOL   C36112091   3.010   2.368   5.675 -0.0268 -0.7037 -0.0345
   16MOL   O36212092   3.117   2.310   5.748  0.0856  0.0321 -0.2709
   16MOL   C36312093   3.103   2.190   5.809  0.1632  0.1068  0.0351
   16MOL   O36412094   3.008   2.115   5.792 -0.1585 -0.2336  0.7451
   16MOL   C36512095   3.216   2.151   5.892  0.0863 -0.0649 -0.5191
   16MOL   C36612096   3.341   2.215   5.872  0.0026 -0.8232 -0.7756
   16MOL   C36712097   3.445   2.174   5.958 -0.2453 -0.0804 -0.1962
   16MOL   C36812098   3.419   2.077   6.063  0.3217 -0.9667 -0.0741
   16MOL   C36912099   3.536   2.024   6.137 -0.0586  0.1335  0.3047
   16MOL   O37012100   3.650   2.057   6.127 -0.4545 -0.2175  0.0413
   16MOL   O37112101   3.508   1.936   6.229  0.0580 -0.5533  0.5034
   16MOL   C37212102   3.288   2.031   6.087 -0.6488 -0.7440  0.4560
   16MOL   C37312103   3.188   2.063   6.000  0.2252  0.0680 -0.4680
   16MOL   H37412104   3.114   2.572   5.844 -1.9626  0.1962  0.8744
   16MOL   H37512105   2.953   2.602   5.801  1.4115  1.5121  3.1902
   16MOL   H37612106   3.085   2.810   5.820 -0.9047  0.2911  0.6158
   16MOL   H37712107   3.185   2.761   5.699 -0.0673 -0.0769 -0.3454
   16MOL   H37812108   2.893   2.822   5.664  0.0089  1.1129 -1.4316
   16MOL   H37912109   2.953   3.018   5.510  0.6250 -0.1207  0.3263
   16MOL   H38012110   3.039   3.029   5.660  2.1831 -0.9314  1.1081
   16MOL   H38112111   2.889   2.772   5.439  0.2713  0.7738  1.5528
   16MOL   H38212112   3.049   2.723   5.427  0.9003  3.7669  0.7757
   16MOL   H38312113   2.932   2.502   5.454 -3.1352 -0.7453 -0.3769
   16MOL   H38412114   2.832   2.556   5.580  1.4696 -2.3093  1.8315
   16MOL   H38512115   3.134   2.524   5.581 -0.4322 -1.4147  0.3743
   16MOL   H38612116   2.913   2.340   5.716 -1.0821 -0.3205 -2.2011
   16MOL   H38712117   3.015   2.320   5.577  0.8729  0.0137 -0.3483
   16MOL   H38812118   3.354   2.286   5.792 -2.0228  1.8879  1.1772
   16MOL   H38912119   3.545   2.212   5.941  0.4777 -1.1580  1.5299
   16MOL   H39012120   3.262   1.963   6.167 -1.2480  0.3062  1.1597
   16MOL   H39112121   3.090   2.023   6.023 -0.5739  2.2136 -0.0449
   16MOL   C39212122   4.063   1.887   6.325 -0.8871  0.9006 -0.4562
   16MOL   C39312123   3.917   1.935   6.326 -0.2599 -0.0303 -0.5524
   16MOL   C39412124   3.825   1.835   6.386  0.2322  0.2906  0.3746
   16MOL   C39512125   3.679   1.870   6.393 -0.3473  0.2825  0.1241
   16MOL   O39612126   3.628   1.847   6.263  0.7211 -0.3938  0.4891
   16MOL   C39712127   3.842   1.694   6.314  0.0331  0.0667 -0.1710
   16MOL   C39812128   3.987   1.642   6.338  0.6616  0.1665 -0.1572
   16MOL   C39912129   4.085   1.744   6.273 -0.3524  0.2992 -0.3981
   16MOL   C40012130   4.236   1.698   6.279 -0.0218 -0.1013  0.4690
   16MOL   O40112131   4.318   1.790   6.206  0.2689 -0.2625  0.3259
   16MOL   C40212132   4.324   1.783   6.070  0.0546  0.0296  0.9057
   16MOL   O40312133   4.313   1.674   6.011 -0.2008 -0.0253 -0.5728
   16MOL   C40412134   4.347   1.908   5.997 -0.2786  0.3885 -0.2562
   16MOL   C40512135   4.361   2.034   6.066 -0.5076 -0.5412 -1.0276
   16MOL   C40612136   4.407   2.150   5.998  0.0468  0.0468  0.0071
   16MOL   C40712137   4.426   2.148   5.858  0.0522  0.8121  0.1357
   16MOL   C40812138   4.474   2.273   5.780  0.3732 -0.0574  0.4367
   16MOL   O40912139   4.476   2.379   5.831 -0.0839  0.3319 -0.0086
   16MOL   O41012140   4.516   2.237   5.664 -0.1234 -0.3973 -0.0401
   16MOL   C41112141   4.394   2.028   5.788  0.2439 -0.5531  0.3505
   16MOL   C41212142   4.367   1.910   5.859 -0.6710 -0.3515 -0.7019
   16MOL   H41312143   4.135   1.958   6.285  0.6516  0.2982  1.2152
   16MOL   H41412144   4.096   1.880   6.428 -1.1649 -1.3214 -0.4987
   16MOL   H41512145   3.914   2.036   6.368 -1.7949 -0.1809 -0.2848
   16MOL   H41612146   3.886   1.933   6.222 -0.8718 -0.2386 -0.3706
   16MOL   H41712147   3.858   1.826   6.489  3.3395 -0.2697 -0.6037
   16MOL   H41812148   3.619   1.832   6.476 -1.3618 -1.5342 -1.4157
   16MOL   H41912149   3.663   1.973   6.424  1.7793 -0.2088  3.0719
   16MOL   H42012150   3.766   1.621   6.340  0.6788 -0.7590 -0.5930
   16MOL   H42112151   3.831   1.713   6.207  0.7491 -0.3203 -0.3155
   16MOL   H42212152   3.998   1.552   6.278  0.1247  1.5964 -2.4682
   16MOL   H42312153   4.006   1.616   6.442  2.8519  0.5349 -0.4523
   16MOL   H42412154   4.055   1.749   6.168  1.8342 -2.8484 -1.2432
   16MOL   H42512155   4.264   1.701   6.384 -1.0461 -0.3174  0.7557
   16MOL   H42612156   4.244   1.598   6.236  0.4656 -1.1220  2.8792
   16MOL   H42712157   4.360   2.035   6.174 -1.1899  0.0986 -1.0367
   16MOL   H42812158   4.412   2.245   6.048 -0.0338  0.5266 -0.8938
   16MOL   H42912159   4.389   2.035   5.681 -2.1491  1.5860  0.5535
   16MOL   H43012160   4.360   1.821   5.798 -0.0723 -1.0779  0.2683
   16MOL   C43112161   4.711   2.697   5.285  0.2664 -0.6270 -0.7620
   16MOL   C43212162   4.605   2.601   5.338  0.2490  0.0121 -0.2131
   16MOL   C43312163   4.666   2.511   5.439 -0.6217  0.0636  0.0006
   16MOL   C43412164   4.562   2.415   5.504 -0.0262 -0.1102 -0.0171
   16MOL   O43512165   4.617   2.330   5.606  0.1434 -0.0246 -0.2839
   16MOL   C43612166   4.785   2.432   5.368  0.0139  0.5070  0.4079
   16MOL   C43712167   4.893   2.520   5.307 -0.4278 -0.0951  0.2254
   16MOL   C43812168   4.835   2.625   5.214 -0.4019 -0.4536  0.3971
   16MOL   C43912169   4.934   2.728   5.164  0.0746  0.3351 -0.3610
   16MOL   O44012170   4.898   2.781   5.035 -0.0614  0.5780  0.1602
   16MOL   C44112171   4.887   2.907   5.018  0.2303  0.4399  0.3053
   16MOL   O44212172   4.923   2.987   5.105  0.5149 -0.0850 -0.2551
   16MOL   C44312173   4.816   2.951   4.887 -0.4609 -0.4527  0.3920
   16MOL   C44412174   4.756   2.860   4.791 -0.5258 -0.5645 -0.0083
   16MOL   C44512175   4.689   2.916   4.683  1.2221  1.1028 -0.3154
   16MOL   C44612176   4.685   3.058   4.655  0.0872 -0.3201  0.0401
   16MOL   C44712177   4.620   3.114   4.544 -0.1670 -0.4935  0.5885
   16MOL   O44812178   4.627   3.230   4.500 -0.0420 -0.3747 -0.0202
   16MOL   O44912179   4.538   3.023   4.484  0.0972 -0.3363 -0.0097
   16MOL   C45012180   4.743   3.146   4.748  0.2493 -0.6181  0.3815
   16MOL   C45112181   4.804   3.089   4.861 -0.2656 -0.0620  0.2922
   16MOL   H45212182   4.674   2.760   5.204 -0.4344  0.7072  0.5760
   16MOL   H45312183   4.752   2.761   5.363 -0.9279  0.0490 -0.6824
   16MOL   H45412184   4.522   2.660   5.376  0.6930  0.4041  0.1594
   16MOL   H45512185   4.564   2.532   5.264  0.4066 -1.7631  1.3199
   16MOL   H45612186   4.713   2.577   5.512  1.2112 -0.8872 -0.2890
   16MOL   H45712187   4.490   2.473   5.564  0.4215  0.5480 -0.1108
   16MOL   H45812188   4.515   2.352   5.429 -1.9712  0.8614  0.3441
   16MOL   H45912189   4.830   2.369   5.445 -0.1917  1.3715  1.2577
   16MOL   H46012190   4.740   2.360   5.300  0.8417  2.6128 -2.4726
   16MOL   H46112191   4.977   2.467   5.262 -1.2219 -0.0333 -1.3491
   16MOL   H46212192   4.943   2.576   5.386  1.5282 -1.9009  0.3097
   16MOL   H46312193   4.794   2.585   5.121 -0.0827  0.2142 -0.0296
   16MOL   H46412194   4.971   2.805   5.232 -0.3698  0.0711  0.1845
   16MOL   H46512195   5.024   2.676   5.132  0.4832 -0.4234  1.9281
   16MOL   H46612196   4.748   2.752   4.792  1.3131 -0.7203  1.2345
   16MOL   H46712197   4.641   2.848   4.614  0.0031  1.6919 -0.0643
   16MOL   H46812198   4.732   3.254   4.747 -3.7368 -0.9572  0.7446
   16MOL   H46912199   4.832   3.161   4.937  1.9040 -1.2121  0.6189
   16MOL   C47012200   4.155   2.842   4.196 -0.4126  0.5926 -0.1677
   16MOL   C47112201   4.274   2.915   4.259 -0.2613 -0.3797 -0.3312
   16MOL   C47212202   4.234   3.055   4.319  0.5021 -0.4966 -0.1092
   16MOL   C47312203   4.357   3.127   4.374  0.1478  0.5661 -0.3612
   16MOL   O47412204   4.488   3.078   4.348  0.0826  0.2019  0.5556
   16MOL   C47512205   4.154   3.139   4.221 -0.4948 -0.3071 -0.4023
   16MOL   C47612206   4.038   3.063   4.157 -0.0382 -0.2555  0.2561
   16MOL   C47712207   4.083   2.930   4.091  0.6985 -0.0917 -0.5885
   16MOL   C47812208   3.965   2.858   4.022 -0.4552 -0.0356 -0.4992
   16MOL   O47912209   3.916   2.956   3.927  0.4250  0.0495  0.7078
   16MOL   C48012210   3.794   2.939   3.876 -0.0263 -0.4749  0.3915
   16MOL   O48112211   3.730   2.837   3.877  0.3686 -0.0080  0.1806
   16MOL   C48212212   3.743   3.061   3.811 -0.7071 -0.4942  0.6898
   16MOL   C48312213   3.827   3.174   3.789  0.4247 -0.0027 -0.6591
   16MOL   C48412214   3.773   3.296   3.744  0.4808 -0.2812  0.0631
   16MOL   C48512215   3.633   3.303   3.708  0.2890 -0.4270  0.2177
   16MOL   C48612216   3.566   3.430   3.665 -0.5135 -0.5014 -0.2649
   16MOL   O48712217   3.445   3.443   3.646  0.4218  0.0968 -0.0786
   16MOL   O48812218   3.650   3.534   3.630  0.0849  0.1959 -0.3590
   16MOL   C48912219   3.550   3.192   3.723 -1.2990 -0.5004 -0.7834
   16MOL   C49012220   3.607   3.071   3.770 -0.1671  0.4201  0.4301
   16MOL   H49112221   4.188   2.745   4.160  0.7187  0.9270 -0.0515
   16MOL   H49212222   4.089   2.816   4.279 -0.0058  1.8774  0.5696
   16MOL   H49312223   4.325   2.847   4.326 -2.6796 -0.3222  1.6659
   16MOL   H49412224   4.348   2.937   4.182 -1.0486  3.2096 -0.1933
   16MOL   H49512225   4.159   3.052   4.398  1.9946 -0.3047  1.3521
   16MOL   H49612226   4.359   3.220   4.318 -1.8352  0.1241 -1.2125
   16MOL   H49712227   4.334   3.181   4.466  1.6289  1.6880 -0.6292
   16MOL   H49812228   4.131   3.237   4.263  1.3534 -0.0873  0.1658
   16MOL   H49912229   4.216   3.174   4.139  2.6723 -0.7655  1.6810
   16MOL   H50012230   3.999   3.121   4.073 -0.4802 -3.2535 -1.6711
   16MOL   H50112231   3.970   3.035   4.237 -0.8220  2.4360  0.5696
   16MOL   H50212232   4.154   2.955   4.013 -0.0763  2.1518 -0.6312
   16MOL   H50312233   3.998   2.772   3.964 -0.2151  0.9558 -1.8591
   16MOL   H50412234   3.895   2.821   4.097  0.1617  0.0689  0.1384
   16MOL   H50512235   3.926   3.181   3.832  0.1494 -0.5280  0.0679
   16MOL   H50612236   3.839   3.382   3.743  0.2967 -0.1437 -0.8778
   16MOL   H50712237   3.447   3.194   3.691 -1.0222 -1.2903 -1.7516
   16MOL   H50812238   3.539   2.989   3.791  1.4347 -0.8826  0.6221
   16MOL   C50912239   3.568   4.075   3.364  0.3243  0.3632  0.3953
   16MOL   C51012240   3.550   3.921   3.358  0.0110  0.1840 -0.5899
   16MOL   C51112241   3.583   3.848   3.488 -0.3514 -0.8847 -0.2541
   16MOL   C51212242   3.571   3.697   3.488  0.2151  0.3609  0.2437
   16MOL   O51312243   3.575   3.661   3.623 -0.2513 -0.5654  0.4518
   16MOL   C51412244   3.732   3.886   3.511  0.1395 -0.6910 -0.3330
   16MOL   C51512245   3.756   4.033   3.526 -0.1378 -0.3695 -0.4943
   16MOL   C51612246   3.714   4.112   3.410  0.2838 -0.0289  0.8867
   16MOL   C51712247   3.735   4.260   3.436 -0.2932 -0.0607  0.0460
   16MOL   O51812248   3.656   4.298   3.552  0.1452 -0.2181  0.1760
   16MOL   C51912249   3.586   4.405   3.550  0.4554 -0.1899  1.0395
   16MOL   O52012250   3.567   4.484   3.458 -0.3357 -0.0172  0.4652
   16MOL   C52112251   3.526   4.436   3.684 -0.4332  0.2575  0.4254
   16MOL   C52212252   3.452   4.550   3.713  0.4540 -0.2217  0.3381
   16MOL   C52312253   3.415   4.576   3.847  0.3154 -0.4834 -0.1504
   16MOL   C52412254   3.435   4.475   3.947 -0.0938  0.1829  0.1347
   16MOL   C52512255   3.376   4.512   4.080 -0.2509  0.0317 -0.6251
   16MOL   O52612256   3.308   4.611   4.100  0.3118  0.1965  0.7413
   16MOL   O52712257   3.421   4.431   4.179 -1.1377 -0.5368 -0.1600
   16MOL   C52812258   3.506   4.356   3.919  0.1987  0.0937  0.0850
   16MOL   C52912259   3.555   4.343   3.786 -0.6191 -0.2278 -0.2213
   16MOL   H53012260   3.549   4.117   3.265  1.4599 -0.5956 -0.2367
   16MOL   H53112261   3.493   4.115   3.432 -2.6838 -0.7829 -2.1331
   16MOL   H53212262   3.449   3.902   3.320 -0.3088  0.5195  0.0825
   16MOL   H53312263   3.606   3.873   3.278 -0.6141 -0.5284 -0.6060
   16MOL   H53412264   3.524   3.892   3.569  1.5134  2.3178 -0.5546
   16MOL   H53512265   3.479   3.657   3.445  0.7391 -0.1728 -0.4035
   16MOL   H53612266   3.629   3.640   3.415 -0.3071  0.1837 -0.0390
   16MOL   H53712267   3.775   3.826   3.592  0.6649 -0.5202 -0.4873
   16MOL   H53812268   3.797   3.855   3.430  1.5815 -0.6785  0.7981
   16MOL   H53912269   3.861   4.059   3.543 -0.3722 -0.8232  1.7701
   16MOL   H54012270   3.694   4.059   3.612 -0.3950 -0.5877 -0.6157
   16MOL   H54112271   3.781   4.091   3.327 -1.9220  0.6347 -1.1205
   16MOL   H54212272   3.840   4.286   3.454  0.7669 -3.4307 -0.9562
   16MOL   H54312273   3.691   4.307   3.348  0.3579  0.1484 -0.1746
   16MOL   H54412274   3.432   4.624   3.636 -1.8026 -0.2244  0.8744
   16MOL   H54512275   3.356   4.662   3.872  3.1954  0.7629  2.8141
   16MOL   H54612276   3.536   4.288   3.997 -0.9780  1.9661  2.1993
   16MOL   H54712277   3.616   4.257   3.761 -0.0598  1.1170 -3.7705
   16MOL   C54812278   3.449   4.903   4.512 -0.6208 -0.0503  0.4475
   16MOL   C54912279   3.449   4.778   4.412  0.6196  0.0363 -0.3146
   16MOL   C55012280   3.537   4.659   4.460  0.2443 -0.0873  0.9112
   16MOL   C55112281   3.552   4.555   4.349  0.2747  0.3384  0.4124
   16MOL   O55212282   3.427   4.494   4.319  0.9335 -0.4784  0.6172
   16MOL   C55312283   3.672   4.717   4.490  0.7356  0.1087 -0.3498
   16MOL   C55412284   3.681   4.836   4.583 -0.3873 -0.2999  0.0440
   16MOL   C55512285   3.592   4.950   4.534  0.4352  0.0485  0.5902
   16MOL   C55612286   3.609   5.070   4.629  0.5746  0.3250 -0.1100
   16MOL   O55712287   3.718   5.144   4.585 -0.1006  0.0904  0.0559
   16MOL   C55812288   3.837   5.130   4.654  0.0082 -0.2781  0.4671
   16MOL   O55912289   3.850   5.067   4.758 -0.1589  0.1171 -0.5995
   16MOL   C56012290   3.951   5.205   4.590 -0.3957 -0.3509 -0.1280
   16MOL   C56112291   4.083   5.170   4.627 -0.2180  0.3516 -0.1348
   16MOL   C56212292   4.192   5.234   4.560  0.3239 -0.0869 -0.2740
   16MOL   C56312293   4.173   5.339   4.470  0.4200  0.3000  0.2065
   16MOL   C56412294   4.285   5.412   4.411 -0.0158 -0.1099 -0.3117
   16MOL   O56512295   4.272   5.517   4.354  0.2807  0.3678  0.0735
   16MOL   O56612296   4.402   5.349   4.428 -0.4947 -0.4449 -0.2004
   16MOL   C56712297   4.041   5.383   4.441  0.5613 -0.3672  0.1698
   16MOL   C56812298   3.931   5.312   4.495  0.7228  0.0098 -0.2003
   16MOL   H56912299   3.384   4.981   4.472 -1.1286 -0.9556 -0.5194
   16MOL   H57012300   3.407   4.869   4.607  0.6778  0.7899  1.3382
   16MOL   H57112301   3.346   4.753   4.385  0.3105  1.3459 -0.3929
   16MOL   H57212302   3.483   4.802   4.311  1.2998  0.5985  0.0415
   16MOL   H57312303   3.492   4.623   4.552 -2.9045  0.4930 -0.3612
   16MOL   H57412304   3.604   4.600   4.264 -0.8294  1.1266  0.1299
   16MOL   H57512305   3.631   4.486   4.378 -0.8568 -1.1464 -0.0234
   16MOL   H57612306   3.736   4.641   4.533  1.5328  1.1068  0.2665
   16MOL   H57712307   3.723   4.753   4.400 -0.8004  3.0498 -0.0938
   16MOL   H57812308   3.786   4.866   4.591 -0.1513 -0.8969 -0.6714
   16MOL   H57912309   3.650   4.814   4.685  1.2206 -2.1959  0.1709
   16MOL   H58012310   3.623   4.995   4.440  0.2939 -0.3418  0.3561
   16MOL   H58112311   3.517   5.122   4.655  0.3985 -0.9411  1.9358
   16MOL   H58212312   3.637   5.023   4.723  1.4701 -2.2054 -1.6085
   16MOL   H58312313   4.100   5.086   4.693 -0.8919  0.4009  0.1015
   16MOL   H58412314   4.289   5.190   4.577 -0.3840 -0.8503  2.0944
   16MOL   H58512315   4.020   5.466   4.374  0.8190 -0.8121 -0.4678
   16MOL   H58612316   3.831   5.338   4.462  1.8600  0.5498 -3.3595
   16MOL   C58712317   4.915   5.400   4.645 -0.7725  0.4306 -0.0875
   16MOL   C58812318   4.781   5.466   4.617  0.1258  0.6757 -0.1172
   16MOL   C58912319   4.708   5.404   4.491  0.1144  0.0522  0.1930
   16MOL   C59012320   4.587   5.492   4.461 -0.0696 -0.7104 -0.1573
   16MOL   O59112321   4.514   5.419   4.363  0.2225  0.2665  0.2952
   16MOL   C59212322   4.807   5.402   4.368 -0.0497 -0.3610  0.0689
   16MOL   C59312323   4.938   5.330   4.407  0.2253 -0.1043  0.1687
   16MOL   C59412324   5.008   5.399   4.520 -0.4912 -0.1981  0.1414
   16MOL   C59512325   5.143   5.333   4.542  0.0468 -0.0919 -0.1839
   16MOL   O59612326   5.218   5.330   4.425  0.2848 -0.8337  1.2348
   16MOL   C59712327   5.340   5.275   4.424  0.5254  0.5112  0.0579
   16MOL   O59812328   5.396   5.242   4.526  0.1287 -0.0736 -0.1748
   16MOL   C59912329   5.406   5.279   4.290  0.0884 -0.2799 -0.8682
   16MOL   C60012330   5.334   5.335   4.182 -0.5895 -0.0045 -0.5189
   16MOL   C60112331   5.395   5.342   4.061 -0.1577  0.8109  1.1470
   16MOL   C60212332   5.528   5.294   4.045  0.7741 -0.7706  0.5051
   16MOL   C60312333   5.585   5.299   3.907  0.4212 -0.0535  0.2489
   16MOL   O60412334   5.702   5.276   3.881 -0.2019  0.2754  0.1876
   16MOL   O60512335   5.502   5.333   3.807  0.2773 -1.0983  0.7919
   16MOL   C60612336   5.597   5.225   4.146 -0.5017  0.5578 -0.1976
   16MOL   C60712337   5.533   5.214   4.272  0.0390  0.7724 -0.2951
   16MOL   H60812338   4.976   5.452   4.719  0.0306 -0.6538  0.0393
   16MOL   H60912339   4.902   5.297   4.678 -1.6361  0.1083 -1.4074
   16MOL   H61012340   4.716   5.478   4.703 -2.0658 -0.1197 -1.6041
   16MOL   H61112341   4.806   5.569   4.594 -1.6097  1.1284 -0.0566
   16MOL   H61212342   4.668   5.304   4.512  1.1633 -0.7871 -1.7214
   16MOL   H61312343   4.520   5.520   4.542  1.3036 -0.3373  0.8846
   16MOL   H61412344   4.609   5.584   4.407  3.2192 -0.3428  1.6276
   16MOL   H61512345   4.784   5.358   4.271 -1.6080  1.3038 -0.3510
   16MOL   H61612346   4.831   5.507   4.353  0.0048 -0.4743 -0.6486
   16MOL   H61712347   4.992   5.346   4.314 -0.5408  0.3380 -0.2032
   16MOL   H61812348   4.929   5.224   4.429 -1.0078  0.5277  2.8720
   16MOL   H61912349   5.034   5.503   4.502 -0.3857 -0.4656 -1.2719
   16MOL   H62012350   5.203   5.388   4.614 -1.8698  0.7094  0.8186
   16MOL   H62112351   5.127   5.233   4.582  2.6307  0.2802  1.9212
   16MOL   H62212352   5.237   5.381   4.199 -0.4304 -0.7098  2.6449
   16MOL   H62312353   5.343   5.378   3.973 -0.0031  0.0824  0.7520
   16MOL   H62412354   5.690   5.179   4.114 -0.4586 -0.1682  0.9558
   16MOL   H62512355   5.579   5.159   4.354  1.3377 -1.1149 -2.2492
   16MOL   C62612356   5.198   5.150   3.545  0.2460  0.6547 -0.2210
   16MOL   C62712357   5.344   5.151   3.592 -0.1308  0.1823  0.1449
   16MOL   C62812358   5.417   5.265   3.534  0.2485 -0.6732 -0.2092
   16MOL   C62912359   5.565   5.273   3.580  0.0240  0.1039 -0.0846
   16MOL   O63012360   5.583   5.373   3.677  0.0832 -0.5542  0.0771
   16MOL   C63112361   5.404   5.270   3.378  0.3243  0.3775 -0.8686
   16MOL   C63212362   5.257   5.263   3.330  0.0767  0.4061  0.3020
   16MOL   C63312363   5.187   5.136   3.391 -0.8482  0.3305  0.5273
   16MOL   C63412364   5.040   5.130   3.342  0.1808  0.1464  0.0970
   16MOL   O63512365   4.966   5.233   3.394  0.1847 -0.0051 -0.5843
   16MOL   C63612366   4.858   5.197   3.460 -0.5920 -0.3914 -0.3663
   16MOL   O63712367   4.824   5.082   3.495  0.2101  0.0966  0.7832
   16MOL   C63812368   4.764   5.308   3.471  0.0761 -1.0193 -0.8223
   16MOL   C63912369   4.627   5.282   3.499  1.0636  0.9960  0.1897
   16MOL   C64012370   4.538   5.386   3.499  0.4889 -0.1242 -1.0593
   16MOL   C64112371   4.575   5.519   3.487  1.2606 -0.4055  0.3686
   16MOL   C64212372   4.471   5.620   3.493  0.6655  0.8141 -0.7328
   16MOL   O64312373   4.347   5.603   3.486  0.0770 -0.2901 -0.5056
   16MOL   O64412374   4.517   5.740   3.510 -0.1362  0.1595 -0.0764
   16MOL   C64512375   4.713   5.548   3.487  0.7029  0.3796  0.5012
   16MOL   C64612376   4.804   5.443   3.464  0.1302 -0.1202 -0.1675
   16MOL   H64712377   5.146   5.069   3.596 -0.5022  0.9166 -0.5668
   16MOL   H64812378   5.139   5.231   3.588 -1.7079 -0.9962  0.2552
   16MOL   H64912379   5.330   5.159   3.699 -2.9898 -3.8723  0.1965
   16MOL   H65012380   5.390   5.056   3.563  1.4654  1.7467 -2.6575
   16MOL   H65112381   5.376   5.355   3.579  2.8055 -0.5333  1.9656
   16MOL   H65212382   5.609   5.178   3.608  0.9679  0.2725 -0.9488
   16MOL   H65312383   5.630   5.304   3.498  0.2957  3.7357  1.4258
   16MOL   H65412384   5.452   5.362   3.345 -0.9503  0.5741 -2.2368
   16MOL   H65512385   5.460   5.181   3.348  3.2409  0.7624  2.9997
   16MOL   H65612386   5.261   5.262   3.221  0.9432 -1.7188  0.3334
   16MOL   H65712387   5.208   5.357   3.357 -0.1679 -0.3211  2.5307
   16MOL   H65812388   5.223   5.043   3.347  1.6013  1.5275 -0.1395
   16MOL   H65912389   5.041   5.151   3.235  0.0569 -1.2806 -0.1858
   16MOL   H66012390   5.009   5.028   3.367 -0.4733  0.0171 -1.1888
   16MOL   H66112391   4.589   5.181   3.500  1.2707  0.8922 -1.1766
   16MOL   H66212392   4.431   5.372   3.511  0.1231  3.4184  0.4741
   16MOL   H66312393   4.748   5.650   3.496  1.3142  0.4340 -1.9388
   16MOL   H66412394   4.908   5.467   3.449  0.8328 -0.2356  4.0018
   16MOL   C66512395   4.152   6.179   3.369 -0.2985  0.2738 -0.3140
   16MOL   C66612396   4.228   6.049   3.360  0.7387 -0.2203 -0.0979
   16MOL   C66712397   4.379   6.065   3.389 -0.4261 -0.6437 -0.4488
   16MOL   C66812398   4.453   5.931   3.384 -0.3174  0.0116 -0.2460
   16MOL   O66912399   4.422   5.853   3.499 -0.5686  0.3703 -0.7734
   16MOL   C67012400   4.443   6.181   3.307 -0.5220 -0.3124  0.1207
   16MOL   C67112401   4.378   6.307   3.347  0.0834  0.5320 -0.0789
   16MOL   C67212402   4.233   6.297   3.300 -0.5767 -0.0557  0.3091
   16MOL   C67312403   4.162   6.437   3.306  0.1848 -0.3307  1.0204
   16MOL   O67412404   4.020   6.431   3.286  0.3568  0.3326 -0.5527
   16MOL   C67512405   3.975   6.441   3.155 -0.0845  0.2215  0.1514
   16MOL   O67612406   4.042   6.483   3.062  1.1102  0.2073 -0.1741
   16MOL   C67712407   3.830   6.397   3.146  0.5958 -0.2709 -0.1267
   16MOL   C67812408   3.760   6.335   3.250  0.4310  0.0573  0.1422
   16MOL   C67912409   3.624   6.291   3.231  0.1713  0.3771 -0.0443
   16MOL   C68012410   3.561   6.313   3.114 -0.4081  0.1054  0.2440
   16MOL   C68112411   3.417   6.266   3.082 -0.3821  0.4323  0.0980
   16MOL   O68212412   3.367   6.281   2.968  0.1799 -0.4055  0.0721
   16MOL   O68312413   3.360   6.208   3.187  0.1089  0.3157  0.3831
   16MOL   C68412414   3.624   6.388   3.012  0.0670  0.2793  0.1632
   16MOL   C68512415   3.756   6.434   3.029 -0.4655  0.0753 -0.0738
   16MOL   H68612416   4.048   6.175   3.337 -0.3101  1.8908 -0.5238
   16MOL   H68712417   4.127   6.209   3.471  0.4003 -1.2676  0.3245
   16MOL   H68812418   4.172   5.971   3.412  0.7720  1.3263  2.3570
   16MOL   H68912419   4.221   6.023   3.254  1.3826 -0.0916 -0.1753
   16MOL   H69012420   4.410   6.095   3.489 -1.5745  0.5660 -0.4434
   16MOL   H69112421   4.433   5.867   3.298  3.4272 -0.1474 -1.0754
   16MOL   H69212422   4.560   5.946   3.392 -0.1898 -2.2587  3.5663
   16MOL   H69312423   4.545   6.193   3.343 -0.2349 -0.0156 -0.7785
   16MOL   H69412424   4.431   6.168   3.199 -0.3555 -0.2225  0.0920
   16MOL   H69512425   4.421   6.398   3.304  1.7463  0.5486  1.5719
   16MOL   H69612426   4.387   6.324   3.454  2.3009 -2.3160  0.2469
   16MOL   H69712427   4.233   6.274   3.194  1.3222 -0.3403  0.3530
   16MOL   H69812428   4.160   6.484   3.405  0.2035  0.0537  0.8374
   16MOL   H69912429   4.217   6.497   3.234  0.1390 -1.3290  0.1517
   16MOL   H70012430   3.804   6.338   3.348 -0.3559 -1.2556  0.5513
   16MOL   H70112431   3.571   6.238   3.309  0.6619 -0.0730 -0.0072
   16MOL   H70212432   3.563   6.406   2.924 -1.9792  0.5348  1.6084
   16MOL   H70312433   3.806   6.491   2.952 -2.4203  1.1059 -0.6055
   16MOL   C70412434   2.899   6.218   3.510  0.4185 -0.0462  0.2683
   16MOL   C70512435   2.951   6.268   3.378  0.2864 -0.1350  0.2960
   16MOL   C70612436   3.083   6.194   3.347  0.6263  0.2063 -0.7736
   16MOL   C70712437   3.126   6.214   3.200  0.2853 -0.6176 -0.1829
   16MOL   O70812438   3.240   6.139   3.150 -0.1208  0.1389 -0.0121
   16MOL   C70912439   3.194   6.228   3.450  0.3503  0.0126  0.1337
   16MOL   C71012440   3.150   6.212   3.590  0.1342  0.3477  0.9589
   16MOL   C71112441   2.999   6.251   3.621 -0.1863 -0.0802 -0.4069
   16MOL   C71212442   2.959   6.171   3.750 -0.1681 -0.1721  0.2576
   16MOL   O71312443   3.048   6.213   3.848 -0.6040  0.1777 -0.1306
   16MOL   C71412444   3.060   6.153   3.970  0.0040  0.4163  0.1785
   16MOL   O71512445   2.985   6.064   4.003 -0.4753  0.1299  0.1601
   16MOL   C71612446   3.175   6.200   4.050 -0.1850 -0.0681  0.6205
   16MOL   C71712447   3.278   6.285   3.996  0.4732 -0.5311 -0.2650
   16MOL   C71812448   3.391   6.311   4.077  0.3379 -0.0081 -0.7933
   16MOL   C71912449   3.399   6.275   4.213  0.7493  1.0609  0.0529
   16MOL   C72012450   3.520   6.290   4.295  0.4053 -0.5893  0.5572
   16MOL   O72112451   3.524   6.267   4.413  0.6808 -0.1564  0.0714
   16MOL   O72212452   3.629   6.348   4.228  0.2815 -0.3268 -0.1112
   16MOL   C72312453   3.300   6.190   4.260  0.4570  0.7333  0.0570
   16MOL   C72412454   3.193   6.149   4.178 -0.7267 -0.1493  0.7082
   16MOL   H72512455   2.799   6.260   3.524  0.0730 -0.7931  0.0645
   16MOL   H72612456   2.870   6.113   3.513 -1.3471  0.4498  1.1777
   16MOL   H72712457   2.883   6.250   3.295  2.6057 -1.4589 -1.4061
   16MOL   H72812458   2.964   6.376   3.377 -2.7024  0.2658  0.4547
   16MOL   H72912459   3.060   6.088   3.358 -0.7880  0.5126 -0.6626
   16MOL   H73012460   3.044   6.199   3.130 -0.3349  0.3025  0.3498
   16MOL   H73112461   3.150   6.320   3.199 -1.6345 -0.1698  0.2824
   16MOL   H73212462   3.274   6.154   3.440  1.3710  1.1227 -0.0779
   16MOL   H73312463   3.241   6.326   3.438 -0.8421  0.7901  1.6560
   16MOL   H73412464   3.216   6.257   3.665  1.2737 -0.5343  0.4931
   16MOL   H73512465   3.154   6.104   3.604 -0.2136  0.0183 -1.3149
   16MOL   H73612466   2.996   6.356   3.650 -0.7753 -0.0312 -0.6343
   16MOL   H73712467   2.857   6.197   3.778 -0.3498 -0.9885  0.3409
   16MOL   H73812468   2.966   6.067   3.720 -0.5581  0.0087 -0.4807
   16MOL   H73912469   3.277   6.318   3.894 -1.5125 -2.6183 -0.9508
   16MOL   H74012470   3.469   6.368   4.029  2.5338 -2.1398  0.1395
   16MOL   H74112471   3.305   6.155   4.361 -2.9087 -0.5577 -0.1506
   16MOL   H74212472   3.122   6.077   4.216 -2.5851  0.9951 -0.4778
   16MOL   C74312473   3.662   6.766   4.031 -0.0553  0.3027  0.2010
   16MOL   C74412474   3.642   6.639   4.113  1.0157  0.2739 -0.3719
   16MOL   C74512475   3.742   6.647   4.224  0.4423  0.4785  0.0297
   16MOL   C74612476   3.713   6.539   4.340  0.0964  0.2295 -0.3139
   16MOL   O74712477   3.737   6.395   4.310  0.6113  0.0843 -0.0351
   16MOL   C74812478   3.888   6.636   4.167  0.8529 -0.4963 -0.3523
   16MOL   C74912479   3.916   6.755   4.071 -0.2549 -0.4669  0.4879
   16MOL   C75012480   3.802   6.778   3.965  0.0995  0.1233 -0.8433
   16MOL   C75112481   3.820   6.907   3.879 -0.4720  0.1844 -0.4349
   16MOL   O75212482   3.759   6.894   3.754  0.6657  0.2549  1.4149
   16MOL   C75312483   3.784   6.987   3.656 -0.1103 -0.0430 -0.8824
   16MOL   O75412484   3.842   7.091   3.675 -0.5889 -0.0331 -0.7009
   16MOL   C75512485   3.744   6.941   3.524  0.2637  0.6140 -0.0562
   16MOL   C75612486   3.691   6.810   3.504  0.3085  0.0669  0.0923
   16MOL   C75712487   3.648   6.767   3.380 -0.3537  0.2802  0.4986
   16MOL   C75812488   3.654   6.856   3.268 -0.6397  0.0797  0.3772
   16MOL   C75912489   3.609   6.818   3.133  0.4629 -1.3170 -0.0562
   16MOL   O76012490   3.521   6.737   3.110 -0.6171  0.1904  0.1166
   16MOL   O76112491   3.694   6.864   3.036 -0.1928 -0.2857 -0.9517
   16MOL   C76212492   3.700   6.987   3.285 -0.1863 -0.0032 -0.7697
   16MOL   C76312493   3.748   7.026   3.410 -0.7484  0.0572  0.1139
   16MOL   H76412494   3.594   6.780   3.947  0.4195  1.2510 -0.0343
   16MOL   H76512495   3.645   6.848   4.100  0.2939  0.4927  0.0592
   16MOL   H76612496   3.545   6.640   4.164  2.3176 -1.7672  2.2609
   16MOL   H76712497   3.641   6.551   4.048 -1.1508  0.1777 -0.2502
   16MOL   H76812498   3.722   6.734   4.287 -1.0733 -0.1840  0.4776
   16MOL   H76912499   3.775   6.561   4.427  0.2606  2.1621 -0.8982
   16MOL   H77012500   3.615   6.551   4.385 -0.0122 -0.6637 -0.3017
   16MOL   H77112501   3.959   6.635   4.250 -0.3126  2.0696  0.7090
   16MOL   H77212502   3.894   6.539   4.118  1.9562 -0.0723 -1.0891
   16MOL   H77312503   4.012   6.733   4.023  0.3528  2.6979  0.1648
   16MOL   H77412504   3.929   6.851   4.120 -1.9959 -0.8593  1.7843
   16MOL   H77512505   3.810   6.691   3.899 -1.2807 -0.4499 -0.2834
   16MOL   H77612506   3.780   6.991   3.935  1.7963  2.3868 -2.0248
   16MOL   H77712507   3.923   6.935   3.861 -0.3849 -1.9505 -3.7119
   16MOL   H77812508   3.686   6.740   3.587 -3.8308  0.1157 -0.0142
   16MOL   H77912509   3.616   6.664   3.370  0.4213 -0.0711  1.5003
   16MOL   H78012510   3.691   7.056   3.203  1.3917  0.2487 -0.7560
   16MOL   H78112511   3.785   7.127   3.407  1.4757 -0.7235 -0.3261
   16MOL   H78212512   3.684   6.824   2.951  0.5183  3.0005 -2.6649
   17MOL     C112513   0.692   0.577   5.786  0.0925  0.8555  0.6644
   17MOL     C212514   0.807   0.497   5.730  0.3284 -0.3503 -0.0026
   17MOL     C312515   0.815   0.366   5.808  0.2847 -0.5216  0.1933
   17MOL     C412516   0.928   0.275   5.762  0.3717 -0.1947  0.6082
   17MOL     O512517   0.934   0.154   5.830  0.5019 -0.1050  0.9513
   17MOL     C612518   0.841   0.391   5.960  0.4044  0.2856  0.1745
   17MOL     C712519   0.733   0.489   6.019 -0.1080  0.4887 -0.1073
   17MOL     C812520   0.725   0.613   5.931  0.2389 -0.3464  0.2832
   17MOL     C912521   0.625   0.710   5.999 -0.0489  0.6966  0.2438
   17MOL    O1012522   0.640   0.841   5.935  0.1549  0.4322 -0.1691
   17MOL    C1112523   0.707   0.937   5.993 -0.0367  0.4519 -0.0554
   17MOL    O1212524   0.768   0.920   6.099  0.1426  0.4797  0.0647
   17MOL    C1312525   0.711   1.061   5.910 -0.5678 -0.3756  0.2065
   17MOL    C1412526   0.639   1.070   5.788  0.2954 -0.0548  0.2337
   17MOL    C1512527   0.650   1.184   5.707  0.4334 -1.0001 -0.3523
   17MOL    C1612528   0.725   1.297   5.747  0.3496 -0.5148  0.6425
   17MOL    C1712529   0.738   1.420   5.666  0.6493  0.0564 -0.2133
   17MOL    O1812530   0.815   1.512   5.695  0.1698 -0.3402 -0.3112
   17MOL    O1912531   0.664   1.412   5.551 -0.1101  0.0957 -0.5298
   17MOL    C2012532   0.789   1.297   5.877  0.7348 -0.3298  0.5561
   17MOL    C2112533   0.779   1.181   5.958  0.1207 -0.0004 -1.1317
   17MOL    H2212534   0.680   0.670   5.729 -0.2333 -1.7095 -3.6885
   17MOL    H2312535   0.594   0.532   5.772 -0.2507  2.3942 -2.3283
   17MOL    H2412536   0.792   0.479   5.623 -1.1722  1.7896 -0.1691
   17MOL    H2512537   0.902   0.552   5.734 -1.3202  2.5630  0.3499
   17MOL    H2612538   0.715   0.324   5.791 -0.8392  1.8471  0.6583
   17MOL    H2712539   0.917   0.260   5.655 -0.8938 -2.2694  1.0040
   17MOL    H2812540   1.023   0.327   5.776  0.6513 -0.3499 -0.7165
   17MOL    H2912541   0.835   0.299   6.017 -0.7476  1.1670  1.4952
   17MOL    H3012542   0.948   0.411   5.969  0.2697  1.0779  0.0810
   17MOL    H3112543   0.759   0.513   6.122 -0.3094  2.9894 -0.6137
   17MOL    H3212544   0.638   0.434   6.023  1.0237 -1.7184 -2.2002
   17MOL    H3312545   0.824   0.657   5.945  1.2857 -2.3483 -0.6185
   17MOL    H3412546   0.526   0.667   5.986 -0.2650  0.5165  2.2874
   17MOL    H3512547   0.637   0.718   6.107 -0.8420 -0.6556  0.4434
   17MOL    H3612548   0.589   0.982   5.750  1.3183 -0.0417 -1.2059
   17MOL    H3712549   0.593   1.180   5.616 -0.8968 -1.0873  0.4776
   17MOL    H3812550   0.835   1.385   5.921  0.7789 -0.1173  0.0812
   17MOL    H3912551   0.830   1.195   6.052 -0.3437  0.6556 -0.9742
   17MOL    H4012552   1.011   0.106   5.805  0.2844 -0.4086  0.8510
   17MOL    C4112553   0.780   1.957   5.464 -1.6109  0.2441 -0.2052
   17MOL    C4212554   0.753   1.816   5.500  0.3551 -0.4027  0.7717
   17MOL    C4312555   0.616   1.771   5.432  0.3340  0.0437 -0.1603
   17MOL    C4412556   0.583   1.626   5.481  0.0413 -0.6436 -0.2636
   17MOL    O4512557   0.694   1.534   5.459 -0.6454  0.1500  0.1758
   17MOL    C4612558   0.514   1.869   5.474  0.5686 -0.9088 -0.5781
   17MOL    C4712559   0.539   2.014   5.438  0.1137 -0.1965  0.0287
   17MOL    C4812560   0.671   2.056   5.505  0.4927 -1.0560  0.4757
   17MOL    C4912561   0.717   2.208   5.488  0.0462  0.0676 -0.0698
   17MOL    O5012562   0.693   2.246   5.353  0.2650 -0.2479  0.2441
   17MOL    C5112563   0.717   2.370   5.322  0.4135 -0.1733  0.7849
   17MOL    O5212564   0.773   2.456   5.390 -0.4546  0.5925 -0.2367
   17MOL    C5312565   0.662   2.406   5.189  0.1054  0.4557  0.6371
   17MOL    C5412566   0.620   2.311   5.100  0.7577  0.5636 -0.2354
   17MOL    C5512567   0.563   2.344   4.975  0.6508  0.1969 -0.3255
   17MOL    C5612568   0.546   2.482   4.947 -1.0161  0.0791  0.2800
   17MOL    C5712569   0.471   2.523   4.822  0.1766  0.1696  0.6053
   17MOL    O5812570   0.416   2.449   4.741 -0.3236  0.4529 -0.5255
   17MOL    O5912571   0.476   2.650   4.798  0.1771 -0.1585  0.2105
   17MOL    C6012572   0.601   2.576   5.027  0.1974 -0.3410  0.1203
   17MOL    C6112573   0.650   2.544   5.150 -0.3870 -0.3190 -0.0918
   17MOL    H6212574   0.875   1.985   5.510  0.2669 -3.7049 -1.4108
   17MOL    H6312575   0.801   1.971   5.358  0.0919 -0.3836  0.0213
   17MOL    H6412576   0.832   1.748   5.469 -1.9024 -2.4728 -0.5573
   17MOL    H6512577   0.750   1.796   5.607 -0.2185 -0.9639  0.6527
   17MOL    H6612578   0.620   1.770   5.323  0.7534  0.2773 -0.1468
   17MOL    H6712579   0.568   1.644   5.588 -0.7145 -4.4079  0.3422
   17MOL    H6812580   0.490   1.588   5.439 -0.4937  0.5022 -0.1312
   17MOL    H6912581   0.417   1.831   5.443  0.3090  0.3359 -1.3311
   17MOL    H7012582   0.505   1.871   5.583  0.3151  0.7306 -0.6111
   17MOL    H7112583   0.456   2.080   5.459 -0.6888 -1.0186 -0.5362
   17MOL    H7212584   0.556   2.016   5.330  1.6526  0.1442  0.2569
   17MOL    H7312585   0.662   2.054   5.614  1.4391  1.6007  0.6464
   17MOL    H7412586   0.685   2.277   5.567  0.8347 -1.4060  1.5516
   17MOL    H7512587   0.824   2.218   5.503  0.2159 -1.0778 -0.4807
   17MOL    H7612588   0.633   2.207   5.126  1.3601  0.2546 -1.7210
   17MOL    H7712589   0.520   2.266   4.914 -1.0016 -0.0526  1.1141
   17MOL    H7812590   0.582   2.681   5.007 -0.1694 -0.7277 -1.6616
   17MOL    H7912591   0.670   2.630   5.212 -1.2803 -0.4129  0.3336
   17MOL    C8012592   0.263   2.748   4.253 -0.2861 -0.3122 -0.2890
   17MOL    C8112593   0.314   2.784   4.391  0.1712 -0.1565 -0.1622
   17MOL    C8212594   0.444   2.699   4.427 -0.8071 -0.0253  0.9534
   17MOL    C8312595   0.506   2.730   4.570 -0.8876 -0.5827  0.1571
   17MOL    O8412596   0.413   2.692   4.667  0.4619  0.4359  0.4737
   17MOL    C8512597   0.425   2.546   4.400 -0.0455 -0.4231  0.2622
   17MOL    C8612598   0.366   2.521   4.264  0.4516 -0.0294  0.5684
   17MOL    C8712599   0.235   2.606   4.227  0.2966  0.7050  0.2622
   17MOL    C8812600   0.202   2.570   4.079 -0.1438 -0.4795 -0.0073
   17MOL    O8912601   0.097   2.647   4.034  0.7065 -0.0195  0.2480
   17MOL    C9012602   8.004   2.611   4.053  0.2953  0.6648 -0.2111
   17MOL    O9112603   7.980   2.499   4.100 -0.1634  0.0970 -0.0379
   17MOL    C9212604   7.902   2.705   4.004 -0.0261 -0.1700  0.3572
   17MOL    C9312605   7.766   2.673   4.022 -0.1191 -0.2935  0.1069
   17MOL    C9412606   7.665   2.769   3.985 -0.1367 -0.5309 -0.8083
   17MOL    C9512607   7.705   2.901   3.954 -0.7082  0.0107 -0.4683
   17MOL    C9612608   7.616   3.018   3.941 -0.0555  0.4784  1.3498
   17MOL    O9712609   7.509   3.018   3.998  0.9394 -0.2937  0.3414
   17MOL    O9812610   7.654   3.117   3.858 -0.7017  0.1332 -0.1268
   17MOL    C9912611   7.840   2.931   3.935  0.4343 -0.2525  0.0399
   17MOL   C10012612   7.938   2.834   3.961  0.5527 -0.2183  0.1271
   17MOL   H10112613   0.174   2.806   4.232 -0.7793 -1.3694 -1.1314
   17MOL   H10212614   0.338   2.780   4.181 -1.6110 -1.7156 -2.3329
   17MOL   H10312615   0.322   2.892   4.405  1.6829 -0.3293  0.3030
   17MOL   H10412616   0.241   2.755   4.466 -0.9007  2.8311  0.0073
   17MOL   H10512617   0.531   2.727   4.367  0.0768 -1.7505  1.3783
   17MOL   H10612618   0.600   2.676   4.586 -1.3110 -1.0128  1.2400
   17MOL   H10712619   0.524   2.837   4.584  0.8348 -1.1658  2.5768
   17MOL   H10812620   0.517   2.487   4.411 -0.1347 -0.7397 -0.6516
   17MOL   H10912621   0.355   2.505   4.473  1.1162  0.4663  1.8976
   17MOL   H11012622   0.349   2.415   4.247 -2.7440  0.5860 -0.3626
   17MOL   H11112623   0.433   2.542   4.181 -1.1532 -0.5089 -0.8746
   17MOL   H11212624   0.164   2.574   4.304 -0.0520  2.2697  0.6082
   17MOL   H11312625   0.288   2.590   4.015 -1.9387  1.4951 -1.8455
   17MOL   H11412626   0.181   2.464   4.065  1.0573 -0.6297 -0.7519
   17MOL   H11512627   7.739   2.578   4.067 -0.6530 -0.1098  0.1726
   17MOL   H11612628   7.562   2.739   3.997 -0.2560  0.6782  1.4777
   17MOL   H11712629   7.873   3.033   3.921 -1.8714  0.4623 -0.3755
   17MOL   H11812630   0.003   2.873   3.968  0.0392  1.2024 -0.2165
   17MOL   C11912631   7.446   3.608   3.665  0.9839 -0.4491  0.2032
   17MOL   C12012632   7.549   3.497   3.714 -0.2443 -0.4319  0.6973
   17MOL   C12112633   7.496   3.450   3.850 -0.6049 -0.4136 -0.4933
   17MOL   C12212634   7.581   3.340   3.907  0.2467  0.2238 -0.9127
   17MOL   O12312635   7.551   3.217   3.838 -0.7140 -0.4012 -0.0295
   17MOL   C12412636   7.470   3.562   3.959 -0.3444  0.0835 -0.0865
   17MOL   C12512637   7.382   3.676   3.905 -0.1391  0.1103 -0.2915
   17MOL   C12612638   7.420   3.725   3.765 -0.0043  0.5553 -0.1491
   17MOL   C12712639   7.321   3.824   3.715 -0.9092 -0.0900 -0.3254
   17MOL   O12812640   7.340   3.961   3.747 -0.1036  0.3248 -0.5981
   17MOL   C12912641   7.253   4.037   3.806  0.3235  0.1272 -0.2118
   17MOL   O13012642   7.139   4.003   3.838  0.1675  0.0423  0.7880
   17MOL   C13112643   7.313   4.168   3.840  0.4367  0.9647  0.0242
   17MOL   C13212644   7.243   4.255   3.929  0.3987 -0.2366  0.5738
   17MOL   C13312645   7.310   4.366   3.980 -0.6205  0.3742  0.8862
   17MOL   C13412646   7.441   4.393   3.946  0.1305 -0.4265 -0.2928
   17MOL   C13512647   7.505   4.525   3.976  0.2403 -0.1042  0.6961
   17MOL   O13612648   7.625   4.554   3.954  0.0876  0.1191 -0.5488
   17MOL   O13712649   7.416   4.611   4.037 -0.2543 -0.0123  1.1194
   17MOL   C13812650   7.510   4.310   3.852 -0.0982 -0.5144  0.4378
   17MOL   C13912651   7.447   4.197   3.804  0.0751  0.1942  0.4936
   17MOL   H14012652   7.489   3.643   3.571 -0.2894 -2.4385 -1.1578
   17MOL   H14112653   7.348   3.566   3.645  1.1578 -0.1792 -1.2717
   17MOL   H14212654   7.548   3.410   3.649 -0.5483 -0.3255  0.5597
   17MOL   H14312655   7.654   3.525   3.725  0.0488 -1.1838 -0.1416
   17MOL   H14412656   7.399   3.411   3.821  0.1819 -1.9231 -1.1809
   17MOL   H14512657   7.687   3.363   3.900  0.1648  1.5053  1.3011
   17MOL   H14612658   7.567   3.322   4.014  1.3511  0.1057 -0.7810
   17MOL   H14712659   7.439   3.520   4.055 -0.6090 -0.2437 -0.3173
   17MOL   H14812660   7.569   3.605   3.976  0.1444 -1.2446  0.4933
   17MOL   H14912661   7.368   3.754   3.980  0.1531  0.6366 -0.7699
   17MOL   H15012662   7.285   3.626   3.903  0.6953 -1.5744  0.8005
   17MOL   H15112663   7.511   3.784   3.759  0.3202  0.0129 -0.6836
   17MOL   H15212664   7.318   3.821   3.606  0.3640 -0.3131 -0.3568
   17MOL   H15312665   7.226   3.790   3.755 -0.1841 -1.0543  0.5923
   17MOL   H15412666   7.141   4.238   3.958  1.1867 -3.9860  1.3734
   17MOL   H15512667   7.251   4.425   4.050 -0.4764  1.3855  0.1646
   17MOL   H15612668   7.610   4.336   3.821  0.3618 -0.7507  1.7071
   17MOL   H15712669   7.495   4.138   3.728 -1.3494 -0.3621 -0.0098
   17MOL   C15812670   7.696   5.092   4.118  0.0114  0.2549 -0.6727
   17MOL   C15912671   7.627   4.971   4.061  0.5978  0.6469  0.2399
   17MOL   C16012672   7.466   4.976   4.031 -0.1877 -0.0684 -0.3120
   17MOL   C16112673   7.424   4.838   3.984 -0.4060 -0.1910  0.5161
   17MOL   O16212674   7.472   4.744   4.074  0.2303  0.4226  0.3252
   17MOL   C16312675   7.396   5.022   4.167  0.1595 -0.7469  0.0006
   17MOL   C16412676   7.464   5.148   4.227  0.0799 -0.1940  0.3990
   17MOL   C16512677   7.620   5.141   4.248  0.3605 -0.1721  0.3435
   17MOL   C16612678   7.680   5.275   4.298 -0.1157  0.0333 -0.1526
   17MOL   O16712679   7.625   5.311   4.424  0.1680  0.1408  0.0812
   17MOL   C16812680   7.655   5.434   4.487  0.4924  0.6807  0.4152
   17MOL   O16912681   7.709   5.524   4.424 -0.3060  0.0313  0.0011
   17MOL   C17012682   7.632   5.429   4.642  0.2461 -0.0682 -0.4926
   17MOL   C17112683   7.597   5.305   4.700 -0.1400  0.2711 -0.3850
   17MOL   C17212684   7.577   5.296   4.842  0.4158  0.0796  0.6108
   17MOL   C17312685   7.585   5.413   4.923 -0.2784  0.2584  0.2701
   17MOL   C17412686   7.550   5.409   5.070 -0.2437  0.6999  0.1661
   17MOL   O17512687   7.536   5.511   5.135 -0.3167 -0.1174  0.4216
   17MOL   O17612688   7.512   5.287   5.117 -0.5009  0.0561 -0.0568
   17MOL   C17712689   7.620   5.538   4.865 -0.1939 -0.0758  0.6514
   17MOL   C17812690   7.643   5.544   4.727 -0.1222  0.5060  0.3911
   17MOL   H17912691   7.803   5.079   4.136 -0.2622  0.9180  1.5750
   17MOL   H18012692   7.681   5.167   4.041 -0.7995 -2.3166 -3.0861
   17MOL   H18112693   7.672   4.921   3.975 -0.4437 -0.9055  0.5672
   17MOL   H18212694   7.649   4.896   4.138 -2.0389 -0.2497  0.1543
   17MOL   H18312695   7.447   5.046   3.950  1.9442 -1.5264 -2.1469
   17MOL   H18412696   7.316   4.842   3.975 -0.6057  0.5638  2.9206
   17MOL   H18512697   7.455   4.827   3.879  0.9594  1.4422  0.7297
   17MOL   H18612698   7.290   5.046   4.166  0.7736  2.2715  2.1957
   17MOL   H18712699   7.396   4.933   4.230 -0.9734 -1.8495 -1.5244
   17MOL   H18812700   7.421   5.177   4.323  1.3734  2.9521  0.0794
   17MOL   H18912701   7.426   5.219   4.153 -1.5682 -1.1334  0.3132
   17MOL   H19012702   7.635   5.068   4.327 -0.2104 -2.4176 -1.5580
   17MOL   H19112703   7.788   5.269   4.317 -0.6499 -1.1062  2.8146
   17MOL   H19212704   7.654   5.360   4.235 -1.2270  0.7523  1.2520
   17MOL   H19312705   7.587   5.215   4.640  0.6844 -0.5965  0.7434
   17MOL   H19412706   7.561   5.194   4.876 -0.7664 -0.1675 -0.6644
   17MOL   H19512707   7.613   5.629   4.923  0.2788 -0.0651  0.6935
   17MOL   H19612708   7.664   5.637   4.677 -1.3820  1.9677  2.4984
   17MOL   C19712709   7.116   4.919   5.249 -0.9204 -0.8630  0.7113
   17MOL   C19812710   7.150   5.069   5.241  0.6621  0.1246  0.1087
   17MOL   C19912711   7.297   5.104   5.233  0.4915 -0.2636  0.3569
   17MOL   C20012712   7.311   5.259   5.240 -0.0014  0.4894 -0.0197
   17MOL   O20112713   7.444   5.293   5.248 -0.1497  0.3705 -0.8353
   17MOL   C20212714   7.378   5.030   5.345  0.2645  1.3250 -0.3310
   17MOL   C20312715   7.344   4.878   5.352  0.7145 -0.1658 -0.0233
   17MOL   C20412716   7.187   4.854   5.367  0.8326  0.1845  0.0988
   17MOL   C20512717   7.161   4.702   5.371  0.3077 -0.2034  0.5201
   17MOL   O20612718   7.171   4.649   5.244 -0.3104  0.2027  0.3505
   17MOL   C20712719   7.222   4.524   5.217  0.1139 -0.4208  0.0122
   17MOL   O20812720   7.256   4.443   5.302 -0.0793  0.2232 -0.1310
   17MOL   C20912721   7.223   4.499   5.075 -0.4160 -0.3491 -0.0616
   17MOL   C21012722   7.227   4.602   4.982  0.1732 -0.6776  0.3055
   17MOL   C21112723   7.233   4.567   4.847 -0.0702  0.1227 -0.0869
   17MOL   C21212724   7.228   4.434   4.801  0.4065  0.4164  0.0687
   17MOL   C21312725   7.245   4.410   4.652  0.2443  0.0329  0.2580
   17MOL   O21412726   7.262   4.501   4.571  0.2283  0.1682 -0.5447
   17MOL   O21512727   7.236   4.274   4.624 -0.3962 -0.2016 -0.0285
   17MOL   C21612728   7.220   4.325   4.896  0.3723  0.0259 -0.4919
   17MOL   C21712729   7.220   4.362   5.035 -0.5086 -0.7659 -0.6509
   17MOL   H21812730   7.008   4.914   5.257 -1.0463  1.2854  0.6514
   17MOL   H21912731   7.130   4.863   5.156 -2.0359 -1.6835  1.0389
   17MOL   H22012732   7.101   5.111   5.154  2.1596  0.4718 -0.5954
   17MOL   H22112733   7.104   5.120   5.325  0.3482  1.9310 -1.1412
   17MOL   H22212734   7.327   5.069   5.134 -2.1709 -2.9430  0.4196
   17MOL   H22312735   7.264   5.311   5.156  3.0434  0.2759 -1.8980
   17MOL   H22412736   7.273   5.300   5.334 -1.2466  1.5172 -0.9487
   17MOL   H22512737   7.486   5.040   5.334  0.1674  3.1796  0.2504
   17MOL   H22612738   7.361   5.068   5.445 -1.4266  3.0284 -1.2340
   17MOL   H22712739   7.407   4.830   5.426  1.7935 -0.1495 -0.9056
   17MOL   H22812740   7.375   4.836   5.256 -0.3469  0.6827 -0.7519
   17MOL   H22912741   7.150   4.904   5.457  1.8574  0.1867  0.5304
   17MOL   H23012742   7.217   4.642   5.442 -0.6384 -1.4257  0.2542
   17MOL   H23112743   7.057   4.698   5.405 -0.7884  2.5745 -2.2343
   17MOL   H23212744   7.237   4.707   5.002  1.3056 -0.4600 -1.3758
   17MOL   H23312745   7.236   4.651   4.778 -0.0610 -0.7592 -1.1688
   17MOL   H23412746   7.219   4.222   4.865 -0.2063  0.2668 -1.2934
   17MOL   H23512747   7.232   4.295   5.118  0.0502  0.6205  0.4132
   17MOL   C23612748   6.938   4.057   4.117  0.4028  0.5716 -0.3434
   17MOL   C23712749   6.946   4.142   4.240  0.3277 -0.3931 -0.4057
   17MOL   C23812750   7.094   4.145   4.297  0.1529  0.5723 -0.9698
   17MOL   C23912751   7.098   4.224   4.430  0.3623  0.4481  0.1464
   17MOL   O24012752   7.233   4.247   4.471 -0.5726 -0.0699 -0.0624
   17MOL   C24112753   7.155   3.990   4.312 -0.2860 -0.6453 -0.2552
   17MOL   C24212754   7.127   3.913   4.185  0.2586  0.2209  0.0341
   17MOL   C24312755   6.983   3.917   4.145 -0.4585 -0.2577 -0.4977
   17MOL   C24412756   6.937   3.822   4.037  0.4244 -0.9410 -0.1746
   17MOL   O24512757   6.962   3.686   4.073  0.2654  0.3864 -0.4612
   17MOL   C24612758   7.020   3.600   3.983  0.4889  0.5800 -0.1075
   17MOL   O24712759   7.032   3.630   3.865 -0.2418 -0.0916  0.2702
   17MOL   C24812760   7.037   3.461   4.042 -1.0280  0.6133  0.2056
   17MOL   C24912761   7.127   3.372   3.983  0.0732  0.6277  0.0267
   17MOL   C25012762   7.157   3.242   4.043 -0.3675  0.6553  0.2925
   17MOL   C25112763   7.089   3.210   4.168  0.1334 -1.1120 -0.6560
   17MOL   C25212764   7.123   3.083   4.241  0.3078 -0.5438 -0.2238
   17MOL   O25312765   7.040   3.037   4.318 -0.1618  0.8253 -0.5952
   17MOL   O25412766   7.253   3.047   4.227 -0.0827 -0.2816 -0.3813
   17MOL   C25512767   6.991   3.300   4.220 -0.0382  0.4803 -0.5272
   17MOL   C25612768   6.963   3.423   4.156  0.0687 -0.3351  0.7319
   17MOL   H25712769   6.836   4.053   4.077  0.4344  1.7149 -0.5430
   17MOL   H25812770   6.997   4.093   4.032  1.3591 -1.1453 -0.4227
   17MOL   H25912771   6.915   4.244   4.215  2.7009  0.6309  0.6556
   17MOL   H26012772   6.877   4.103   4.315 -0.4228 -0.3173 -1.0492
   17MOL   H26112773   7.153   4.206   4.228  0.7120  0.0568 -0.9592
   17MOL   H26212774   7.058   4.322   4.408 -1.7114 -0.0633  1.6002
   17MOL   H26312775   7.041   4.184   4.513  0.8363  2.4196  1.4547
   17MOL   H26412776   7.264   3.999   4.319 -0.0758 -2.4033 -0.9727
   17MOL   H26512777   7.117   3.951   4.406  0.4752  0.6614  0.6165
   17MOL   H26612778   7.160   3.809   4.182  1.8206  0.7437 -1.5499
   17MOL   H26712779   7.182   3.959   4.103  0.8063 -0.1134  0.2150
   17MOL   H26812780   6.935   3.881   4.235 -1.3734  1.1240 -0.4288
   17MOL   H26912781   6.831   3.845   4.025  1.0603  1.9598 -0.7064
   17MOL   H27012782   6.980   3.844   3.940 -0.0119 -0.3749 -0.2417
   17MOL   H27112783   7.184   3.406   3.898 -1.9545 -0.3528 -1.7960
   17MOL   H27212784   7.244   3.191   4.006 -0.7678 -0.2370  0.5756
   17MOL   H27312785   6.942   3.266   4.310  1.0915 -0.2616 -0.1903
   17MOL   H27412786   6.889   3.488   4.199 -1.2324 -0.5518 -1.1386
   17MOL   C27512787   7.747   2.904   4.306 -0.2852  0.7532 -0.2582
   17MOL   C27612788   7.592   2.882   4.337 -0.0056 -0.2584 -0.6019
   17MOL   C27712789   7.513   3.002   4.394 -0.2219  0.1872  0.0912
   17MOL   C27812790   7.370   2.963   4.425  0.5162  0.1731 -0.2703
   17MOL   O27912791   7.294   2.927   4.317  0.3210  0.1547 -0.7539
   17MOL   C28012792   7.594   3.042   4.519  0.1384  0.7003  0.0567
   17MOL   C28112793   7.739   3.070   4.500  0.3796  0.0994 -0.0232
   17MOL   C28212794   7.819   2.959   4.433 -0.2384  0.4952  0.0501
   17MOL   C28312795   7.968   2.983   4.397  0.3589  0.3962 -0.3146
   17MOL   O28412796   7.979   3.110   4.339 -0.1524  0.5863  0.6561
   17MOL   C28512797   0.015   3.138   4.223  0.7416 -0.8847  0.0333
   17MOL   O28612798   0.041   3.053   4.139  0.7027 -0.4948  0.1512
   17MOL   C28712799   0.048   3.278   4.223  0.4334 -0.1968 -0.9306
   17MOL   C28812800   0.175   3.319   4.179  0.1629  0.3653 -0.1982
   17MOL   C28912801   0.215   3.449   4.190  0.6871  0.4694 -0.2449
   17MOL   C29012802   0.132   3.547   4.252  0.0403  0.1003 -0.1514
   17MOL   C29112803   0.186   3.678   4.289  0.4485 -0.7127 -0.5875
   17MOL   O29212804   0.132   3.755   4.366  0.8611  0.2044  0.2741
   17MOL   O29312805   0.315   3.704   4.240  0.4231 -0.0155  0.1990
   17MOL   C29412806   0.004   3.505   4.296  0.1729  0.0279  0.2689
   17MOL   C29512807   7.996   3.374   4.280  0.5852  0.4543  0.2262
   17MOL   H29612808   7.790   2.807   4.281 -0.6813  0.3463  0.5975
   17MOL   H29712809   7.743   2.972   4.222  0.5600  1.2684  0.1169
   17MOL   H29812810   7.548   2.846   4.243 -0.7173  1.8380 -1.0891
   17MOL   H29912811   7.580   2.792   4.397  1.9425 -0.7986 -0.9698
   17MOL   H30012812   7.513   3.087   4.327 -0.1281  1.2462  1.4176
   17MOL   H30112813   7.377   2.876   4.490 -1.6158  1.1944  1.4018
   17MOL   H30212814   7.305   3.023   4.490 -0.5380  0.4137 -1.5347
   17MOL   H30312815   7.550   3.135   4.556  0.9613  1.5895 -1.1941
   17MOL   H30412816   7.576   2.968   4.597  1.3974  0.4700  0.1379
   17MOL   H30512817   7.772   3.089   4.603  2.5589  0.2604 -0.7314
   17MOL   H30612818   7.756   3.162   4.444  1.7111 -1.2534 -1.8640
   17MOL   H30712819   7.821   2.883   4.510 -0.1211  1.0599  0.6089
   17MOL   H30812820   8.017   2.990   4.494 -1.9281 -1.2890  1.0056
   17MOL   H30912821   8.002   2.891   4.350  0.8053 -0.0888  0.9435
   17MOL   H31012822   0.238   3.244   4.135 -1.3720 -0.3142 -1.2541
   17MOL   H31112823   0.317   3.467   4.157 -0.2054 -0.9531 -3.9690
   17MOL   H31212824   7.985   3.587   4.340 -0.5868  0.6691 -1.8169
   17MOL   H31312825   7.898   3.339   4.310  1.0545 -2.0335 -1.0069
   17MOL   C31412826   0.550   3.877   3.873 -0.0558 -0.0030 -0.2161
   17MOL   C31512827   0.496   3.910   4.014 -0.0966 -0.2515  0.2687
   17MOL   C31612828   0.343   3.909   4.040 -0.1018  0.0693 -0.4506
   17MOL   C31712829   0.314   3.939   4.190  0.4529  0.2768  0.4294
   17MOL   O31812830   0.365   3.843   4.274  0.6599 -0.0956  0.4926
   17MOL   C31912831   0.279   4.002   3.931 -0.0587 -0.1481 -0.7509
   17MOL   C32012832   0.339   3.977   3.789 -0.4368  0.7899  0.4376
   17MOL   C32112833   0.493   3.986   3.788 -0.1404 -0.8406 -0.8652
   17MOL   C32212834   0.553   3.974   3.648  0.0502 -0.1726 -0.0149
   17MOL   O32312835   0.500   3.864   3.575 -0.5726  0.3252 -0.1833
   17MOL   C32412836   0.392   3.872   3.485 -0.1739 -0.2382 -0.0461
   17MOL   O32512837   0.319   3.963   3.477  0.3117 -0.2490 -0.1373
   17MOL   C32612838   0.364   3.751   3.407 -0.7355  0.8700 -0.6862
   17MOL   C32712839   0.252   3.746   3.314 -0.1893 -0.6409  0.4059
   17MOL   C32812840   0.226   3.637   3.232  1.0940 -0.1585 -0.2968
   17MOL   C32912841   0.311   3.525   3.242  0.8475  0.2385  0.1651
   17MOL   C33012842   0.286   3.399   3.164  0.2879  0.0762  0.2160
   17MOL   O33112843   0.350   3.295   3.178  0.2002 -0.0534  0.3839
   17MOL   O33212844   0.172   3.402   3.083 -0.7977  0.0870  0.1694
   17MOL   C33312845   0.407   3.523   3.341  0.1707 -0.2053 -0.8307
   17MOL   C33412846   0.432   3.633   3.430  0.5670  0.0927 -0.1047
   17MOL   H33512847   0.658   3.882   3.857 -0.2730 -0.5708 -1.9632
   17MOL   H33612848   0.520   3.778   3.838  2.3173 -1.0374  0.5461
   17MOL   H33712849   0.538   3.840   4.086  0.1373 -0.4176 -0.0262
   17MOL   H33812850   0.523   4.013   4.035 -1.9836  0.4188 -0.5566
   17MOL   H33912851   0.307   3.809   4.017  0.7260 -0.4139  0.3158
   17MOL   H34012852   0.357   4.038   4.207 -1.3124  1.6340 -2.7026
   17MOL   H34112853   0.207   3.934   4.211  0.3895 -0.3315 -0.0314
   17MOL   H34212854   0.170   3.992   3.934  0.1080 -1.8764 -0.1423
   17MOL   H34312855   0.308   4.105   3.950 -0.0698 -0.2775 -0.0117
   17MOL   H34412856   0.292   4.057   3.732  0.2494  0.6741 -0.2848
   17MOL   H34512857   0.299   3.882   3.754  0.6899 -0.1015  1.5238
   17MOL   H34612858   0.523   4.083   3.828 -0.8138 -0.7279 -0.6291
   17MOL   H34712859   0.537   4.070   3.598 -0.0536 -0.1010  0.1562
   17MOL   H34812860   0.660   3.969   3.663  0.1532  0.6835 -0.4068
   17MOL   H34912861   0.198   3.838   3.301 -1.2615 -1.2639  0.4548
   17MOL   H35012862   0.146   3.647   3.162 -0.5620 -3.3849  1.0453
   17MOL   H35112863   0.473   3.441   3.365  0.1854 -0.2911 -1.1590
   17MOL   H35212864   0.515   3.622   3.499  2.0186 -2.3292 -2.1295
   17MOL   C35312865   7.691   3.280   3.058 -0.3042  0.6548 -0.0817
   17MOL   C35412866   7.825   3.217   3.104  0.1022  0.0033  0.2563
   17MOL   C35512867   7.946   3.292   3.047  0.5205  0.0503  0.2161
   17MOL   C35612868   0.035   3.214   3.079 -0.4408  0.5877 -0.1096
   17MOL   O35712869   0.148   3.272   3.020  0.7478 -0.6179 -0.1604
   17MOL   C35812870   7.927   3.324   2.895 -1.0257  0.4175 -0.2767
   17MOL   C35912871   7.802   3.408   2.869 -0.6831 -0.9307  0.4254
   17MOL   C36012872   7.683   3.321   2.912  0.1444 -0.2418 -0.2091
   17MOL   C36112873   7.551   3.395   2.890  0.2840  0.4309  0.4258
   17MOL   O36212874   7.542   3.420   2.750 -0.0480 -0.1941 -0.0774
   17MOL   C36312875   7.450   3.370   2.670  0.1588  0.1881  0.3497
   17MOL   O36412876   7.380   3.273   2.703  0.0451  0.3130 -0.0115
   17MOL   C36512877   7.432   3.437   2.536 -0.2770  0.0606  0.1379
   17MOL   C36612878   7.318   3.404   2.462  0.3377 -0.0092  0.1533
   17MOL   C36712879   7.288   3.471   2.340  0.1669  0.3375  0.2816
   17MOL   C36812880   7.389   3.548   2.285  0.0573 -0.2682  0.7794
   17MOL   C36912881   7.364   3.610   2.149  0.3066  1.3688  0.8381
   17MOL   O37012882   7.256   3.632   2.094  0.4780 -0.2851  0.8173
   17MOL   O37112883   7.487   3.620   2.091 -0.4755  0.2126  0.0917
   17MOL   C37212884   7.498   3.592   2.355 -0.3688  0.3278  0.0069
   17MOL   C37312885   7.526   3.528   2.479  0.0500 -0.1174  0.1070
   17MOL   H37412886   7.602   3.220   3.077 -1.7551  2.2053 -1.8630
   17MOL   H37512887   7.686   3.378   3.105  2.9140  1.0835 -0.4927
   17MOL   H37612888   7.834   3.202   3.212 -0.8928 -2.0275  0.0754
   17MOL   H37712889   7.816   3.114   3.068  1.5215  0.6064 -1.9160
   17MOL   H37812890   7.949   3.387   3.099  1.1542  0.3722 -0.4086
   17MOL   H37912891   0.060   3.198   3.184  0.4542  1.1829 -0.2223
   17MOL   H38012892   0.035   3.114   3.036 -0.7736  0.8624 -0.7498
   17MOL   H38112893   8.013   3.370   2.847 -0.2110 -0.2397  0.5521
   17MOL   H38212894   7.910   3.241   2.826  2.3144 -0.5007 -0.0493
   17MOL   H38312895   7.784   3.432   2.765 -0.7101  2.4117  1.1678
   17MOL   H38412896   7.824   3.496   2.930  0.2699 -2.2341  2.0386
   17MOL   H38512897   7.680   3.235   2.845 -0.8639 -0.7569  0.4961
   17MOL   H38612898   7.470   3.328   2.921  0.7797  0.1899  1.2050
   17MOL   H38712899   7.533   3.482   2.952  1.3704 -0.3383  1.8504
   17MOL   H38812900   7.249   3.329   2.498  0.3098  0.1077  0.3463
   17MOL   H38912901   7.202   3.446   2.280 -0.5810 -1.6193  2.1069
   17MOL   H39012902   7.570   3.659   2.312  1.4047 -0.7680  1.2035
   17MOL   H39112903   7.618   3.556   2.528 -0.3552 -1.2346  1.5446
   17MOL   C39212904   7.522   3.601   1.475  0.1798 -0.1520  0.3792
   17MOL   C39312905   7.478   3.544   1.611 -0.0385  0.1200 -0.5578
   17MOL   C39412906   7.481   3.647   1.726  0.1543 -0.6987  0.1441
   17MOL   C39512907   7.479   3.578   1.860  0.4813  0.9280  0.0512
   17MOL   O39612908   7.471   3.675   1.953  0.1363 -0.2468  0.3762
   17MOL   C39712909   7.618   3.726   1.714  0.8254  0.7726 -0.0760
   17MOL   C39812910   7.645   3.788   1.578 -0.6090  0.0105 -0.1206
   17MOL   C39912911   7.648   3.672   1.481 -0.5936  0.0673  0.1184
   17MOL   C40012912   7.699   3.698   1.341  0.6061 -0.4597  0.0984
   17MOL   O40112913   7.610   3.793   1.282  0.4701 -0.2597  0.2417
   17MOL   C40212914   7.658   3.880   1.188  0.0349  0.3111  0.3329
   17MOL   O40312915   7.780   3.900   1.172 -0.8973 -0.4583  0.2563
   17MOL   C40412916   7.560   3.960   1.123 -0.0182  0.1874  0.2447
   17MOL   C40512917   7.424   3.923   1.116 -0.1686  0.0154 -0.4923
   17MOL   C40612918   7.328   4.002   1.047  0.3347 -0.4107  0.1431
   17MOL   C40712919   7.362   4.127   0.988  0.4528 -0.2782  0.7285
   17MOL   C40812920   7.262   4.210   0.910 -0.1427  0.3327  0.3378
   17MOL   O40912921   7.292   4.283   0.820  0.3741  0.2022 -0.2629
   17MOL   O41012922   7.132   4.178   0.938 -0.3147  0.3217 -0.0793
   17MOL   C41112923   7.498   4.169   0.995  0.3241 -0.1427 -0.1789
   17MOL   C41212924   7.588   4.091   1.066 -0.9839 -0.8472 -0.1408
   17MOL   H41312925   7.519   3.523   1.399  0.5916  1.4766 -1.3489
   17MOL   H41412926   7.460   3.682   1.435 -0.3558 -0.5309  0.4306
   17MOL   H41512927   7.379   3.498   1.609  0.9442 -1.9676 -2.9811
   17MOL   H41612928   7.541   3.461   1.640  0.2135  0.4849 -0.0476
   17MOL   H41712929   7.391   3.708   1.721  0.4254 -0.3539 -0.5679
   17MOL   H41812930   7.393   3.511   1.860  1.3843 -0.2507 -0.0300
   17MOL   H41912931   7.557   3.506   1.886 -0.9529 -1.1280 -1.2393
   17MOL   H42012932   7.608   3.810   1.783  1.5376  1.6919 -1.0745
   17MOL   H42112933   7.698   3.661   1.748 -0.3743 -1.1389 -0.8387
   17MOL   H42212934   7.741   3.840   1.578  0.7038 -2.3457  0.1200
   17MOL   H42312935   7.564   3.858   1.557 -0.8357  0.8238  3.2184
   17MOL   H42412936   7.729   3.605   1.512 -1.6134 -1.5047 -0.5436
   17MOL   H42512937   7.800   3.739   1.345  0.4405  0.1312 -1.3831
   17MOL   H42612938   7.701   3.606   1.282  1.7629  0.0786 -0.7145
   17MOL   H42712939   7.381   3.830   1.150 -0.3490  0.5577  0.7968
   17MOL   H42812940   7.229   3.958   1.044 -0.3265  1.0924 -0.9242
   17MOL   H42912941   7.523   4.258   0.940  0.1258  0.0253  0.0031
   17MOL   H43012942   7.690   4.124   1.073 -1.4499  0.6317 -0.1035
   17MOL   C43112943   6.817   4.602   0.671  0.4697  0.0244 -0.3600
   17MOL   C43212944   6.839   4.474   0.756  0.1136 -0.3606  0.4386
   17MOL   C43312945   6.961   4.497   0.852 -0.1576 -1.1000  0.4866
   17MOL   C43412946   6.987   4.370   0.942 -0.1929 -0.5290 -0.4498
   17MOL   O43512947   7.036   4.260   0.858 -0.2674 -0.1038 -0.3489
   17MOL   C43612948   7.085   4.537   0.773  0.4255  0.1091  0.0559
   17MOL   C43712949   7.060   4.658   0.686  0.0162  1.0061  0.1827
   17MOL   C43812950   6.949   4.638   0.593 -0.0218 -0.1091 -0.5961
   17MOL   C43912951   6.924   4.754   0.498 -0.4353  0.2644  0.2030
   17MOL   O44012952   7.030   4.760   0.409  0.5763  0.0502 -0.2446
   17MOL   C44112953   7.053   4.874   0.340  0.3897 -1.4874 -0.5016
   17MOL   O44212954   6.979   4.973   0.347  0.3194  0.5883  0.2024
   17MOL   C44312955   7.178   4.877   0.269  0.1068  0.6062  0.1151
   17MOL   C44412956   7.242   4.757   0.243 -0.9090  0.0103 -0.2639
   17MOL   C44512957   7.365   4.763   0.175 -0.5253  0.3452  0.4282
   17MOL   C44612958   7.428   4.889   0.145 -0.1333 -0.4027  0.6738
   17MOL   C44712959   7.557   4.886   0.061  0.2100 -0.3160 -0.3783
   17MOL   O44812960   7.616   4.784   0.024  0.5885  0.2752  0.5834
   17MOL   O44912961   7.616   5.007   0.051 -0.4082 -0.8694 -0.1929
   17MOL   C45012962   7.366   5.006   0.181 -0.2610  0.6375 -0.1657
   17MOL   C45112963   7.241   5.002   0.242 -0.9936 -0.1213 -0.5835
   17MOL   H45212964   6.731   4.588   0.605  0.5686  1.6122 -0.8474
   17MOL   H45312965   6.797   4.682   0.743  0.2890 -0.3723  0.0372
   17MOL   H45412966   6.765   4.455   0.834 -1.0503 -1.1385 -0.8222
   17MOL   H45512967   6.853   4.382   0.700  0.5627 -1.5559  2.4719
   17MOL   H45612968   6.937   4.575   0.924  1.6010  1.1981 -1.3593
   17MOL   H45712969   7.066   4.406   1.008 -0.3751 -0.9078 -0.0235
   17MOL   H45812970   6.899   4.345   1.001 -0.4447 -0.9101 -0.9819
   17MOL   H45912971   7.168   4.553   0.841  0.3806  0.0934  0.1147
   17MOL   H46012972   7.117   4.460   0.702  0.0384  0.9992 -1.0990
   17MOL   H46112973   7.157   4.686   0.645 -0.2659 -1.9881 -2.8099
   17MOL   H46212974   7.030   4.745   0.745 -0.0200  0.9812  0.2005
   17MOL   H46312975   6.971   4.552   0.528 -1.6623 -0.4030 -0.7831
   17MOL   H46412976   6.834   4.731   0.441 -0.4099 -0.1775  0.3364
   17MOL   H46512977   6.899   4.848   0.547 -0.6220 -1.3462  3.3819
   17MOL   H46612978   7.193   4.663   0.266 -2.7551  0.4011 -2.4086
   17MOL   H46712979   7.410   4.673   0.134  0.6689  0.7255  0.8899
   17MOL   H46812980   7.410   5.103   0.163 -2.5812  1.2719 -2.8985
   17MOL   H46912981   7.182   5.089   0.267  0.9270  1.4508 -1.3993
   17MOL   C47012982   0.027   5.170   7.777  0.1840  0.6719 -0.3308
   17MOL   C47112983   7.919   5.151   7.825  0.5570  0.3784 -0.1504
   17MOL   C47212984   7.892   5.003   7.838  0.1203  0.2576 -0.2715
   17MOL   C47312985   7.750   4.990   7.886  0.0069  0.1893  1.1586
   17MOL   O47412986   7.760   4.998   8.034 -0.1475  0.1538  0.0900
   17MOL   C47512987   7.922   4.933   7.703  0.3988  0.0992 -0.5888
   17MOL   C47612988   0.020   4.955   7.655 -0.9619  0.0961 -0.1130
   17MOL   C47712989   0.057   5.104   7.643 -0.2071  0.4484 -0.4815
   17MOL   C47812990   0.205   5.121   7.602 -0.6984  0.1203  0.2598
   17MOL   O47912991   0.230   5.258   7.586  0.6132  0.2384  0.3082
   17MOL   C48012992   0.338   5.297   7.522 -0.6336  0.0280  0.6260
   17MOL   O48112993   0.414   5.217   7.467  0.1708 -0.1103  0.5988
   17MOL   C48212994   0.339   5.448   7.509  0.1791  0.3335  0.3723
   17MOL   C48312995   0.448   5.505   7.436 -0.7006 -0.1037  0.0967
   17MOL   C48412996   0.464   5.648   7.434  0.2801  0.1487 -0.0519
   17MOL   C48512997   0.393   5.730   7.526 -0.2741 -0.1946  0.6157
   17MOL   C48612998   0.425   5.879   7.543 -0.3558 -0.4850  0.3030
   17MOL   O48712999   0.345   5.957   7.597  0.3104  0.1764  0.1807
   17MOL   O48813000   0.542   5.908   7.504  0.4364  0.2728  0.3615
   17MOL   C48913001   0.284   5.671   7.597  0.2414 -0.2285  0.2816
   17MOL   C49013002   0.262   5.533   7.592 -1.2002 -0.5428 -0.3347
   17MOL   H49113003   0.043   5.277   7.769  0.9224  0.3953 -2.9252
   17MOL   H49213004   0.088   5.128   7.857 -0.7230 -0.3380 -0.1534
   17MOL   H49313005   7.907   5.189   7.927 -1.2650  3.1331 -1.3161
   17MOL   H49413006   7.847   5.192   7.754  0.4495  1.0203  0.3207
   17MOL   H49513007   7.959   4.958   7.911 -2.6999 -0.6268  1.8595
   17MOL   H49613008   7.684   5.067   7.846 -0.3938 -1.1610 -0.7894
   17MOL   H49713009   7.698   4.897   7.863  2.1607 -0.2835 -2.0278
   17MOL   H49813010   7.905   4.826   7.717 -0.6214  0.1032 -1.6985
   17MOL   H49913011   7.851   4.970   7.629  0.8713  3.2375  0.4713
   17MOL   H50013012   0.025   4.899   7.562  2.8482 -0.4981  0.3605
   17MOL   H50113013   0.085   4.898   7.721 -0.0128  1.5663  0.2299
   17MOL   H50213014   8.018   5.158   7.584 -0.4983 -0.9224 -1.3850
   17MOL   H50313015   0.279   5.077   7.669  0.7924  1.7478 -0.2865
   17MOL   H50413016   0.225   5.066   7.510  0.1519 -0.3091  0.6997
   17MOL   H50513017   0.514   5.442   7.379  0.0157 -1.6294  2.5118
   17MOL   H50613018   0.535   5.688   7.364  0.5141  0.3271  0.2873
   17MOL   H50713019   0.216   5.736   7.650  0.3906  0.4152 -0.3106
   17MOL   H50813020   0.194   5.484   7.659  0.4662  1.5084  2.9870
   17MOL   C50913021   0.517   6.480   7.648 -0.3659  0.2939  0.9477
   17MOL   C51013022   0.474   6.343   7.600  0.3479  0.6323  1.2363
   17MOL   C51113023   0.585   6.283   7.508  0.3092 -0.1499 -0.7164
   17MOL   C51213024   0.560   6.134   7.469 -0.9293 -0.5284  0.5384
   17MOL   O51313025   0.586   6.040   7.563  0.1742 -0.3412 -0.1868
   17MOL   C51413026   0.608   6.382   7.387  0.5935  0.3616  0.0966
   17MOL   C51513027   0.660   6.516   7.445  0.0350  0.1382 -0.2280
   17MOL   C51613028   0.550   6.574   7.537  0.0220  0.1029 -0.0551
   17MOL   C51713029   0.589   6.710   7.589 -0.1574  0.2413  0.2003
   17MOL   O51813030   0.556   6.817   7.503 -0.5492  0.0848 -0.8805
   17MOL   C51913031   0.651   6.853   7.407  0.2058 -0.9360 -0.1052
   17MOL   O52013032   0.762   6.797   7.386 -0.1254 -0.0602  0.1419
   17MOL   C52113033   0.590   6.964   7.321 -1.0464 -0.2711  0.2592
   17MOL   C52213034   0.476   7.033   7.361  0.5082  0.3487  0.5650
   17MOL   C52313035   0.418   7.124   7.267  0.3565  0.1100  0.4352
   17MOL   C52413036   0.475   7.154   7.143 -0.0064  0.3518  0.0488
   17MOL   C52513037   0.398   7.229   7.043  0.4209  0.2276 -0.2261
   17MOL   O52613038   0.456   7.277   6.949  0.6956 -0.2961 -0.1023
   17MOL   O52713039   0.260   7.232   7.066  0.2955 -0.2586  0.2936
   17MOL   C52813040   0.602   7.096   7.116  0.0024 -0.3522  0.4789
   17MOL   C52913041   0.651   6.994   7.197  0.0235 -0.4420 -0.6825
   17MOL   H53013042   0.442   6.527   7.712 -0.6248  0.1980  0.7160
   17MOL   H53113043   0.603   6.467   7.713  1.1267  1.0735 -0.8121
   17MOL   H53213044   0.456   6.274   7.682  2.1337 -0.6449  0.6020
   17MOL   H53313045   0.378   6.337   7.549  0.8670 -2.7934  0.4979
   17MOL   H53413046   0.676   6.285   7.569 -1.7360  2.9765  2.4510
   17MOL   H53513047   0.452   6.128   7.454 -1.1489  1.8420  0.8561
   17MOL   H53613048   0.621   6.108   7.383  0.4113 -0.0087  1.3111
   17MOL   H53713049   0.677   6.336   7.316  0.4618 -1.3558  1.0454
   17MOL   H53813050   0.512   6.398   7.338  1.4855 -0.7824 -2.1081
   17MOL   H53913051   0.676   6.572   7.353  1.8479  0.7012  0.4098
   17MOL   H54013052   0.753   6.508   7.501  0.8010  3.7277 -0.8840
   17MOL   H54113053   0.466   6.588   7.470 -1.5994  0.7069  2.0751
   17MOL   H54213054   0.526   6.727   7.676 -1.7857  0.7468 -1.0526
   17MOL   H54313055   0.694   6.704   7.620  0.6922  2.1350 -2.1324
   17MOL   H54413056   0.421   7.005   7.449 -0.6894 -1.3874 -0.7127
   17MOL   H54513057   0.327   7.178   7.289 -0.5108 -0.2459 -2.1269
   17MOL   H54613058   0.666   7.111   7.031 -0.7026 -0.2525 -0.0392
   17MOL   H54713059   0.734   6.937   7.157 -2.0441 -2.7445 -1.7943
   17MOL   C54813060   7.908   7.259   7.300 -0.2999  0.5492 -0.3438
   17MOL   C54913061   0.004   7.305   7.235  0.3589  0.2652 -0.1674
   17MOL   C55013062   8.022   7.375   7.100 -0.4287  0.3485 -0.3164
   17MOL   C55113063   0.118   7.417   7.034 -0.6084  0.2354  0.2117
   17MOL   O55213064   0.182   7.316   6.963  0.1090  0.7612  0.5710
   17MOL   C55313065   7.929   7.293   7.009  0.3541 -0.8168 -0.8040
   17MOL   C55413066   7.797   7.245   7.077 -0.2850  0.1818 -0.3526
   17MOL   C55513067   7.826   7.175   7.211 -0.0596 -0.1984 -0.1038
   17MOL   C55613068   7.704   7.120   7.289  0.4884  0.3648  0.5289
   17MOL   O55713069   7.607   7.061   7.208  0.0931 -0.0006 -0.1830
   17MOL   C55813070   7.500   7.124   7.178 -0.0334  0.1490 -0.3720
   17MOL   O55913071   7.467   7.226   7.242 -0.1103 -0.1714 -0.2401
   17MOL   C56013072   7.410   7.052   7.091  0.0180  0.2559 -0.1005
   17MOL   C56113073   7.454   6.928   7.033  0.1799 -0.1799  0.0005
   17MOL   C56213074   7.365   6.872   6.933 -0.2387  0.8783 -0.1151
   17MOL   C56313075   7.233   6.919   6.907 -0.4048  0.0846  0.3703
   17MOL   C56413076   7.141   6.861   6.808  0.5079  0.0272  0.1819
   17MOL   O56513077   7.173   6.761   6.740  0.0544  0.1000  0.1214
   17MOL   O56613078   7.021   6.927   6.802 -0.5819 -0.0440  0.2757
   17MOL   C56713079   7.196   7.034   6.980  0.5048 -0.0360  0.9002
   17MOL   C56813080   7.282   7.102   7.068  0.7538 -0.3096  0.0144
   17MOL   H56913081   7.934   7.202   7.389 -0.3649  1.0271 -0.0173
   17MOL   H57013082   7.853   7.351   7.318 -1.3179 -0.2169  0.5674
   17MOL   H57113083   0.055   7.376   7.301 -1.3463  0.3913  1.0599
   17MOL   H57213084   0.077   7.227   7.218  0.4745  0.7424 -1.9503
   17MOL   H57313085   7.966   7.461   7.135 -2.4552 -1.5227  1.1637
   17MOL   H57413086   0.091   7.504   6.973  0.4513 -0.8632 -1.8798
   17MOL   H57513087   0.190   7.460   7.103 -1.2803  1.0703  0.4037
   17MOL   H57613088   7.905   7.352   6.921 -0.6136  2.7350  1.7384
   17MOL   H57713089   7.984   7.206   6.973  2.3671  0.6577 -1.3850
   17MOL   H57813090   7.745   7.183   7.004 -0.7183 -1.6741  1.4629
   17MOL   H57913091   7.738   7.335   7.095  0.7516  0.6822  0.5927
   17MOL   H58013092   7.881   7.085   7.184  1.1142 -0.5341  3.2553
   17MOL   H58113093   7.752   7.043   7.349  0.1452 -0.4558 -0.2387
   17MOL   H58213094   7.673   7.192   7.365  1.6437  0.4593  0.9141
   17MOL   H58313095   7.542   6.872   7.062 -0.4986 -0.6586  1.1778
   17MOL   H58413096   7.392   6.770   6.913  1.8898  1.3990 -0.0176
   17MOL   H58513097   7.096   7.075   6.977 -0.7902 -3.2256 -1.4870
   17MOL   H58613098   7.252   7.198   7.106  1.3447  1.2814 -3.3454
   17MOL   C58713099   6.545   6.726   6.548 -0.6290  0.4238  0.5021
   17MOL   C58813100   6.625   6.811   6.641 -0.1781 -0.3521  0.5316
   17MOL   C58913101   6.726   6.729   6.716 -0.3966  0.2767  0.0767
   17MOL   C59013102   6.823   6.813   6.799 -0.3136  0.8741 -0.5853
   17MOL   O59113103   6.920   6.865   6.710 -0.2098  0.5662 -0.4323
   17MOL   C59213104   6.652   6.615   6.791  0.7160 -0.3657 -0.3264
   17MOL   C59313105   6.570   6.519   6.704  0.2063  0.6490  0.3554
   17MOL   C59413106   6.471   6.610   6.622 -0.1167 -0.2402  1.0479
   17MOL   C59513107   6.393   6.532   6.510 -0.0716  0.6353  0.5544
   17MOL   O59613108   6.479   6.469   6.418 -0.2945 -0.1600 -0.0302
   17MOL   C59713109   6.487   6.333   6.413  0.1870 -0.4273  0.3560
   17MOL   O59813110   6.424   6.255   6.484 -0.0644  0.3851 -0.3109
   17MOL   C59913111   6.570   6.293   6.297 -0.2117 -0.6678 -0.3136
   17MOL   C60013112   6.539   6.159   6.247 -0.6031  0.2917  0.0498
   17MOL   C60113113   6.597   6.111   6.128  0.3908  0.5568  0.4946
   17MOL   C60213114   6.682   6.195   6.050  0.1225 -0.7158 -0.1064
   17MOL   C60313115   6.737   6.160   5.921 -0.0736 -0.3335  0.6147
   17MOL   O60413116   6.841   6.206   5.874  0.8215 -0.2616  0.2374
   17MOL   O60513117   6.663   6.070   5.854 -0.2438  0.2145 -0.3288
   17MOL   C60613118   6.717   6.317   6.105  0.3553 -0.2001  0.1838
   17MOL   C60713119   6.662   6.370   6.223  0.1754  0.3415 -0.0919
   17MOL   H60813120   6.460   6.779   6.504 -0.7931  0.0081  0.3122
   17MOL   H60913121   6.608   6.679   6.472 -1.7683 -2.8819  1.5401
   17MOL   H61013122   6.652   6.899   6.583 -1.1603  1.3557  2.6007
   17MOL   H61113123   6.565   6.864   6.715 -1.2056 -0.0042 -0.5228
   17MOL   H61213124   6.785   6.670   6.645  0.3938  1.0220  0.0995
   17MOL   H61313125   6.767   6.893   6.848  2.3968  2.8906 -0.7096
   17MOL   H61413126   6.873   6.748   6.870 -2.0713  1.1768  0.9729
   17MOL   H61513127   6.726   6.553   6.842  0.8374 -0.7450 -0.9587
   17MOL   H61613128   6.598   6.653   6.877  0.3938  0.3390 -0.8434
   17MOL   H61713129   6.511   6.448   6.761 -0.1813  0.6467 -0.0433
   17MOL   H61813130   6.642   6.468   6.640 -2.4313  1.2866 -3.3353
   17MOL   H61913131   6.398   6.663   6.684  0.3898 -0.2396  1.6541
   17MOL   H62013132   6.330   6.456   6.555  2.3813  0.8699  4.6837
   17MOL   H62113133   6.324   6.603   6.465  0.9763  0.4185 -1.4674
   17MOL   H62213134   6.461   6.096   6.286  1.3036 -0.9778  1.9068
   17MOL   H62313135   6.575   6.010   6.096  1.7784  0.2692  0.4127
   17MOL   H62413136   6.788   6.376   6.050 -2.3700  1.3724 -1.7558
   17MOL   H62513137   6.667   6.475   6.246 -2.1309  0.2442  1.0076
   17MOL   C62613138   6.690   6.198   5.256 -0.3595 -0.0567 -0.3873
   17MOL   C62713139   6.632   6.222   5.397  0.3996  0.6928 -0.5971
   17MOL   C62813140   6.662   6.101   5.484 -0.3755 -0.0670 -0.4990
   17MOL   C62913141   6.627   6.122   5.630  0.4208  0.3862 -0.7192
   17MOL   O63013142   6.709   6.045   5.718 -0.1184  0.2922 -0.4792
   17MOL   C63113143   6.583   5.984   5.428 -0.3638 -0.2787 -0.4225
   17MOL   C63213144   6.621   5.950   5.288 -0.5043 -0.2620 -0.1971
   17MOL   C63313145   6.622   6.073   5.193  0.0591 -0.9618  1.2986
   17MOL   C63413146   6.683   6.017   5.061 -0.1840 -0.1263 -0.0569
   17MOL   O63513147   6.602   5.923   4.995 -0.0831 -0.1330  0.2606
   17MOL   C63613148   6.641   5.869   4.882 -0.1373 -0.3973  0.6317
   17MOL   O63713149   6.748   5.898   4.830  0.2037 -0.4318 -0.1651
   17MOL   C63813150   6.525   5.801   4.817  0.1816  0.3622 -0.3814
   17MOL   C63913151   6.411   5.750   4.885  0.6042 -0.0765  0.1131
   17MOL   C64013152   6.298   5.705   4.817 -0.2599  0.3575 -0.7986
   17MOL   C64113153   6.299   5.690   4.676 -0.5428  0.5532 -0.0307
   17MOL   C64213154   6.180   5.661   4.590 -0.1844 -0.5989  0.5852
   17MOL   O64313155   6.188   5.653   4.467  0.3552  0.1305  0.2092
   17MOL   O64413156   6.067   5.650   4.661  0.5288 -0.4077  0.1835
   17MOL   C64513157   6.419   5.734   4.609  0.5280 -0.4818 -0.2097
   17MOL   C64613158   6.537   5.774   4.679  0.6486  0.1215 -0.3335
   17MOL   H64713159   6.669   6.290   5.201  1.4555  0.2907 -0.5405
   17MOL   H64813160   6.799   6.193   5.260 -0.4759 -1.1424  2.3156
   17MOL   H64913161   6.667   6.314   5.444 -0.4785  0.4222  0.6176
   17MOL   H65013162   6.525   6.242   5.396  0.3223  0.2840 -0.6787
   17MOL   H65113163   6.763   6.061   5.481 -0.2723  0.1944 -0.5163
   17MOL   H65213164   6.630   6.229   5.649  1.3566  0.3572 -0.6867
   17MOL   H65313165   6.522   6.092   5.641 -0.1791  2.1136 -1.5465
   17MOL   H65413166   6.581   5.899   5.496 -0.4196 -0.4545 -0.6408
   17MOL   H65513167   6.479   6.015   5.420 -0.1568  0.5670  0.1511
   17MOL   H65613168   6.547   5.880   5.251  0.2371 -1.3912  0.4563
   17MOL   H65713169   6.718   5.901   5.293 -0.2057  0.4693  1.5112
   17MOL   H65813170   6.516   6.092   5.176  0.3316 -0.0912  0.5387
   17MOL   H65913171   6.705   6.102   4.997 -0.0223  0.3177  0.5887
   17MOL   H66013172   6.783   5.974   5.073 -0.4267 -0.2403  1.5908
   17MOL   H66113173   6.398   5.759   4.992 -0.9878  0.6576 -0.1243
   17MOL   H66213174   6.208   5.696   4.876  1.3469 -0.5564  1.5974
   17MOL   H66313175   6.417   5.725   4.501 -1.0386 -0.6621 -0.1760
   17MOL   H66413176   6.623   5.783   4.614 -1.3903  0.7043 -3.0261
   17MOL   C66513177   5.710   5.569   4.219 -0.1525 -0.0358  0.1119
   17MOL   C66613178   5.829   5.568   4.323 -0.2562 -0.0540  0.3684
   17MOL   C66713179   5.785   5.496   4.454  0.1635 -0.1099 -0.3271
   17MOL   C66813180   5.905   5.502   4.550 -0.5154  0.5542 -0.5605
   17MOL   O66913181   5.938   5.640   4.574  0.4949  0.0206 -0.2839
   17MOL   C67013182   5.670   5.573   4.511  0.2002 -0.0909 -0.5643
   17MOL   C67113183   5.556   5.611   4.413  0.1202 -0.2902 -0.1939
   17MOL   C67213184   5.600   5.665   4.273  0.1731 -0.0912 -0.5996
   17MOL   C67313185   5.488   5.683   4.169  0.0721  0.1703  0.9283
   17MOL   O67413186   5.388   5.779   4.201  0.4483  0.0159 -0.8130
   17MOL   C67513187   5.424   5.904   4.192 -0.3945 -0.5387 -0.5600
   17MOL   O67613188   5.517   5.950   4.125  0.7975  0.1787  0.4400
   17MOL   C67713189   5.341   5.994   4.273 -0.0998  0.1525  0.7569
   17MOL   C67813190   5.211   5.947   4.325 -0.5005 -0.2961 -0.5005
   17MOL   C67913191   5.133   6.036   4.402  0.1746 -0.3147 -0.0984
   17MOL   C68013192   5.175   6.170   4.423 -0.8150  0.4930  0.1305
   17MOL   C68113193   5.097   6.267   4.508  0.1678 -0.2435 -0.2238
   17MOL   O68213194   5.012   6.229   4.591 -0.4147  0.6537  0.2905
   17MOL   O68313195   5.146   6.397   4.508  0.1573 -0.1988  0.2645
   17MOL   C68413196   5.298   6.211   4.369 -0.1274  0.4800  0.0547
   17MOL   C68513197   5.381   6.127   4.297 -0.0099  0.1359 -0.6177
   17MOL   H68613198   5.763   5.614   4.134  1.9753  0.4182  1.6318
   17MOL   H68713199   5.670   5.468   4.209  2.1512 -1.0785  1.0137
   17MOL   H68813200   5.908   5.504   4.284  2.0648  3.1100 -0.2986
   17MOL   H68913201   5.868   5.668   4.341  0.0325 -0.2156  0.6500
   17MOL   H69013202   5.760   5.393   4.430  1.2838 -0.7106  1.0472
   17MOL   H69113203   5.890   5.457   4.648  1.4877 -0.3823 -0.6539
   17MOL   H69213204   6.002   5.467   4.512 -0.6612  2.3615 -2.7170
   17MOL   H69313205   5.631   5.514   4.594  0.4041 -1.4696 -1.4324
   17MOL   H69413206   5.698   5.670   4.552  0.1383 -0.8763  1.4074
   17MOL   H69513207   5.484   5.678   4.461 -1.4868 -0.6939 -2.0000
   17MOL   H69613208   5.502   5.520   4.389  1.7707 -1.2062 -0.4884
   17MOL   H69713209   5.634   5.769   4.278 -1.3535  0.4124 -0.4802
   17MOL   H69813210   5.529   5.698   4.069 -0.4228 -0.2140  0.6666
   17MOL   H69913211   5.440   5.585   4.163 -0.7280  0.6103 -0.1139
   17MOL   H70013212   5.180   5.843   4.320  0.6749 -1.0454  4.6497
   17MOL   H70113213   5.038   6.004   4.443  0.1086 -0.3821 -0.3054
   17MOL   H70213214   5.340   6.308   4.392 -0.1377  1.7576 -4.7281
   17MOL   H70313215   5.478   6.164   4.268  1.0479 -2.5762 -0.7820
   17MOL   C70413216   5.050   6.621   5.073 -0.1751 -0.0869 -0.1796
   17MOL   C70513217   5.144   6.573   4.958 -0.3800  0.5498  0.4529
   17MOL   C70613218   5.065   6.573   4.819 -0.0915  0.4792  0.0853
   17MOL   C70713219   5.151   6.504   4.720  0.7076 -0.0580  1.3540
   17MOL   O70813220   5.078   6.492   4.602  0.5605 -0.5976  0.1099
   17MOL   C70913221   4.933   6.497   4.835 -0.4924  0.6648 -0.2528
   17MOL   C71013222   4.851   6.550   4.954 -0.6083  0.2366 -0.3451
   17MOL   C71113223   4.922   6.537   5.086  0.3734  0.9941  0.3018
   17MOL   C71213224   4.843   6.588   5.206  0.1740 -1.1406 -0.2702
   17MOL   O71313225   4.730   6.503   5.212  0.1227  0.2356 -0.1707
   17MOL   C71413226   4.619   6.568   5.253  0.4732  0.1965 -0.1064
   17MOL   O71513227   4.620   6.684   5.299  0.2822  0.2091 -0.5089
   17MOL   C71613228   4.503   6.485   5.247 -0.3285  0.3286 -0.1672
   17MOL   C71713229   4.507   6.353   5.182 -0.3451  0.3307 -0.4958
   17MOL   C71813230   4.390   6.279   5.165 -0.5642  0.3545 -0.5028
   17MOL   C71913231   4.268   6.331   5.221 -0.4559  0.0504 -0.0901
   17MOL   C72013232   4.140   6.258   5.207  0.3283  0.9022  0.2649
   17MOL   O72113233   4.027   6.309   5.222  0.1784  0.2891  0.4878
   17MOL   O72213234   4.150   6.124   5.175  0.0351 -0.2322  1.0512
   17MOL   C72313235   4.265   6.452   5.296  0.2044  0.5292  0.0426
   17MOL   C72413236   4.380   6.531   5.307 -0.5660 -0.0001 -0.0540
   17MOL   H72513237   5.095   6.617   5.172  0.9592 -0.2053 -0.6880
   17MOL   H72613238   5.032   6.728   5.057  1.4949  0.0510 -1.2889
   17MOL   H72713239   5.235   6.632   4.956  0.7705 -1.2073 -1.1120
   17MOL   H72813240   5.176   6.474   4.990 -0.6360  1.4302  3.6434
   17MOL   H72913241   5.047   6.678   4.796  2.6429  1.1530  0.8480
   17MOL   H73013242   5.236   6.568   4.696  0.5140 -0.1937  0.2724
   17MOL   H73113243   5.171   6.400   4.746  0.1216 -0.5793 -0.1858
   17MOL   H73213244   4.873   6.502   4.744  0.7413 -0.5035 -1.1485
   17MOL   H73313245   4.950   6.391   4.847  0.8058  0.9228  0.1895
   17MOL   H73413246   4.756   6.498   4.961  0.7160 -1.9997  1.4135
   17MOL   H73513247   4.845   6.658   4.935  2.5483  0.4525 -0.4091
   17MOL   H73613248   4.949   6.433   5.102 -0.7528  0.8684  1.5869
   17MOL   H73713249   4.903   6.591   5.298  1.8781 -2.3671 -1.3082
   17MOL   H73813250   4.822   6.691   5.179 -1.1128 -1.4644 -0.5325
   17MOL   H73913251   4.600   6.327   5.132 -0.3664 -2.2499  0.7087
   17MOL   H74013252   4.397   6.184   5.115 -2.6156  0.4945 -1.0943
   17MOL   H74113253   4.171   6.492   5.334 -0.4322 -2.0798  1.3535
   17MOL   H74213254   4.376   6.628   5.353  1.4914  0.7532 -1.3796
   17MOL   C74313255   4.294   5.719   5.389 -0.0909  0.5573  0.3469
   17MOL   C74413256   4.237   5.857   5.353 -0.3945  0.2442  0.0829
   17MOL   C74513257   4.081   5.843   5.323  0.3961 -0.4804  0.0605
   17MOL   C74613258   3.997   5.976   5.297  0.2938 -0.0259  0.8797
   17MOL   O74713259   4.020   6.043   5.172 -0.0146  0.1374  0.2973
   17MOL   C74813260   4.047   5.736   5.225  0.2463 -0.4416  0.1176
   17MOL   C74913261   4.117   5.602   5.260  0.1921 -0.2983  1.0766
   17MOL   C75013262   4.267   5.608   5.288 -0.5256 -0.8277 -0.1892
   17MOL   C75113263   4.326   5.474   5.344  0.2378 -0.2418  0.4066
   17MOL   O75213264   4.463   5.485   5.393  0.1613  0.8017  0.5387
   17MOL   C75313265   4.486   5.438   5.524  0.2684  0.3578 -0.4069
   17MOL   O75413266   4.414   5.365   5.591 -0.1648 -0.1065  0.3710
   17MOL   C75513267   4.614   5.485   5.581  0.3827  0.3886 -0.3207
   17MOL   C75613268   4.722   5.538   5.504 -0.3472 -0.2087 -0.0392
   17MOL   C75713269   4.851   5.563   5.558  0.7303 -0.1264 -0.8877
   17MOL   C75813270   4.871   5.553   5.696  0.1594  0.5112 -0.3216
   17MOL   C75913271   5.003   5.588   5.760 -0.7904  0.0226 -0.1789
   17MOL   O76013272   5.047   5.518   5.850  0.0934 -0.1027  0.4929
   17MOL   O76113273   5.033   5.720   5.741 -0.3717 -0.1817  0.1281
   17MOL   C76213274   4.768   5.490   5.772 -0.1104  0.2182  0.1090
   17MOL   C76313275   4.650   5.453   5.712 -0.4573 -0.4940 -0.2957
   17MOL   H76413276   4.400   5.717   5.415  0.1168 -0.8676 -0.5612
   17MOL   H76513277   4.252   5.696   5.487 -1.5660 -0.2554 -0.4626
   17MOL   H76613278   4.259   5.931   5.430  0.3073  0.1512 -0.0278
   17MOL   H76713279   4.281   5.888   5.258  1.4228  2.1027  1.4826
   17MOL   H76813280   4.033   5.793   5.408  0.5529  0.2333  0.5692
   17MOL   H76913281   3.892   5.950   5.305 -0.4687  2.8143  0.6036
   17MOL   H77013282   4.023   6.046   5.377  1.6537  1.2503 -0.6305
   17MOL   H77113283   3.939   5.732   5.216  0.2408  0.5345 -0.2831
   17MOL   H77213284   4.080   5.769   5.127  0.0543  2.1775  0.8985
   17MOL   H77313285   4.101   5.530   5.180  2.6900  0.6851 -0.3799
   17MOL   H77413286   4.075   5.560   5.351  1.0020 -1.0219  1.1169
   17MOL   H77513287   4.320   5.641   5.198  0.9598 -2.4735  0.0397
   17MOL   H77613288   4.265   5.418   5.415 -0.3382 -0.2243 -0.0713
   17MOL   H77713289   4.319   5.401   5.262  1.2772 -0.4720  0.5176
   17MOL   H77813290   4.701   5.547   5.399 -1.5241  0.8117  0.2625
   17MOL   H77913291   4.919   5.613   5.491 -0.3405  1.6384 -0.7009
   17MOL   H78013292   4.784   5.480   5.878 -1.4987  1.2722  0.4278
   17MOL   H78113293   4.574   5.409   5.775 -1.5284  0.7139 -0.7356
   17MOL   H78213294   5.066   5.760   5.821 -0.7252  1.0313 -0.3278
   18MOL     C113295   5.548   4.689   5.568  0.1987 -0.0315  0.5444
   18MOL     C213296   5.688   4.739   5.557  0.1779  0.3722  0.0682
   18MOL     C313297   5.772   4.717   5.690 -0.3484  0.3750  0.4911
   18MOL     C413298   5.921   4.745   5.673  0.5233  0.0243  0.0691
   18MOL     O513299   5.974   4.644   5.591  0.6561 -0.4762  0.0177
   18MOL     C613300   5.706   4.786   5.809  0.3354 -0.1321  0.1342
   18MOL     C713301   5.567   4.738   5.827  0.5679 -0.1946 -0.9330
   18MOL     C813302   5.484   4.759   5.696  0.7300 -0.3794  0.5333
   18MOL     C913303   5.338   4.696   5.706  0.3186  0.0158 -0.5936
   18MOL    O1013304   5.258   4.770   5.801  0.5146  0.0594  0.1186
   18MOL    C1113305   5.138   4.729   5.843 -0.5437 -0.2013  0.1817
   18MOL    O1213306   5.084   4.625   5.809  0.4670  0.2670  0.0368
   18MOL    C1313307   5.076   4.820   5.944  0.4708  0.0245 -0.0434
   18MOL    C1413308   4.938   4.798   5.974  0.0381 -0.1556 -0.2341
   18MOL    C1513309   4.875   4.886   6.068  0.2343 -0.2338 -0.8755
   18MOL    C1613310   4.943   5.000   6.119 -0.4437  0.3562 -0.2509
   18MOL    C1713311   4.871   5.097   6.206 -0.2476 -0.3781 -0.7062
   18MOL    O1813312   4.925   5.192   6.267 -0.0093  0.1809  0.6921
   18MOL    O1913313   4.741   5.075   6.220 -0.1223 -0.6136  0.2127
   18MOL    C2013314   5.079   5.025   6.081 -0.3626  0.5872 -0.6007
   18MOL    C2113315   5.142   4.928   6.000  0.9128 -0.1175  0.1627
   18MOL    H2213316   5.478   4.711   5.487  0.4414  3.6002  1.2326
   18MOL    H2313317   5.544   4.582   5.591  2.0055 -0.0728  0.6960
   18MOL    H2413318   5.744   4.690   5.477 -1.0849  0.1820 -0.7016
   18MOL    H2513319   5.686   4.846   5.535  0.3483  0.6774  1.5029
   18MOL    H2613320   5.770   4.612   5.719  0.1643  0.9123  2.5356
   18MOL    H2713321   5.933   4.842   5.625 -0.1530 -0.8230 -1.8597
   18MOL    H2813322   5.979   4.739   5.765  0.6506 -1.2834 -0.0778
   18MOL    H2913323   5.756   4.763   5.903  1.6503  0.9596 -0.2758
   18MOL    H3013324   5.701   4.895   5.805 -1.1846 -0.1602  0.9714
   18MOL    H3113325   5.523   4.796   5.908 -1.1281  0.0008 -1.9667
   18MOL    H3213326   5.556   4.632   5.851  0.7395  0.2130  1.0614
   18MOL    H3313327   5.469   4.864   5.671 -2.1941 -1.0766 -0.8278
   18MOL    H3413328   5.287   4.696   5.610 -1.6132  1.2527  0.3957
   18MOL    H3513329   5.344   4.592   5.737 -1.9234 -0.2417 -0.9632
   18MOL    H3613330   4.874   4.731   5.920 -1.6370  0.5540  0.8271
   18MOL    H3713331   4.770   4.872   6.088  0.2966 -2.6845 -2.1201
   18MOL    H3813332   5.124   5.107   6.135  0.6833 -1.2799  1.4371
   18MOL    H3913333   5.241   4.950   5.965  0.4519 -0.3026 -1.3172
   18MOL    H4013334   6.066   4.652   5.615  0.6642  0.4307 -0.2776
   18MOL    C4113335   4.845   5.060   6.785  0.4765 -0.2919  0.4685
   18MOL    C4213336   4.734   5.040   6.681 -0.1293 -0.0323 -0.0217
   18MOL    C4313337   4.757   5.116   6.545 -0.5409  0.0771 -0.3546
   18MOL    C4413338   4.646   5.109   6.442  0.3513  0.4923 -0.7208
   18MOL    O4513339   4.675   5.178   6.316 -0.2836  0.2506 -0.0567
   18MOL    C4613340   4.790   5.264   6.560  0.4503 -0.0528  0.2518
   18MOL    C4713341   4.905   5.272   6.667  0.7585  0.1734  0.1344
   18MOL    C4813342   4.886   5.207   6.799 -0.3750  0.1871 -0.4633
   18MOL    C4913343   5.004   5.226   6.902 -0.1825 -0.2881  0.5706
   18MOL    O5013344   4.953   5.207   7.034 -0.5073  0.3200 -0.3737
   18MOL    C5113345   5.042   5.153   7.120 -0.4622 -0.1661 -0.4816
   18MOL    O5213346   5.159   5.144   7.097 -0.2365 -0.3046  0.3272
   18MOL    C5313347   4.981   5.125   7.250 -0.0907  0.7076  0.0202
   18MOL    C5413348   4.846   5.165   7.281 -0.0712 -0.2049  0.0652
   18MOL    C5513349   4.803   5.143   7.415  0.5459  0.2285 -0.0375
   18MOL    C5613350   4.887   5.079   7.511 -0.2798  0.5247  0.1809
   18MOL    C5713351   4.840   5.055   7.652 -0.6321  0.1957 -1.2032
   18MOL    O5813352   4.902   4.989   7.739  0.6549  0.1965  0.2877
   18MOL    O5913353   4.718   5.101   7.671  0.3682  0.1956  0.4582
   18MOL    C6013354   5.019   5.037   7.475  0.3938  0.5682 -0.7955
   18MOL    C6113355   5.068   5.061   7.346  0.1884 -0.2885 -0.2996
   18MOL    H6213356   4.813   5.009   6.876 -0.5606 -2.8425 -1.2680
   18MOL    H6313357   4.937   5.011   6.755  0.6529  0.8566 -0.9016
   18MOL    H6413358   4.724   4.934   6.658 -2.5909 -0.3150  2.1063
   18MOL    H6513359   4.637   5.060   6.727  1.1752  0.4466  2.6437
   18MOL    H6613360   4.846   5.071   6.499 -0.3827  2.4834 -2.5049
   18MOL    H6713361   4.615   5.007   6.420  0.4301  0.4950 -0.8444
   18MOL    H6813362   4.562   5.165   6.484 -0.8579 -0.6676 -1.5388
   18MOL    H6913363   4.817   5.309   6.464 -1.0744  1.1423  0.3703
   18MOL    H7013364   4.699   5.316   6.590  1.7708  2.1327  0.5885
   18MOL    H7113365   4.918   5.379   6.680 -0.4494  0.5174 -1.2659
   18MOL    H7213366   4.991   5.231   6.614  1.2770 -1.7471  2.3783
   18MOL    H7313367   4.804   5.256   6.851  2.1009  3.9061  0.1406
   18MOL    H7413368   5.079   5.149   6.884 -1.9056 -1.3891 -2.1333
   18MOL    H7513369   5.051   5.324   6.899 -2.7633  0.9604 -0.8902
   18MOL    H7613370   4.785   5.210   7.205 -0.1028  0.9540  0.7587
   18MOL    H7713371   4.716   5.198   7.448  0.1433  1.2689 -2.7117
   18MOL    H7813372   5.082   4.981   7.542  2.0195  0.5634 -2.2998
   18MOL    H7913373   5.166   5.021   7.323 -0.2001 -3.2527  2.7502
   18MOL    C8013374   4.201   4.936   7.952  0.9835  0.1349  0.0383
   18MOL    C8113375   4.288   4.948   7.826  0.1745  0.0581  0.2044
   18MOL    C8213376   4.418   5.014   7.867 -0.6840 -0.2361 -0.0748
   18MOL    C8313377   4.516   5.001   7.738  0.9105  0.0219 -0.1897
   18MOL    O8413378   4.639   5.041   7.786 -1.1998 -0.6951 -0.1044
   18MOL    C8513379   4.384   5.158   7.921  0.3075  0.3062 -0.2141
   18MOL    C8613380   4.291   5.155   0.006 -0.2296  0.3075 -0.2419
   18MOL    C8713381   4.168   5.071   8.018 -0.2446 -0.2740  0.1128
   18MOL    C8813382   4.092   5.042   0.112 -0.0998 -0.5820  0.4141
   18MOL    O8913383   4.155   4.969   0.213  0.0456  0.1732 -0.3182
   18MOL    C9013384   4.115   4.844   0.261 -0.3674  0.0484  0.0941
   18MOL    O9113385   4.006   4.794   0.229  0.7363  0.1504  0.1895
   18MOL    C9213386   4.217   4.785   0.360  0.8916 -0.5226 -0.3631
   18MOL    C9313387   4.313   4.871   0.420 -0.4188  0.6418 -0.3757
   18MOL    C9413388   4.412   4.822   0.505  0.3806  0.0172  0.3296
   18MOL    C9513389   4.415   4.683   0.537 -0.5050 -0.0527  0.7405
   18MOL    C9613390   4.523   4.626   0.624 -0.2800 -0.2782 -0.1869
   18MOL    O9713391   4.534   4.517   0.666  0.3158  0.0033 -0.3343
   18MOL    O9813392   4.623   4.716   0.650  0.4946  0.0051 -0.3426
   18MOL    C9913393   4.321   4.598   0.477 -0.0223 -0.7669  0.4352
   18MOL   C10013394   4.220   4.653   0.391 -0.3519  0.5484 -0.8734
   18MOL   H10113395   4.108   4.887   7.922  0.9446 -0.5872  1.2865
   18MOL   H10213396   4.255   4.878   8.027  0.6692  2.0933  1.8147
   18MOL   H10313397   4.311   4.846   7.794 -0.3131 -0.2648  0.8879
   18MOL   H10413398   4.238   5.002   7.746  0.7650  1.0141  0.4690
   18MOL   H10513399   4.454   4.954   7.951  0.8628 -0.6558 -0.9964
   18MOL   H10613400   4.529   4.897   7.708  3.4442 -0.1294  1.2510
   18MOL   H10713401   4.493   5.065   7.654  0.0186  0.5913  0.4848
   18MOL   H10813402   4.476   5.215   7.932 -0.9107  2.3472 -0.4102
   18MOL   H10913403   4.331   5.207   7.839 -1.5091  0.0904  0.7996
   18MOL   H11013404   4.274   5.260   0.029  1.2238  0.9720 -2.0645
   18MOL   H11113405   4.349   5.120   0.091  1.1710  2.9404 -0.0858
   18MOL   H11213406   4.101   5.122   7.949  0.4885 -0.4392 -0.7265
   18MOL   H11313407   4.070   5.138   0.159 -0.3784  0.1174 -1.1306
   18MOL   H11413408   3.987   5.024   0.090 -0.3450  1.9198 -0.6587
   18MOL   H11513409   4.313   4.978   0.405  0.1133  1.0642  2.4481
   18MOL   H11613410   4.491   4.883   0.545  1.9407 -1.8407  0.1744
   18MOL   H11713411   4.320   4.492   0.497 -1.4856 -0.8853 -0.2185
   18MOL   H11813412   4.144   4.584   0.359 -1.0279  1.1609 -0.5921
   18MOL   C11913413   5.054   4.860   0.954 -0.3707  1.4191 -0.7009
   18MOL   C12013414   4.926   4.823   0.885 -0.0174  0.4405  0.1916
   18MOL   C12113415   4.875   4.677   0.920  0.0851 -0.2418  0.5266
   18MOL   C12213416   4.735   4.650   0.860  0.4633  0.2044 -0.6317
   18MOL   O12313417   4.748   4.662   0.714 -0.1480 -0.4657 -0.2172
   18MOL   C12413418   4.991   4.578   0.893  0.7206  0.1430  0.6217
   18MOL   C12513419   5.119   4.627   0.964  0.4966  0.7745  0.1702
   18MOL   C12613420   5.158   4.764   0.915  0.2452 -0.6713  0.4906
   18MOL   C12713421   5.299   4.810   0.966 -0.4033  0.2059  0.5767
   18MOL   O12813422   5.305   4.803   1.109  0.2408 -0.5249 -0.1157
   18MOL   C12913423   5.288   4.919   1.181 -0.0841 -0.1682  0.2161
   18MOL   O13013424   5.313   5.037   1.143  0.1580 -0.0440  0.1293
   18MOL   C13113425   5.268   4.883   1.325 -0.7561  0.2265  0.5934
   18MOL   C13213426   5.320   4.960   1.428  0.1465  0.0340 -0.2827
   18MOL   C13313427   5.321   4.910   1.558  0.9326 -0.1611 -0.1157
   18MOL   C13413428   5.268   4.782   1.589  0.0879 -0.4673  0.2454
   18MOL   C13513429   5.282   4.729   1.721 -0.4781 -0.7152  0.2833
   18MOL   O13613430   5.293   4.804   1.819 -0.0991  0.2175  0.4177
   18MOL   O13713431   5.298   4.593   1.713 -0.0551  0.0681 -0.0751
   18MOL   C13813432   5.199   4.705   1.488 -0.3196 -0.5588  0.2396
   18MOL   C13913433   5.204   4.760   1.357  0.4909  0.4061  0.2144
   18MOL   H14013434   5.080   4.957   0.912 -1.3175  2.8662  1.9113
   18MOL   H14113435   5.052   4.871   1.063  1.0207  1.9112 -0.7172
   18MOL   H14213436   4.854   4.894   0.925 -0.4006 -0.7128  1.6398
   18MOL   H14313437   4.930   4.849   0.780 -0.6547 -0.7024 -0.1236
   18MOL   H14413438   4.876   4.678   1.029  0.1145  1.2290  0.5265
   18MOL   H14513439   4.696   4.551   0.884 -1.6778  1.5967  1.8419
   18MOL   H14613440   4.665   4.725   0.897  0.0362  0.2123 -1.4307
   18MOL   H14713441   4.956   4.478   0.920  0.2463  0.4430  1.1324
   18MOL   H14813442   5.009   4.558   0.787 -0.6696  0.6780  0.2752
   18MOL   H14913443   5.198   4.553   0.952 -0.1122  0.2678 -0.7361
   18MOL   H15013444   5.095   4.622   1.071  0.9718  2.5488  0.3705
   18MOL   H15113445   5.163   4.761   0.806  0.2827 -3.4603  0.5397
   18MOL   H15213446   5.380   4.743   0.938 -0.1749  0.0231  1.6326
   18MOL   H15313447   5.309   4.912   0.929  4.8550 -0.7735 -1.1124
   18MOL   H15413448   5.367   5.053   1.400 -0.9612  1.3163  2.0110
   18MOL   H15513449   5.377   4.968   1.630 -1.9778  1.6609  0.7938
   18MOL   H15613450   5.145   4.615   1.511 -0.6075 -0.7355 -1.1171
   18MOL   H15713451   5.153   4.709   1.277 -0.6871  0.5867  0.8519
   18MOL   C15813452   5.722   4.267   2.008  0.0395 -0.4158 -0.7461
   18MOL   C15913453   5.669   4.378   1.918 -1.1092  0.5064 -0.5315
   18MOL   C16013454   5.521   4.410   1.951  0.5585  0.2292 -0.0864
   18MOL   C16113455   5.467   4.526   1.858 -0.0334  0.3412  0.3180
   18MOL   O16213456   5.327   4.528   1.851  0.4762 -0.7448  0.1289
   18MOL   C16313457   5.429   4.282   1.937 -0.1294  0.7691 -0.3381
   18MOL   C16413458   5.486   4.174   2.034  0.0001  0.2930 -0.5820
   18MOL   C16513459   5.629   4.140   1.999 -0.5081 -0.6384 -0.8258
   18MOL   C16613460   5.692   4.017   2.078  0.0642 -0.3452  0.5084
   18MOL   O16713461   5.699   4.052   2.216  0.4569  0.6511 -0.3028
   18MOL   C16813462   5.756   3.963   2.304  0.4416 -0.3286  0.4986
   18MOL   O16913463   5.806   3.857   2.277  0.6475 -0.7981  0.7885
   18MOL   C17013464   5.744   4.009   2.447  0.3422 -0.2980  0.0308
   18MOL   C17113465   5.815   3.943   2.549  0.0699  0.2953 -0.7304
   18MOL   C17213466   5.807   3.980   2.682 -0.1541 -0.7317 -0.0462
   18MOL   C17313467   5.730   4.096   2.713  0.4505  0.2680  0.7987
   18MOL   C17413468   5.720   4.138   2.854  0.9335  0.2493 -0.1260
   18MOL   O17513469   5.648   4.228   2.891  0.0786  0.7337  0.2701
   18MOL   O17613470   5.796   4.065   2.939 -0.0152  0.3132 -1.0076
   18MOL   C17713471   5.653   4.168   2.618 -0.3388  0.2236 -0.4242
   18MOL   C17813472   5.664   4.120   2.482  0.2480  0.3934 -0.1170
   18MOL   H17913473   5.822   4.239   1.976  0.9455  0.2361  1.4030
   18MOL   H18013474   5.739   4.302   2.110  0.5360  0.2307 -1.0570
   18MOL   H18113475   5.725   4.472   1.917  0.1501 -0.2132  0.8015
   18MOL   H18213476   5.665   4.356   1.812 -0.5173 -3.1048  0.1515
   18MOL   H18313477   5.505   4.436   2.056 -1.9852  3.3890 -1.1752
   18MOL   H18413478   5.495   4.622   1.902 -1.1368  1.6357 -1.7659
   18MOL   H18513479   5.500   4.516   1.755  1.8236 -0.8333  0.9972
   18MOL   H18613480   5.325   4.302   1.961  0.4382  1.5327  1.5556
   18MOL   H18713481   5.435   4.238   1.838  1.3563  0.9109 -0.3163
   18MOL   H18813482   5.416   4.090   2.032  1.2962 -0.8131 -0.1867
   18MOL   H18913483   5.482   4.200   2.140  0.8211  0.0576 -0.4912
   18MOL   H19013484   5.632   4.107   1.895  1.3600 -1.3512 -0.5630
   18MOL   H19113485   5.619   3.937   2.065 -0.2643  0.1209 -0.5551
   18MOL   H19213486   5.788   3.990   2.033 -1.5000 -0.5605 -2.8663
   18MOL   H19313487   5.874   3.857   2.519 -0.7469 -0.1666 -1.0422
   18MOL   H19413488   5.862   3.943   2.767  0.5967  2.3817  0.8834
   18MOL   H19513489   5.600   4.257   2.647  1.9957  1.4085  0.2730
   18MOL   H19613490   5.617   4.170   2.399 -1.4481 -0.6025  0.2036
   18MOL   C19713491   6.123   3.889   3.280  0.2770  0.0592 -0.3436
   18MOL   C19813492   6.011   3.988   3.268 -0.1224  0.5276  0.3906
   18MOL   C19913493   6.020   4.073   3.139  0.1138 -0.0005 -0.5258
   18MOL   C20013494   5.915   4.180   3.124 -0.1528 -0.5358  0.1567
   18MOL   O20113495   5.791   4.112   3.088  0.2498 -0.2890 -0.1793
   18MOL   C20213496   6.153   4.149   3.134 -0.0999 -0.1535 -0.1899
   18MOL   C20313497   6.266   4.048   3.140 -0.2915 -0.5414  0.4300
   18MOL   C20413498   6.263   3.962   3.268  0.5891  0.1493  0.1408
   18MOL   C20513499   6.376   3.869   3.292  0.2361 -0.0591  0.4778
   18MOL   O20613500   6.382   3.775   3.198  0.2437  0.1467 -0.2382
   18MOL   C20713501   6.473   3.681   3.197 -0.1022  0.0136 -0.2201
   18MOL   O20813502   6.567   3.678   3.277 -0.1374 -0.1200  0.7386
   18MOL   C20913503   6.458   3.579   3.094 -0.2084 -0.5257  0.1460
   18MOL   C21013504   6.532   3.457   3.094 -0.0462 -0.4972 -0.1715
   18MOL   C21113505   6.501   3.362   2.990 -0.0808  0.4543 -0.0216
   18MOL   C21213506   6.400   3.383   2.895 -0.3606  0.6307 -0.5602
   18MOL   C21313507   6.376   3.285   2.788 -0.0670  0.0594 -0.4835
   18MOL   O21413508   6.283   3.298   2.701  0.7058 -0.4539  0.1313
   18MOL   O21513509   6.453   3.167   2.784  0.1094  0.4969  0.0131
   18MOL   C21613510   6.336   3.502   2.892  0.4657 -0.1252 -0.3978
   18MOL   C21713511   6.356   3.591   2.996  0.1917  0.0899  0.0242
   18MOL   H21813512   6.123   3.828   3.371  1.0211 -1.3120 -1.2524
   18MOL   H21913513   6.102   3.806   3.213 -0.6430  0.8427 -1.0327
   18MOL   H22013514   5.919   3.929   3.260 -0.3461  0.8056  0.9113
   18MOL   H22113515   6.004   4.045   3.360 -0.9323  0.9205  0.0928
   18MOL   H22213516   6.013   4.008   3.051 -3.1523 -1.1420  0.5295
   18MOL   H22313517   5.901   4.249   3.207 -2.6768 -1.3334  0.4406
   18MOL   H22413518   5.943   4.245   3.041  0.1322 -1.8370 -0.7928
   18MOL   H22513519   6.163   4.219   3.050 -1.7357  0.0890 -0.2004
   18MOL   H22613520   6.155   4.214   3.222  1.1911  0.5661 -0.7335
   18MOL   H22713521   6.354   4.113   3.139 -0.7111  0.0224 -1.8286
   18MOL   H22813522   6.269   3.996   3.045 -0.5390  0.9251 -0.4012
   18MOL   H22913523   6.263   4.042   3.342 -1.0232 -1.6152  2.0996
   18MOL   H23013524   6.469   3.926   3.284  0.8470 -0.8167  1.9885
   18MOL   H23113525   6.380   3.816   3.387 -0.2815 -0.5042  0.2535
   18MOL   H23213526   6.609   3.450   3.169  0.5536  2.2376 -0.4603
   18MOL   H23313527   6.566   3.277   2.985 -0.3362  0.1166  1.9898
   18MOL   H23413528   6.268   3.506   2.808  1.5929  2.0433 -1.2397
   18MOL   H23513529   6.285   3.672   2.998 -0.8017 -0.7944  0.9135
   18MOL   C23613530   6.512   2.778   2.392 -0.3219  0.2004 -0.4031
   18MOL   C23713531   6.512   2.867   2.520  0.2322  0.6323 -0.3749
   18MOL   C23813532   6.359   2.904   2.551 -0.3841  0.0435 -0.7014
   18MOL   C23913533   6.339   2.995   2.674 -0.7140 -0.0150  1.4630
   18MOL   O24013534   6.449   3.091   2.662 -0.5278  0.1890 -0.5441
   18MOL   C24113535   6.303   2.973   2.425 -0.2151  0.4949  0.7397
   18MOL   C24213536   6.318   2.888   2.297 -0.7917  0.2353 -0.9185
   18MOL   C24313537   6.464   2.848   2.258 -0.8287  0.1242  0.2715
   18MOL   C24413538   6.469   2.742   2.144  0.2989  0.4288  0.2503
   18MOL   O24513539   6.407   2.792   2.022 -0.2996  0.3281  0.0060
   18MOL   C24613540   6.388   2.710   1.919  0.1748  0.1924 -0.8453
   18MOL   O24713541   6.385   2.587   1.931  0.8639  0.8149 -0.0051
   18MOL   C24813542   6.350   2.783   1.794  0.1184  0.4191 -0.1461
   18MOL   C24913543   6.352   2.709   1.675  0.9750  0.7582 -0.1485
   18MOL   C25013544   6.317   2.768   1.553  0.7906 -0.2800  0.1587
   18MOL   C25113545   6.293   2.906   1.544 -0.2801  1.1597  0.0473
   18MOL   C25213546   6.268   2.967   1.417 -0.7746 -0.6437  0.1934
   18MOL   O25313547   6.353   2.970   1.326 -0.0599  0.0835 -0.3439
   18MOL   O25413548   6.150   3.023   1.408 -0.2959 -0.1145  0.1767
   18MOL   C25513549   6.301   2.982   1.664  0.5801 -0.0042  0.4605
   18MOL   C25613550   6.320   2.925   1.788  0.1799  0.0272 -0.3167
   18MOL   H25713551   6.614   2.742   2.381 -0.6103 -0.2714 -1.6084
   18MOL   H25813552   6.443   2.695   2.407  1.0259 -0.9197 -0.2765
   18MOL   H25913553   6.550   2.800   2.598 -0.7280  0.8057  0.2422
   18MOL   H26013554   6.581   2.951   2.513  1.2374 -0.0670  0.6878
   18MOL   H26113555   6.304   2.817   2.584 -0.5855 -0.1437 -1.5243
   18MOL   H26213556   6.238   3.037   2.678 -0.5957  0.6378 -1.2390
   18MOL   H26313557   6.348   2.938   2.767 -0.0532 -1.8899  0.2822
   18MOL   H26413558   6.199   2.997   2.446 -0.7282 -1.3145  0.3347
   18MOL   H26513559   6.352   3.070   2.413  0.3789  0.0305 -0.8040
   18MOL   H26613560   6.283   2.933   2.204 -0.2819 -1.0572 -1.7383
   18MOL   H26713561   6.260   2.797   2.311 -0.5487  0.3626  1.0170
   18MOL   H26813562   6.523   2.935   2.227 -0.8408 -0.0156 -0.1572
   18MOL   H26913563   6.575   2.739   2.120  0.4445 -0.2822  0.9551
   18MOL   H27013564   6.434   2.644   2.178  0.2618  0.4199  0.1871
   18MOL   H27113565   6.393   2.609   1.687 -0.0183  0.6411  2.6420
   18MOL   H27213566   6.318   2.705   1.465  1.3167  0.3977 -0.3232
   18MOL   H27313567   6.286   3.089   1.659 -1.5410 -0.2271  1.3448
   18MOL   H27413568   6.323   2.986   1.877 -0.4658 -1.9594  1.0921
   18MOL   C27513569   5.766   3.326   1.369  0.6250  0.0334 -0.2214
   18MOL   C27613570   5.889   3.239   1.374  0.2216  0.1666 -0.6028
   18MOL   C27713571   5.997   3.296   1.283 -0.1533 -0.5100 -0.4815
   18MOL   C27813572   6.133   3.238   1.296 -0.5211  0.7445  0.0676
   18MOL   O27913573   6.122   3.097   1.279  0.2476  0.4776  0.4159
   18MOL   C28013574   5.938   3.295   1.137  0.1492 -0.1877 -0.7037
   18MOL   C28113575   5.811   3.386   1.128  0.5559 -0.0179  0.1007
   18MOL   C28213576   5.706   3.342   1.231 -0.7629  1.0117  0.3129
   18MOL   C28313577   5.579   3.430   1.233  0.1866 -0.7395  0.3961
   18MOL   O28413578   5.597   3.568   1.223 -0.0958 -0.0255 -0.3234
   18MOL   C28513579   5.494   3.653   1.232 -0.3667  0.4023 -0.1258
   18MOL   O28613580   5.374   3.624   1.239 -0.3308  0.1561 -0.0058
   18MOL   C28713581   5.548   3.797   1.217  1.5270 -0.4185  0.4210
   18MOL   C28813582   5.683   3.824   1.218 -0.1897  0.3591 -0.5287
   18MOL   C28913583   5.730   3.955   1.194 -0.4044  0.6733  0.0070
   18MOL   C29013584   5.641   4.058   1.160  0.9952 -0.3383 -0.1080
   18MOL   C29113585   5.691   4.181   1.096  0.4644 -0.3900  0.1651
   18MOL   O29213586   5.618   4.257   1.032  0.1294  0.5723  0.9290
   18MOL   O29313587   5.829   4.193   1.105 -0.1482 -0.3822 -0.0977
   18MOL   C29413588   5.502   4.034   1.172 -0.4640  0.1205  0.3244
   18MOL   C29513589   5.457   3.900   1.191 -0.3557  0.1602 -0.7678
   18MOL   H29613590   5.690   3.291   1.439  0.5844 -0.0072 -0.2857
   18MOL   H29713591   5.795   3.424   1.407 -0.1054 -1.1949  3.7963
   18MOL   H29813592   5.926   3.215   1.473  1.6858 -1.0671 -1.4301
   18MOL   H29913593   5.858   3.142   1.336 -0.7449  0.8639 -1.6275
   18MOL   H30013594   6.012   3.399   1.315 -1.4139 -0.4295 -0.1474
   18MOL   H30113595   6.185   3.278   1.208  0.5059  0.9069  0.7344
   18MOL   H30213596   6.190   3.272   1.383  2.3984  0.2552 -1.5653
   18MOL   H30313597   6.013   3.339   1.071  0.9446 -1.2361 -0.5082
   18MOL   H30413598   5.911   3.194   1.108  0.8945 -0.2148 -1.3376
   18MOL   H30513599   5.762   3.381   1.030 -0.3169 -0.3785  0.5552
   18MOL   H30613600   5.827   3.491   1.149 -0.7214  0.2792 -0.3891
   18MOL   H30713601   5.662   3.245   1.210 -1.8934  1.2802  1.3359
   18MOL   H30813602   5.521   3.397   1.147  0.4213 -0.0243 -0.0397
   18MOL   H30913603   5.519   3.407   1.321 -0.0964  0.9700  0.6587
   18MOL   H31013604   5.755   3.744   1.229 -1.1702 -0.6279 -1.2304
   18MOL   H31113605   5.835   3.981   1.197 -0.8833  2.5817  1.9491
   18MOL   H31213606   5.432   4.116   1.165  0.2255  0.5948 -1.3180
   18MOL   H31313607   5.353   3.871   1.196 -0.2312 -0.0915  0.3622
   18MOL   C31413608   5.969   4.805   1.132 -0.0325 -0.1342 -0.0633
   18MOL   C31513609   5.940   4.656   1.183  0.8408 -0.2245  0.0075
   18MOL   C31613610   5.897   4.564   1.067  0.3227 -0.3852 -1.1991
   18MOL   C31713611   5.880   4.428   1.134 -0.8473 -0.3350  0.4021
   18MOL   O31813612   5.876   4.324   1.041 -0.1646 -0.4587  0.0157
   18MOL   C31913613   5.788   4.618   0.974 -0.1558  0.0816  0.0125
   18MOL   C32013614   5.825   4.764   0.926  0.3974 -0.3738 -0.0383
   18MOL   C32113615   5.855   4.861   1.045  0.3542  0.9062  0.5687
   18MOL   C32213616   5.863   5.009   0.995  0.1390 -0.7243  0.5464
   18MOL   O32313617   5.735   5.044   0.945 -0.7503  0.1659 -0.3095
   18MOL   C32413618   5.699   5.170   0.958  0.8288 -0.6545  0.6745
   18MOL   O32513619   5.771   5.259   1.009  0.2274 -0.3353  0.0313
   18MOL   C32613620   5.558   5.193   0.909 -0.3164  0.1426 -0.1759
   18MOL   C32713621   5.478   5.090   0.854  0.4326  0.3028 -0.7108
   18MOL   C32813622   5.349   5.114   0.808 -0.5609  0.2283  0.0734
   18MOL   C32913623   5.299   5.248   0.820 -0.5368 -0.3497 -0.0046
   18MOL   C33013624   5.159   5.283   0.776 -0.2953  0.6566  1.2182
   18MOL   O33113625   5.108   5.399   0.764  0.1487 -0.2692  0.3574
   18MOL   O33213626   5.077   5.169   0.755  0.1062  0.2818 -0.5158
   18MOL   C33313627   5.379   5.355   0.865  0.2172  0.0256 -0.5608
   18MOL   C33413628   5.509   5.322   0.912  0.1455 -0.3823  0.7667
   18MOL   H33513629   5.975   4.866   1.222 -1.8147  0.8066 -0.5780
   18MOL   H33613630   6.072   4.814   1.096  0.1169  0.1053  0.4187
   18MOL   H33713631   6.035   4.619   1.220  1.3325  0.0946 -0.9283
   18MOL   H33813632   5.858   4.646   1.255  1.0970 -0.9550  0.2016
   18MOL   H33913633   5.991   4.559   1.012  0.5836 -1.8479 -0.6287
   18MOL   H34013634   5.965   4.401   1.197  0.7335 -0.0795 -1.5734
   18MOL   H34113635   5.785   4.425   1.188 -0.7457  0.6948  0.6431
   18MOL   H34213636   5.759   4.549   0.895  0.2984  0.7616 -0.7560
   18MOL   H34313637   5.707   4.625   1.047 -0.3329  2.3909 -0.3725
   18MOL   H34413638   5.741   4.814   0.879 -0.6750  1.1730  3.3189
   18MOL   H34513639   5.903   4.765   0.850  0.0424  1.1978 -0.3976
   18MOL   H34613640   5.760   4.861   1.100 -0.8942 -1.2804 -1.5150
   18MOL   H34713641   5.891   5.072   1.079  0.7217 -0.1033 -0.1002
   18MOL   H34813642   5.944   5.023   0.923  0.5826  3.1019  1.6764
   18MOL   H34913643   5.510   4.988   0.846  1.3144  0.3733  1.4813
   18MOL   H35013644   5.293   5.026   0.778 -1.5347  0.2909  1.6966
   18MOL   H35113645   5.335   5.453   0.876  1.0791  0.4571 -0.8983
   18MOL   H35213646   5.566   5.404   0.954  1.6158 -0.1407 -1.6191
   18MOL   C35313647   4.561   5.197   0.482 -0.0889 -0.5177  0.2401
   18MOL   C35413648   4.682   5.150   0.563 -0.9360  0.0688  0.2319
   18MOL   C35513649   4.718   5.237   0.680  0.7199 -0.0306 -0.1276
   18MOL   C35613650   4.842   5.193   0.765  0.4075  0.1465  0.3986
   18MOL   O35713651   4.956   5.196   0.675  0.8159 -0.2803  0.0492
   18MOL   C35813652   4.734   5.382   0.647  0.1753 -0.2293 -0.8091
   18MOL   C35913653   4.610   5.435   0.566 -0.1490  0.3236 -0.7697
   18MOL   C36013654   4.574   5.344   0.449  0.2135  0.0182  0.0231
   18MOL   C36113655   4.454   5.405   0.369 -0.5307  0.7280  0.1911
   18MOL   O36213656   4.337   5.433   0.445  0.4993 -0.8886  0.7664
   18MOL   C36313657   4.245   5.342   0.470  0.3759  0.2839  0.5220
   18MOL   O36413658   4.248   5.230   0.424  0.1689 -0.4150 -0.5181
   18MOL   C36513659   4.158   5.386   0.580  0.1041  0.0438  0.1033
   18MOL   C36613660   4.131   5.523   0.611 -0.3408 -0.5054 -0.6874
   18MOL   C36713661   4.068   5.562   0.730 -0.1628  0.1670  0.7472
   18MOL   C36813662   4.020   5.462   0.817  0.3029  0.1795  0.0009
   18MOL   C36913663   3.942   5.498   0.939  0.4258  0.2242 -0.3054
   18MOL   O37013664   3.906   5.415   1.023  0.1601  0.0233  0.3097
   18MOL   O37113665   3.928   5.637   0.963  0.0097 -0.1145 -0.1797
   18MOL   C37213666   4.042   5.327   0.788  0.8497  0.2354  0.2593
   18MOL   C37313667   4.100   5.289   0.664  0.3295  0.1716 -0.5409
   18MOL   H37413668   4.537   5.139   0.393 -0.5873 -1.5161  0.9981
   18MOL   H37513669   4.474   5.173   0.544 -0.1520 -1.2957 -0.1324
   18MOL   H37613670   4.657   5.051   0.600 -0.4417 -1.5390 -3.4761
   18MOL   H37713671   4.771   5.134   0.503 -1.3174  0.9556 -0.5909
   18MOL   H37813672   4.636   5.217   0.749  1.9258 -1.3691  0.9357
   18MOL   H37913673   4.863   5.266   0.844  0.6275  0.6046 -0.0747
   18MOL   H38013674   4.836   5.095   0.811  0.3112  0.1778  0.4530
   18MOL   H38113675   4.763   5.441   0.735 -0.5581 -1.9258  0.6057
   18MOL   H38213676   4.820   5.385   0.580 -1.1264  3.3561 -2.4354
   18MOL   H38313677   4.630   5.536   0.532 -0.4758  0.9234  0.7856
   18MOL   H38413678   4.521   5.434   0.629  0.3084 -0.4165 -0.1281
   18MOL   H38513679   4.662   5.338   0.385 -0.6148 -0.1158 -1.1187
   18MOL   H38613680   4.482   5.494   0.313  1.7387 -0.3008 -0.3778
   18MOL   H38713681   4.422   5.323   0.305 -1.5590 -0.4841  2.2037
   18MOL   H38813682   4.164   5.608   0.553  1.8229 -0.2804  0.8221
   18MOL   H38913683   4.053   5.667   0.752  0.2288  0.1288  1.1975
   18MOL   H39013684   4.000   5.247   0.847 -1.3849  0.6413 -0.7161
   18MOL   H39113685   4.102   5.183   0.644 -1.7637 -0.1826  0.9285
   18MOL   C39213686   3.920   5.812   1.519  0.1926  0.5898 -0.0912
   18MOL   C39313687   3.931   5.803   1.366 -0.3581 -0.1453 -0.5611
   18MOL   C39413688   4.020   5.695   1.311 -0.2566 -0.7270 -0.9462
   18MOL   C39513689   4.041   5.693   1.163 -0.1501 -0.3805 -0.7291
   18MOL   O39613690   3.914   5.666   1.107  0.2414 -0.4419  0.3723
   18MOL   C39713691   4.163   5.707   1.382 -0.0205 -0.5935  0.1457
   18MOL   C39813692   4.144   5.697   1.536  0.0733  0.2800 -0.1558
   18MOL   C39913693   4.059   5.815   1.588 -0.4482 -0.7639  0.0793
   18MOL   C40013694   4.040   5.811   1.745  0.1544  0.0661  0.2389
   18MOL   O40113695   3.968   5.922   1.790 -0.1791  0.1479  0.6521
   18MOL   C40213696   4.041   6.041   1.818  0.6062 -0.3077 -0.2659
   18MOL   O40313697   4.155   6.065   1.781 -0.2132  0.3199  0.1126
   18MOL   C40413698   3.944   6.136   1.890 -0.4792  0.2179  0.4370
   18MOL   C40513699   3.807   6.102   1.916 -0.5775  0.3385  0.5793
   18MOL   C40613700   3.731   6.192   1.992  0.6877  0.1832 -0.1563
   18MOL   C40713701   3.785   6.310   2.042 -0.3179 -0.4319 -0.1927
   18MOL   C40813702   3.698   6.402   2.115 -0.3947 -0.1998  0.6185
   18MOL   O40913703   3.592   6.373   2.171 -0.6248  0.4822 -0.3707
   18MOL   O41013704   3.760   6.522   2.152  0.5742  0.2935 -0.0633
   18MOL   C41113705   3.917   6.344   2.001  0.1023 -0.0219 -0.2364
   18MOL   C41213706   3.994   6.255   1.938 -0.0507  0.5942  0.6447
   18MOL   H41313707   3.864   5.900   1.550 -0.2820 -0.0816  1.0154
   18MOL   H41413708   3.860   5.726   1.548  0.4447  1.1077  2.0340
   18MOL   H41513709   3.827   5.785   1.337 -0.4635 -1.4021  0.5433
   18MOL   H41613710   3.972   5.899   1.335 -0.8998  0.2473 -0.0802
   18MOL   H41713711   3.971   5.600   1.330 -0.0413 -1.2105 -2.7146
   18MOL   H41813712   4.069   5.793   1.130 -2.1533  0.5611  0.3780
   18MOL   H41913713   4.127   5.634   1.128  0.7289  1.2544 -1.3787
   18MOL   H42013714   4.235   5.631   1.353 -1.4577 -1.2478 -1.8521
   18MOL   H42113715   4.213   5.802   1.365 -0.9599 -0.1780 -0.3313
   18MOL   H42213716   4.243   5.697   1.581  0.0906  0.3173 -0.1938
   18MOL   H42313717   4.090   5.607   1.564 -2.3376  1.0641 -2.0387
   18MOL   H42413718   4.118   5.902   1.562  1.0725 -1.7903  0.0290
   18MOL   H42513719   3.989   5.720   1.777  1.2371 -0.2703  1.0196
   18MOL   H42613720   4.144   5.808   1.777  0.2882  1.0226 -0.0968
   18MOL   H42713721   3.765   6.009   1.881  2.5257 -1.3417  1.1458
   18MOL   H42813722   3.626   6.172   2.003  0.9095 -1.9408 -1.7064
   18MOL   H42913723   3.962   6.438   2.031  0.6807 -1.4080  3.5124
   18MOL   H43013724   4.095   6.284   1.917  1.0123 -2.9647  0.5692
   18MOL   C43113725   3.464   6.974   2.420  0.2401  0.0918  0.1410
   18MOL   C43213726   3.495   6.841   2.341  0.7166  0.1741 -0.3631
   18MOL   C43313727   3.614   6.846   2.249  0.2021  0.1677 -0.2880
   18MOL   C43413728   3.626   6.717   2.168 -1.0685 -0.9595  0.6407
   18MOL   O43513729   3.674   6.607   2.245  0.0210 -0.7364 -0.5786
   18MOL   C43613730   3.610   6.978   2.169 -0.3818  0.3751 -0.1138
   18MOL   C43713731   3.598   7.099   2.257 -0.6230  0.9467 -0.1702
   18MOL   C43813732   3.464   7.095   2.324  0.6974 -0.3768  0.3506
   18MOL   C43913733   3.433   7.228   2.397 -0.2927 -0.0030  0.2944
   18MOL   O44013734   3.295   7.234   2.435 -0.1613  0.4718  0.1548
   18MOL   C44113735   3.242   7.343   2.501  0.4531  0.3418  0.1839
   18MOL   O44213736   3.314   7.425   2.553  0.3629 -0.2124  0.3379
   18MOL   C44313737   3.101   7.335   2.504 -0.1817 -0.8226 -0.4530
   18MOL   C44413738   3.030   7.365   2.620  0.7235 -0.1541 -0.2703
   18MOL   C44513739   2.895   7.326   2.630  0.4334 -0.0787 -0.0657
   18MOL   C44613740   2.827   7.262   2.521 -0.1363 -0.0149 -0.0619
   18MOL   C44713741   2.688   7.204   2.526  0.0554  0.1260  0.0120
   18MOL   O44813742   2.624   7.157   2.429 -0.5661 -0.3319  0.2934
   18MOL   O44913743   2.633   7.218   2.651 -0.0603  0.2007  0.1396
   18MOL   C45013744   2.898   7.232   2.402  0.4950 -0.0516 -0.0692
   18MOL   C45113745   3.037   7.268   2.393 -0.0086 -0.8465 -0.2949
   18MOL   H45213746   3.373   6.965   2.480  0.9647 -0.9023  1.1091
   18MOL   H45313747   3.540   6.999   2.494  0.1148  0.9293 -0.0071
   18MOL   H45413748   3.500   6.752   2.403 -0.6360  0.3135 -0.0388
   18MOL   H45513749   3.416   6.821   2.270  0.4826 -1.9171  0.4462
   18MOL   H45613750   3.705   6.848   2.310  0.4169 -2.6991 -0.4669
   18MOL   H45713751   3.536   6.692   2.111 -0.2457 -2.4688 -0.0131
   18MOL   H45813752   3.690   6.738   2.082  1.9941 -2.3899  2.5083
   18MOL   H45913753   3.697   6.980   2.104  0.7415  0.5140  1.3636
   18MOL   H46013754   3.531   6.979   2.094  0.9266  1.8997 -1.4938
   18MOL   H46113755   3.604   7.187   2.193 -1.7942  1.0248 -0.1748
   18MOL   H46213756   3.676   7.096   2.333 -0.5874  1.5556 -0.1821
   18MOL   H46313757   3.376   7.089   2.259  1.2711  1.0698 -0.5769
   18MOL   H46413758   3.500   7.257   2.478  1.1895 -0.6467 -0.6799
   18MOL   H46513759   3.448   7.311   2.328  0.1122 -0.3557 -0.0425
   18MOL   H46613760   3.084   7.395   2.708  1.7359 -0.7976 -0.6672
   18MOL   H46713761   2.849   7.342   2.726  0.3458 -0.6608 -0.0057
   18MOL   H46813762   2.857   7.206   2.305 -0.7085 -0.0962  0.4488
   18MOL   H46913763   3.088   7.244   2.301 -0.5011 -0.2347 -0.7344
   18MOL   C47013764   2.230   7.186   2.999 -0.0787  0.5486  0.4521
   18MOL   C47113765   2.328   7.237   2.895  0.0812  0.3754  0.2118
   18MOL   C47213766   2.278   7.214   2.750  0.1157  0.2969 -0.6011
   18MOL   C47313767   2.391   7.244   2.650  0.3347 -0.3415  0.3752
   18MOL   O47413768   2.494   7.149   2.673  0.3495 -0.4160 -0.4388
   18MOL   C47513769   2.235   7.062   2.736 -0.1531 -0.0585 -0.3320
   18MOL   C47613770   2.149   7.009   2.850 -0.3555 -0.4832  0.4962
   18MOL   C47713771   2.204   7.033   2.987  0.6533 -0.6177  0.4570
   18MOL   C47813772   2.102   6.978   3.085 -0.7091 -0.3262  0.1026
   18MOL   O47913773   2.155   6.987   3.215  0.0199  0.1871  0.3580
   18MOL   C48013774   2.083   6.948   3.321  0.1732  0.0281  0.1616
   18MOL   O48113775   1.971   6.897   3.307  0.0631 -0.4041 -0.6077
   18MOL   C48213776   2.138   6.982   3.455  0.4238 -0.0028  0.3377
   18MOL   C48313777   2.271   7.036   3.472  0.2518  0.0654  0.1516
   18MOL   C48413778   2.310   7.083   3.600  0.8192  0.4145 -0.3106
   18MOL   C48513779   2.230   7.065   3.717  0.1097  0.5706  0.1510
   18MOL   C48613780   2.281   7.098   3.851  0.4025  0.5126 -0.7385
   18MOL   O48713781   2.214   7.102   3.951  0.5740  0.0302 -0.4540
   18MOL   O48813782   2.408   7.130   3.859  0.5520 -0.1163  0.4911
   18MOL   C48913783   2.110   6.997   3.695  0.7943  0.2833 -0.7179
   18MOL   C49013784   2.057   6.968   3.568 -0.5057 -1.4031  0.5602
   18MOL   H49113785   2.263   7.221   3.097  0.4728  1.9815 -0.2215
   18MOL   H49213786   2.134   7.237   2.986 -1.0308 -1.0720  1.0157
   18MOL   H49313787   2.326   7.346   2.898 -2.3462  0.3789 -0.0965
   18MOL   H49413788   2.429   7.207   2.919 -0.7052 -0.9089  2.0313
   18MOL   H49513789   2.182   7.265   2.752 -0.0074  0.0178  1.6058
   18MOL   H49613790   2.342   7.222   2.554 -0.4277  0.4575  0.5687
   18MOL   H49713791   2.430   7.346   2.652  1.4578 -0.7880  0.9507
   18MOL   H49813792   2.176   7.052   2.645  1.6771 -0.4424 -1.4956
   18MOL   H49913793   2.311   6.987   2.715 -0.2195 -0.1848 -0.1282
   18MOL   H50013794   2.146   6.902   2.828  0.8057 -0.3173 -0.5240
   18MOL   H50113795   2.055   7.061   2.836  0.1720  0.1388 -0.9352
   18MOL   H50213796   2.303   6.987   2.992  2.4371  2.9766 -0.5553
   18MOL   H50313797   2.008   7.032   3.076 -1.3374 -1.4407 -0.0497
   18MOL   H50413798   2.096   6.872   3.060  1.6914 -1.2771  3.2001
   18MOL   H50513799   2.330   7.062   3.386 -0.7653 -0.2828 -0.6695
   18MOL   H50613800   2.410   7.120   3.613  0.3122  1.4799  0.6577
   18MOL   H50713801   2.044   6.979   3.779  0.2492  1.6169 -0.8492
   18MOL   H50813802   1.961   6.921   3.558 -0.7618 -0.5454 -1.1241
   18MOL   C50913803   2.745   7.383   4.248  0.3947  0.1366 -0.5444
   18MOL   C51013804   2.702   7.270   4.145 -0.3318  0.4899 -0.5007
   18MOL   C51113805   2.564   7.218   4.182 -0.3019  0.1513 -0.0725
   18MOL   C51213806   2.497   7.132   4.075 -0.1118  0.2868 -0.2175
   18MOL   O51313807   2.447   7.217   3.970 -0.3420 -0.1050  0.0384
   18MOL   C51413808   2.553   7.169   4.328  0.3544  0.0597 -0.1849
   18MOL   C51513809   2.600   7.275   4.435 -0.2220  0.2492 -0.1244
   18MOL   C51613810   2.734   7.343   4.397  0.3931  0.6850  0.0144
   18MOL   C51713811   2.748   7.469   4.489 -0.5666  0.0988 -0.0368
   18MOL   O51813812   2.757   7.432   4.622  0.3643 -0.0324 -0.1559
   18MOL   C51913813   2.694   7.501   4.722  0.1830  0.5345 -0.5285
   18MOL   O52013814   2.639   7.611   4.721  0.4013  0.1564 -0.3650
   18MOL   C52113815   2.704   7.434   4.856  0.1740  0.7306  0.4207
   18MOL   C52213816   2.758   7.303   4.873  0.3328  0.0978 -0.0018
   18MOL   C52313817   2.767   7.240   4.997 -0.6139  0.3586  0.8750
   18MOL   C52413818   2.723   7.308   5.113  0.3814  0.3838  0.4885
   18MOL   C52513819   2.752   7.258   5.243  0.5821  0.1749  0.0566
   18MOL   O52613820   2.662   7.250   5.329 -0.3889 -0.4557 -0.5593
   18MOL   O52713821   2.881   7.227   5.251  0.0041 -0.2315 -0.3131
   18MOL   C52813822   2.652   7.432   5.093 -0.1842 -0.1021 -0.5569
   18MOL   C52913823   2.644   7.497   4.969 -0.2629  0.3923 -0.6449
   18MOL   H53013824   2.838   7.427   4.213  0.1837  0.6440 -0.4676
   18MOL   H53113825   2.674   7.464   4.229 -1.2777 -1.3739 -0.9417
   18MOL   H53213826   2.700   7.319   4.048 -1.9148  1.0920 -0.1842
   18MOL   H53313827   2.773   7.187   4.143  0.3077  0.9720  1.2039
   18MOL   H53413828   2.509   7.312   4.192  1.5152  1.2854 -0.4832
   18MOL   H53513829   2.581   7.076   4.034 -0.7333 -1.7250  1.2336
   18MOL   H53613830   2.418   7.068   4.113  0.9204  0.9879  3.3193
   18MOL   H53713831   2.456   7.125   4.348 -0.4085  1.6616 -0.2393
   18MOL   H53813832   2.618   7.082   4.327 -1.4699 -1.3313 -1.9247
   18MOL   H53913833   2.608   7.221   4.529 -2.9063 -0.8764 -0.5075
   18MOL   H54013834   2.529   7.357   4.433 -1.5805 -0.9200 -1.5623
   18MOL   H54113835   2.818   7.276   4.418 -1.7406 -1.7159  1.1971
   18MOL   H54213836   2.849   7.503   4.470 -0.7184  0.3353 -0.4346
   18MOL   H54313837   2.686   7.557   4.470 -0.5669  0.0504 -0.2697
   18MOL   H54413838   2.795   7.260   4.781 -3.0350  0.5448 -1.6597
   18MOL   H54513839   2.817   7.144   5.002 -0.0965  0.3495 -2.6659
   18MOL   H54613840   2.600   7.474   5.177  0.4122 -1.8334  0.7083
   18MOL   H54713841   2.599   7.594   4.962  0.2456  0.7096  0.4279
   18MOL   C54813842   3.009   6.805   5.697 -0.3920  0.3401  1.0611
   18MOL   C54913843   2.989   6.851   5.548 -0.5601  0.3128 -0.9033
   18MOL   C55013844   2.977   7.000   5.541  0.3356  0.1370 -0.2404
   18MOL   C55113845   2.935   7.046   5.397 -0.4361  0.4742 -0.2885
   18MOL   O55213846   2.916   7.188   5.389 -0.2078  0.5669 -0.2854
   18MOL   C55313847   2.872   7.054   5.647  0.1030 -0.1573 -0.0089
   18MOL   C55413848   2.890   7.008   5.791  0.3654 -0.3347 -0.0327
   18MOL   C55513849   2.895   6.852   5.796  0.6812 -0.0096  0.2427
   18MOL   C55613850   2.911   6.793   5.937  1.0751  0.2829  0.0660
   18MOL   O55713851   2.904   6.655   5.948 -0.0695 -0.0021 -0.0015
   18MOL   C55813852   2.871   6.600   6.065  0.0448  0.1735  0.8630
   18MOL   O55913853   2.844   6.671   6.162  0.5491 -0.2959  0.5314
   18MOL   C56013854   2.889   6.452   6.070 -0.0507  0.1849 -0.2327
   18MOL   C56113855   2.905   6.380   5.948  0.0338  0.0764  0.2398
   18MOL   C56213856   2.910   6.237   5.952  0.4667 -1.1875  0.1927
   18MOL   C56313857   2.899   6.172   6.079 -0.3352 -1.1301  0.2443
   18MOL   C56413858   2.902   6.023   6.076  0.6890  0.4171 -0.3272
   18MOL   O56513859   2.960   5.952   5.999  0.2031 -0.0327 -0.3013
   18MOL   O56613860   2.842   5.973   6.195 -0.3656  0.0774 -0.1294
   18MOL   C56713861   2.901   6.243   6.201 -0.5000  0.1627 -0.3954
   18MOL   C56813862   2.888   6.384   6.196 -0.5343 -0.1788  0.3871
   18MOL   H56913863   3.007   6.696   5.696 -3.4058  0.3449 -0.5440
   18MOL   H57013864   3.106   6.835   5.734 -0.3228  3.0826 -1.1641
   18MOL   H57113865   3.069   6.807   5.488 -0.5634  0.0897 -0.7465
   18MOL   H57213866   2.890   6.811   5.525 -0.7711  1.1110 -1.3979
   18MOL   H57313867   3.074   7.041   5.570 -0.3777  1.1254  0.8194
   18MOL   H57413868   3.018   7.028   5.328 -0.1117 -1.1101  0.4658
   18MOL   H57513869   2.848   6.987   5.369  0.9394 -2.9325  2.1585
   18MOL   H57613870   2.873   7.161   5.627  1.6227 -0.2550 -0.5348
   18MOL   H57713871   2.777   7.016   5.608  0.8262 -1.9343 -0.1059
   18MOL   H57813872   2.802   7.040   5.847  0.7417 -0.8980  0.8956
   18MOL   H57913873   2.974   7.065   5.831 -2.1630  2.0641  2.0078
   18MOL   H58013874   2.800   6.817   5.757  0.6082  0.7809 -0.3091
   18MOL   H58113875   3.008   6.827   5.972  0.0675  1.2109  2.0211
   18MOL   H58213876   2.843   6.843   6.005 -0.6497 -0.9091 -0.7430
   18MOL   H58313877   2.910   6.434   5.855 -0.9399  0.5407  0.4518
   18MOL   H58413878   2.912   6.171   5.867 -0.1328 -0.6202 -0.2638
   18MOL   H58513879   2.889   6.198   6.299  0.1412  0.2784 -0.2603
   18MOL   H58613880   2.865   6.431   6.290 -0.6703  1.0189 -0.2292
   18MOL   C58713881   3.257   5.538   6.359  0.2510 -0.2976 -0.7420
   18MOL   C58813882   3.204   5.685   6.342  0.5357 -0.0338  0.0877
   18MOL   C58913883   3.062   5.687   6.282  0.5136  0.4791  0.0866
   18MOL   C59013884   3.028   5.832   6.254  0.6531  0.4725  1.0199
   18MOL   O59113885   2.891   5.833   6.222  0.5926  0.0790  0.3959
   18MOL   C59213886   3.068   5.608   6.157 -1.0713 -0.5547  0.1308
   18MOL   C59313887   3.116   5.463   6.172 -0.1290 -0.2738  0.5500
   18MOL   C59413888   3.254   5.453   6.232  0.0642  0.3756 -0.2424
   18MOL   C59513889   3.297   5.306   6.250 -0.0746 -0.3488  0.1495
   18MOL   O59613890   3.195   5.231   6.320  0.3254  0.3490 -0.0773
   18MOL   C59713891   3.145   5.117   6.276  0.2972  0.4366 -0.6562
   18MOL   O59813892   3.197   5.053   6.183  0.2919 -0.7347  0.0094
   18MOL   C59913893   3.015   5.088   6.350 -0.7080  0.0879  0.4172
   18MOL   C60013894   2.960   4.958   6.352 -0.0336 -0.3029  0.2822
   18MOL   C60113895   2.837   4.923   6.409 -0.2480 -0.1096  0.7948
   18MOL   C60213896   2.758   5.025   6.459  0.0847  0.0391 -0.7666
   18MOL   C60313897   2.623   4.990   6.507  0.3449 -0.5855  0.2214
   18MOL   O60413898   2.584   4.882   6.539 -0.1482  0.0841 -0.9913
   18MOL   O60513899   2.536   5.103   6.489 -0.1538  0.0142 -0.4287
   18MOL   C60613900   2.809   5.154   6.463  0.7810 -0.7264  0.5681
   18MOL   C60713901   2.934   5.187   6.410  0.2204  0.3411  0.4925
   18MOL   H60813902   3.358   5.543   6.401 -0.1118 -0.9442  0.2158
   18MOL   H60913903   3.197   5.488   6.434 -0.4571 -0.7623 -1.6017
   18MOL   H61013904   3.197   5.740   6.436 -0.3015  0.8496 -0.4710
   18MOL   H61113905   3.276   5.742   6.283  0.1554 -0.0178 -0.3634
   18MOL   H61213906   2.979   5.645   6.338  0.3999 -0.9183 -1.1096
   18MOL   H61313907   3.043   5.888   6.346 -0.0097  2.7400 -0.2095
   18MOL   H61413908   3.090   5.879   6.178 -0.3985  1.7212  0.8936
   18MOL   H61513909   2.971   5.612   6.107 -0.2681 -0.5180 -1.4334
   18MOL   H61613910   3.132   5.657   6.085 -1.5444 -0.3453 -0.1450
   18MOL   H61713911   3.109   5.411   6.076 -1.5381  0.4746  0.2316
   18MOL   H61813912   3.039   5.418   6.234 -2.1054  1.4204 -0.5873
   18MOL   H61913913   3.319   5.483   6.150  2.0515 -1.2545  0.6953
   18MOL   H62013914   3.322   5.257   6.156  2.5496  0.3197  0.4756
   18MOL   H62113915   3.396   5.294   6.294  0.2972  0.6823 -0.4066
   18MOL   H62213916   3.017   4.878   6.308  0.6121  0.1848  0.2305
   18MOL   H62313917   2.805   4.820   6.401 -1.4286  0.4115 -1.8611
   18MOL   H62413918   2.752   5.223   6.522 -0.1726 -1.1419  0.1510
   18MOL   H62513919   2.971   5.288   6.403  0.1153  0.5189  2.3320
   18MOL   C62613920   2.551   5.103   6.980  0.3585 -0.6770 -0.0236
   18MOL   C62713921   2.479   5.087   6.847  0.1758 -0.0131 -0.0690
   18MOL   C62813922   2.474   5.208   6.760 -0.4533 -0.5436  0.2585
   18MOL   C62913923   2.374   5.182   6.639  0.0222  0.5076  0.2749
   18MOL   O63013924   2.411   5.075   6.555 -0.0150  0.1847 -0.4841
   18MOL   C63113925   2.430   5.333   6.854  0.4728 -0.2824 -0.7587
   18MOL   C63213926   2.525   5.344   6.982 -0.0744 -0.3577 -0.1229
   18MOL   C63313927   2.512   5.227   7.069  0.2309 -0.1938  0.5545
   18MOL   C63413928   2.595   5.238   7.202 -0.3875 -0.0555 -0.1930
   18MOL   O63513929   2.557   5.131   7.284  0.0972 -0.4240 -0.1043
   18MOL   C63613930   2.475   5.155   7.396 -0.7657 -0.1607  0.1582
   18MOL   O63713931   2.440   5.274   7.419 -0.6215  0.1149 -0.5144
   18MOL   C63813932   2.458   5.032   7.476 -0.2256 -0.4375 -0.7617
   18MOL   C63913933   2.497   4.900   7.433  0.6312  0.2506  0.8995
   18MOL   C64013934   2.431   4.792   7.491 -0.7071 -1.1052  0.1702
   18MOL   C64113935   2.356   4.808   7.614  0.3959 -0.1542  0.0700
   18MOL   C64213936   2.291   4.692   7.675 -0.1895 -0.1187  0.6114
   18MOL   O64313937   2.337   4.578   7.673 -0.5800  0.1251  0.4319
   18MOL   O64413938   2.164   4.721   7.710 -0.6637  0.9068 -0.6473
   18MOL   C64513939   2.346   4.938   7.673  0.4654  0.4788  0.7147
   18MOL   C64613940   2.396   5.044   7.602  0.2630 -0.4559  0.1707
   18MOL   H64713941   2.539   5.018   7.048 -1.7015  0.6083  1.2933
   18MOL   H64813942   2.657   5.100   6.955  0.5139  2.4741  0.0981
   18MOL   H64913943   2.514   5.003   6.787 -2.0775 -1.1432  0.1155
   18MOL   H65013944   2.376   5.061   6.873  0.9515 -1.3030  1.8494
   18MOL   H65113945   2.572   5.245   6.729 -0.9678 -0.7086 -1.6502
   18MOL   H65213946   2.272   5.163   6.673 -0.0548 -0.0660 -0.2809
   18MOL   H65313947   2.358   5.271   6.578  2.0793  2.0858  1.9611
   18MOL   H65413948   2.435   5.426   6.798 -0.4287 -0.6012 -1.3837
   18MOL   H65513949   2.324   5.337   6.879  0.6628 -1.1810  0.2478
   18MOL   H65613950   2.489   5.430   7.039  0.1631 -1.2938  1.4739
   18MOL   H65713951   2.627   5.348   6.945  0.7746 -2.7106  1.8721
   18MOL   H65813952   2.409   5.218   7.104 -0.1359  0.7479 -0.2551
   18MOL   H65913953   2.702   5.232   7.180 -0.2335  1.7332  0.0616
   18MOL   H66013954   2.580   5.333   7.252 -1.8893 -1.3758  1.9484
   18MOL   H66113955   2.556   4.897   7.342 -0.7600  1.7083 -0.0775
   18MOL   H66213956   2.442   4.693   7.449 -0.1233 -0.3533 -1.4923
   18MOL   H66313957   2.299   4.953   7.769  0.6695 -0.1135  0.9110
   18MOL   H66413958   2.389   5.143   7.644  0.4708 -0.4976  0.3037
   18MOL   C66513959   1.857   4.408   0.041 -1.1106  0.1804 -0.0097
   18MOL   C66613960   1.975   4.454   7.991 -0.1560  0.2392  0.2012
   18MOL   C66713961   1.969   4.611   7.988 -0.3664 -0.4416 -0.6221
   18MOL   C66813962   2.093   4.672   7.925 -0.8490  0.3018 -0.1151
   18MOL   O66913963   2.095   4.615   7.794 -0.2320 -0.2825 -0.1137
   18MOL   C67013964   1.833   4.659   7.938 -0.0264 -0.3754  0.1642
   18MOL   C67113965   1.711   4.595   7.994  0.2524 -0.3173  0.3413
   18MOL   C67213966   1.724   4.442   8.006 -0.0962 -0.2625 -0.2592
   18MOL   C67313967   1.606   4.393   0.044 -1.0048  0.3515  0.6544
   18MOL   O67413968   1.594   4.256   0.033 -0.5139  0.0212  0.4614
   18MOL   C67513969   1.500   4.189   0.105 -0.2441 -0.2222 -0.4886
   18MOL   O67613970   1.419   4.242   0.185 -0.3435  0.9366  0.0264
   18MOL   C67713971   1.507   4.043   0.082 -0.3099  0.6568 -0.9264
   18MOL   C67813972   1.413   3.960   0.146  0.2227  0.2545 -0.3716
   18MOL   C67913973   1.410   3.824   0.120 -0.2433 -0.5711 -1.1177
   18MOL   C68013974   1.485   3.774   0.011  0.2979 -0.9715 -0.5902
   18MOL   C68113975   1.461   3.634   8.001  0.3612 -0.3337  0.3606
   18MOL   O68213976   1.373   3.563   0.011  0.2469  0.3107  0.2941
   18MOL   O68313977   1.538   3.585   7.899  0.2604 -0.0779  0.2480
   18MOL   C68413978   1.584   3.850   7.980  0.5765 -0.2998  0.8317
   18MOL   C68513979   1.594   3.989   8.017 -0.3077 -0.3394 -0.2588
   18MOL   H68613980   1.856   4.300   0.052  1.8711  0.2285  1.0032
   18MOL   H68713981   1.863   4.459   0.137  0.4453 -0.0357  0.0115
   18MOL   H68813982   2.070   4.427   0.001  0.6886  2.5227 -0.1117
   18MOL   H68913983   1.978   4.418   7.888 -0.5193 -2.4888  1.0984
   18MOL   H69013984   1.986   4.648   0.054 -0.5251  2.3117 -1.5748
   18MOL   H69113985   2.085   4.780   7.923 -0.7874  0.3105  0.0805
   18MOL   H69213986   2.185   4.639   7.973 -0.7849 -0.0854 -0.4957
   18MOL   H69313987   1.821   4.767   7.948  0.4782 -0.3836  0.8162
   18MOL   H69413988   1.825   4.642   7.830 -1.0832 -0.9234  0.3191
   18MOL   H69513989   1.620   4.620   7.939 -1.2565 -0.7147  2.5714
   18MOL   H69613990   1.708   4.642   0.057  1.1132 -2.4922  1.4372
   18MOL   H69713991   1.716   4.403   7.904  1.3481 -1.5992  0.1243
   18MOL   H69813992   1.615   4.430   0.146 -0.6649 -2.0910  1.5497
   18MOL   H69913993   1.521   4.450   0.006 -1.7122 -1.0929  0.0524
   18MOL   H70013994   1.345   4.001   0.219  1.3407 -0.4325  1.0770
   18MOL   H70113995   1.331   3.768   0.168  0.6541 -0.8419  0.0651
   18MOL   H70213996   1.641   3.811   7.896  0.8973 -0.7026  1.2352
   18MOL   H70313997   1.652   4.059   7.958 -0.3928 -1.6029 -1.8859
   18MOL   C70413998   1.912   3.302   0.211 -0.3802  0.1352  0.3630
   18MOL   C70513999   1.856   3.371   0.085 -0.8171  0.4510  0.4519
   18MOL   C70614000   1.711   3.344   0.035  0.2320 -0.0099 -0.5348
   18MOL   C70714001   1.686   3.399   7.930 -0.9083  0.4851 -0.1129
   18MOL   O70814002   1.549   3.432   7.902 -0.3191  0.1696  0.1636
   18MOL   C70914003   1.678   3.194   0.046  0.2175 -0.2933  0.6126
   18MOL   C71014004   1.715   3.137   0.189 -0.2667 -0.1767  0.1157
   18MOL   C71114005   1.862   3.162   0.235  0.5941  0.1707 -0.3100
   18MOL   C71214006   1.886   3.118   0.383  0.1432  0.3668  0.2972
   18MOL   O71314007   1.823   3.203   0.480 -1.1008  0.4416  0.0013
   18MOL   C71414008   1.803   3.151   0.604  0.4025 -0.1285 -0.1415
   18MOL   O71514009   1.840   3.036   0.643 -0.0813 -0.1286  0.0046
   18MOL   C71614010   1.725   3.243   0.686  0.4660 -0.0261  0.3544
   18MOL   C71714011   1.707   3.377   0.649  0.5454  0.2521  0.0347
   18MOL   C71814012   1.612   3.457   0.721  0.3408  0.8113 -1.2592
   18MOL   C71914013   1.542   3.404   0.833 -0.1349 -1.0474  0.1228
   18MOL   C72014014   1.445   3.493   0.907  0.2157 -0.1031  0.2239
   18MOL   O72114015   1.420   3.606   0.866  0.3988  0.5410 -0.4150
   18MOL   O72214016   1.395   3.431   1.014  0.2125 -0.3158 -0.2369
   18MOL   C72314017   1.572   3.266   0.865 -0.0439  0.1677  0.2099
   18MOL   C72414018   1.660   3.184   0.794  0.1901 -0.0743 -0.7036
   18MOL   H72514019   2.020   3.317   0.212 -0.5535  1.3308  1.6687
   18MOL   H72614020   1.878   3.369   0.290  1.0141  2.3001 -0.8461
   18MOL   H72714021   1.858   3.479   0.091  2.9086  0.4566  0.3593
   18MOL   H72814022   1.918   3.336   0.002 -1.1563 -0.6324  0.6380
   18MOL   H72914023   1.648   3.394   0.109  0.3539 -2.8285  1.5648
   18MOL   H73014024   1.746   3.481   7.891  0.2562 -0.4088 -0.2336
   18MOL   H73114025   1.698   3.326   7.850 -0.7079  0.3111  0.0732
   18MOL   H73214026   1.570   3.180   0.044 -0.0117  1.1105  2.0075
   18MOL   H73314027   1.730   3.139   8.003  0.5696 -0.8963  1.2601
   18MOL   H73414028   1.682   3.036   0.213 -2.6581  0.3408 -0.8421
   18MOL   H73514029   1.650   3.189   0.259  0.3246 -0.1295  0.6292
   18MOL   H73614030   1.912   3.089   0.170  0.4865 -0.6508  0.5182
   18MOL   H73714031   1.856   3.013   0.381  0.0858  0.3789  0.6153
   18MOL   H73814032   1.994   3.127   0.396  0.1193 -0.9351  1.4797
   18MOL   H73914033   1.758   3.427   0.567  0.4314  2.5726  1.3153
   18MOL   H74014034   1.595   3.559   0.690 -0.5187  0.3171 -2.4554
   18MOL   H74114035   1.520   3.209   0.941  0.0867  0.5963  0.6230
   18MOL   H74214036   1.678   3.080   0.818 -2.0624 -0.0755  1.1143
   18MOL   C74314037   0.873   3.530   1.347  0.8053 -0.2235 -0.3722
   18MOL   C74414038   0.966   3.448   1.247  0.3061  0.8833 -0.4287
   18MOL   C74514039   1.109   3.503   1.235 -0.2381 -0.2363  0.0382
   18MOL   C74614040   1.178   3.471   1.098  0.4363 -0.2013 -0.5664
   18MOL   O74714041   1.314   3.515   1.106  0.1018 -0.1992 -0.6526
   18MOL   C74814042   1.125   3.646   1.267 -0.2309 -0.3529  0.1337
   18MOL   C74914043   1.037   3.705   1.371  0.2880 -0.1031 -0.0169
   18MOL   C75014044   0.888   3.681   1.344  0.0738 -0.0687  0.3338
   18MOL   C75114045   0.804   3.768   1.446  0.8134  0.8734  0.2437
   18MOL   O75214046   0.670   3.760   1.402  0.5782 -0.5078 -0.4227
   18MOL   C75314047   0.618   3.846   1.319  0.8936 -0.4299 -0.4824
   18MOL   O75414048   0.683   3.930   1.263  0.4854  0.8465 -0.0126
   18MOL   C75514049   0.475   3.830   1.306  0.3067 -0.6614 -0.4443
   18MOL   C75614050   0.407   3.711   1.334  0.5326 -0.3959 -0.6995
   18MOL   C75714051   0.272   3.701   1.296  0.2741 -0.0590  0.0186
   18MOL   C75814052   0.203   3.806   1.226  0.1062 -0.2811 -0.3747
   18MOL   C75914053   0.061   3.788   1.180 -0.5425  0.2565  0.4950
   18MOL   O76014054   0.017   3.679   1.148  0.5003  0.0550 -0.1784
   18MOL   O76114055   0.001   3.907   1.166 -0.2048  0.6064  0.2986
   18MOL   C76214056   0.272   3.932   1.214 -0.7083  0.0283 -0.2003
   18MOL   C76314057   0.407   3.935   1.260 -0.0719 -0.5871  0.0848
   18MOL   H76414058   0.769   3.501   1.365  1.5909 -2.4409  0.8698
   18MOL   H76514059   0.920   3.500   1.441 -1.5984 -2.5334  0.1655
   18MOL   H76614060   0.974   3.342   1.272  0.7101  1.2600  1.0477
   18MOL   H76714061   0.918   3.460   1.150 -1.7692  0.3088  0.4927
   18MOL   H76814062   1.166   3.454   1.314 -2.4419 -2.7058  0.1784
   18MOL   H76914063   1.167   3.363   1.092 -0.3063 -0.0514 -2.4608
   18MOL   H77014064   1.139   3.516   1.007 -2.3316 -0.6704  0.3379
   18MOL   H77114065   1.233   3.658   1.275 -0.3178  0.8657 -0.3880
   18MOL   H77214066   1.096   3.715   1.187 -1.0745 -0.5140  0.2884
   18MOL   H77314067   1.062   3.811   1.370  0.1010 -0.0586 -0.0030
   18MOL   H77414068   1.059   3.674   1.474  0.7227  2.4594  0.6964
   18MOL   H77514069   0.858   3.709   1.243  1.3195  1.1837  0.2837
   18MOL   H77614070   0.816   3.724   1.545  3.0315 -0.7919 -0.7147
   18MOL   H77714071   0.839   3.870   1.460  0.5754  1.2283 -1.5900
   18MOL   H77814072   0.456   3.625   1.376 -2.9624 -1.6667  1.0545
   18MOL   H77914073   0.233   3.600   1.296 -0.5599  0.2597 -0.5862
   18MOL   H78014074   0.236   4.023   1.170 -2.1362  0.1419  1.1709
   18MOL   H78114075   0.463   4.023   1.231 -0.1004  0.2291  2.4169
   18MOL   H78214076   7.945   3.903   1.143 -0.3805  1.0866  0.8835
   19MOL     C114077   5.679   6.623   1.358 -0.1694 -0.1254 -0.2361
   19MOL     C214078   5.833   6.625   1.370  0.4108  0.7343 -0.6493
   19MOL     C314079   5.900   6.494   1.331 -0.3506  0.2766 -0.9472
   19MOL     C414080   6.055   6.497   1.353 -0.5621  0.0905 -0.2838
   19MOL     O514081   6.090   6.536   1.487 -0.2894  0.2668  0.2623
   19MOL     C614082   5.844   6.367   1.396  0.0771 -0.1503  0.2970
   19MOL     C714083   5.685   6.371   1.388 -0.6313  0.0076 -0.2862
   19MOL     C814084   5.620   6.504   1.441  0.1345 -0.2913  0.0803
   19MOL     C914085   5.471   6.494   1.436  0.5202  0.0123 -0.1790
   19MOL    O1014086   5.397   6.617   1.472 -0.3115 -0.0482  0.5727
   19MOL    C1114087   5.327   6.671   1.372  0.1804 -0.0739 -0.5404
   19MOL    O1214088   5.311   6.626   1.263 -0.1973  0.0377  0.0834
   19MOL    C1314089   5.265   6.799   1.413 -0.6347  0.3910 -0.6062
   19MOL    C1414090   5.194   6.873   1.312 -0.6530  0.2182 -0.1062
   19MOL    C1514091   5.132   6.990   1.350  0.3284  0.1018 -0.1103
   19MOL    C1614092   5.133   7.033   1.484 -0.0446  1.1933  0.3541
   19MOL    C1714093   5.046   7.158   1.510 -0.3267 -0.1013  0.5768
   19MOL    O1814094   4.978   7.228   1.431 -0.9223 -0.0023 -0.3210
   19MOL    O1914095   5.047   7.201   1.641 -0.1094  0.6348 -0.2062
   19MOL    C2014096   5.181   6.948   1.584  0.3587  0.1379 -0.5718
   19MOL    C2114097   5.259   6.836   1.553  1.2064 -0.0295  0.8586
   19MOL    H2214098   5.624   6.707   1.399 -1.2710 -1.3682  0.8707
   19MOL    H2314099   5.651   6.612   1.253  0.1901  0.5875 -0.4118
   19MOL    H2414100   5.868   6.716   1.321 -0.0724  0.9376 -0.6201
   19MOL    H2514101   5.856   6.642   1.475 -0.4400 -1.3230 -0.1021
   19MOL    H2614102   5.868   6.477   1.229 -1.4408 -0.4808 -0.4878
   19MOL    H2714103   6.108   6.407   1.320 -1.0991  0.9080 -3.5889
   19MOL    H2814104   6.101   6.574   1.291  0.4887  0.5095  0.9997
   19MOL    H2914105   5.885   6.278   1.348  3.5653  1.4969  0.0797
   19MOL    H3014106   5.883   6.354   1.497 -0.8677 -0.0382  0.6841
   19MOL    H3114107   5.649   6.285   1.444  0.1849  0.0181  0.2589
   19MOL    H3214108   5.639   6.342   1.294 -1.4279 -0.1383  0.1423
   19MOL    H3314109   5.656   6.506   1.544 -1.0115  1.3347  0.4779
   19MOL    H3414110   5.441   6.452   1.341  3.5998 -0.7072 -0.9111
   19MOL    H3514111   5.444   6.421   1.512  1.2362 -1.0922 -0.9815
   19MOL    H3614112   5.199   6.843   1.208  0.5116 -1.7247  0.4761
   19MOL    H3714113   5.088   7.058   1.278  1.7859  0.6732 -0.4835
   19MOL    H3814114   5.169   6.970   1.689  0.7582  2.7352 -1.0407
   19MOL    H3914115   5.306   6.772   1.626 -1.1541 -0.0918  2.3734
   19MOL    H4014116   6.127   6.622   1.489  1.0313 -0.3106  3.4032
   19MOL    C4114117   4.994   7.815   1.737 -0.0242  0.7902 -0.1860
   19MOL    C4214118   5.047   7.685   1.682 -0.3421  0.2798  0.3268
   19MOL    C4314119   4.977   7.556   1.716  0.1149 -0.2410  0.7595
   19MOL    C4414120   5.047   7.437   1.652  0.9605 -0.2015  0.0356
   19MOL    O4514121   4.968   7.323   1.671  0.8924  0.2585  0.3082
   19MOL    C4614122   4.951   7.544   1.866  0.4838  0.3117  0.1061
   19MOL    C4714123   4.904   7.678   1.932 -0.0326  0.1203  0.2436
   19MOL    C4814124   4.987   7.805   1.892  0.0056 -0.1551 -0.4836
   19MOL    C4914125   4.931   7.935   1.960  0.4353 -0.0737  1.2955
   19MOL    O5014126   4.802   7.972   1.911  0.2798  0.6419 -0.7264
   19MOL    C5114127   4.723   0.013   1.988  0.0303 -0.6407 -0.3569
   19MOL    O5214128   4.760   0.051   2.096  0.2995  0.7600  0.2499
   19MOL    C5314129   4.591   0.044   1.922 -0.1984  0.0670 -0.3773
   19MOL    C5414130   4.583   0.044   1.779  0.4739 -0.5181 -0.2638
   19MOL    C5514131   4.457   0.056   1.715 -0.0283 -0.7692 -0.3759
   19MOL    C5614132   4.343   0.101   1.790 -0.0007  0.2748 -0.0892
   19MOL    C5714133   4.211   0.141   1.734 -0.5122 -0.0451 -0.5986
   19MOL    O5814134   4.106   0.158   1.799  1.0766  0.0087 -0.0538
   19MOL    O5914135   4.216   0.159   1.600 -0.7136 -0.4318  0.2972
   19MOL    C6014136   4.358   0.117   1.934  0.2429 -0.1142 -0.9360
   19MOL    C6114137   4.476   0.076   1.998  0.0761 -1.1270  0.1551
   19MOL    H6214138   5.056   7.902   1.717 -1.0461  1.6000  0.0895
   19MOL    H6314139   4.898   7.840   1.691 -1.1071  0.7458  1.9876
   19MOL    H6414140   5.055   7.695   1.574 -1.3851 -2.9781 -0.1314
   19MOL    H6514141   5.153   7.679   1.708  0.1368  0.4109 -1.5537
   19MOL    H6614142   4.876   7.568   1.675 -1.1350  0.1849  3.8002
   19MOL    H6714143   5.057   7.459   1.546 -0.1439 -1.4538 -0.3370
   19MOL    H6814144   5.144   7.417   1.698  1.3879  2.0506  0.1991
   19MOL    H6914145   4.877   7.466   1.880  0.2047  0.3451 -1.1236
   19MOL    H7014146   5.046   7.522   1.913 -0.0166 -1.5332  0.2886
   19MOL    H7114147   4.922   7.664   2.039 -0.0821 -0.1922  0.2103
   19MOL    H7214148   4.796   7.687   1.919  0.0746 -1.5728 -2.1193
   19MOL    H7314149   5.091   7.782   1.917 -0.2976 -1.9883 -0.8455
   19MOL    H7414150   4.923   7.908   2.066  0.2849  0.1285  1.3348
   19MOL    H7514151   4.997   8.021   1.945 -1.1448  1.1384  1.1657
   19MOL    H7614152   4.675   0.029   1.726  0.3216 -0.8638 -0.4269
   19MOL    H7714153   4.446   0.037   1.610  2.4850 -0.9658 -0.6497
   19MOL    H7814154   4.277   0.152   1.996  2.3608  2.5711  0.4215
   19MOL    H7914155   4.472   0.089   2.105  2.4853  0.0014  0.1463
   19MOL    C8014156   3.670   0.046   1.550  0.2628 -0.4583 -0.9544
   19MOL    C8114157   3.822   0.041   1.578 -0.3049 -0.2749 -0.4521
   19MOL    C8214158   3.898   0.076   1.442 -0.1201  0.5524 -0.0003
   19MOL    C8314159   4.044   0.086   1.467 -0.3109  0.3639 -0.8363
   19MOL    O8414160   4.080   0.196   1.548  0.2624  0.7311 -0.2738
   19MOL    C8514161   3.863   8.034   1.319  0.4402 -0.1267  0.2764
   19MOL    C8614162   3.714   8.018   1.294 -0.0800  0.3451 -0.1943
   19MOL    C8714163   3.635   7.988   1.421  0.0887  0.4505 -0.3959
   19MOL    C8814164   3.481   7.972   1.410  0.2972  0.4567  0.5442
   19MOL    O8914165   3.419   0.073   1.409  0.6613 -0.2258 -0.2639
   19MOL    C9014166   3.335   0.117   1.315 -0.3782  0.0443 -0.4334
   19MOL    O9114167   3.281   0.045   1.229 -0.0456  0.3951 -0.4643
   19MOL    C9214168   3.297   0.262   1.330  0.0477 -0.3953  0.6111
   19MOL    C9314169   3.207   0.319   1.240 -0.3108  0.1553  0.1378
   19MOL    C9414170   3.168   0.450   1.262  0.2582 -0.2024 -0.1506
   19MOL    C9514171   3.216   0.534   1.369 -0.0150  0.6044 -0.5832
   19MOL    C9614172   3.166   0.671   1.388  0.6378 -0.8084 -0.1827
   19MOL    O9714173   3.084   0.727   1.315  0.2207  0.2017 -0.2342
   19MOL    O9814174   3.216   0.742   1.497 -0.4462  0.0425 -0.4064
   19MOL    C9914175   3.302   0.468   1.456  0.2393  0.5136 -0.1347
   19MOL   C10014176   3.351   0.338   1.435  0.1699  0.0096  0.0109
   19MOL   H10114177   3.615   0.010   1.637  0.2719  1.7915  0.0362
   19MOL   H10214178   3.640   0.148   1.527 -0.8279 -0.9951 -1.9604
   19MOL   H10314179   3.840   0.108   1.663  1.6204 -0.5061 -0.6563
   19MOL   H10414180   3.841   7.976   1.615 -2.3719 -1.0716 -1.4754
   19MOL   H10514181   3.858   0.175   1.418  2.1530  1.3050 -0.7867
   19MOL   H10614182   4.069   8.034   1.528 -0.2377  0.0814 -1.2711
   19MOL   H10714183   4.109   0.096   1.380 -0.0590  2.3399 -0.4515
   19MOL   H10814184   3.902   0.051   1.232  3.0527  0.3903  1.7107
   19MOL   H10914185   3.901   7.932   1.324 -0.2386 -0.4117 -0.3011
   19MOL   H11014186   3.689   7.950   1.212 -2.4009  1.4066 -0.4216
   19MOL   H11114187   3.682   0.076   1.248 -0.4943  0.6183  0.6463
   19MOL   H11214188   3.666   7.888   1.450  0.2168  0.3139 -0.9968
   19MOL   H11314189   3.455   7.921   1.317 -2.1987  0.8421  0.9803
   19MOL   H11414190   3.424   7.920   1.487 -0.4631 -0.7795 -0.8122
   19MOL   H11514191   3.161   0.258   1.163 -0.6618  2.4996 -1.5682
   19MOL   H11614192   3.102   0.496   1.190  0.8550  0.2565 -0.4072
   19MOL   H11714193   3.337   0.527   1.540  1.1121 -0.7448  0.4036
   19MOL   H11814194   3.438   0.305   1.490 -0.1752  0.8891  1.1070
   19MOL   C11914195   3.410   0.975   1.845 -0.0340  0.0593  0.0903
   19MOL   C12014196   3.356   1.023   1.715 -0.4639  0.4445 -0.9946
   19MOL   C12114197   3.418   0.933   1.601 -0.3559 -0.3609 -0.2497
   19MOL   C12214198   3.349   0.940   1.459  0.2629  0.0987 -0.8120
   19MOL   O12314199   3.211   0.891   1.479 -0.0906  0.4232  0.3550
   19MOL   C12414200   3.565   0.967   1.599 -0.8404 -0.1538 -0.2806
   19MOL   C12514201   3.629   0.912   1.724 -0.2681  0.0234  0.5614
   19MOL   C12614202   3.569   0.977   1.852  0.5443 -0.9578 -0.4944
   19MOL   C12714203   3.607   0.923   1.989 -0.1824 -0.0421  0.0827
   19MOL   O12814204   3.553   0.797   2.017  0.6644 -0.3694 -0.3811
   19MOL   C12914205   3.574   0.733   2.140 -0.9006 -0.2914  0.7342
   19MOL   O13014206   3.671   0.765   2.210 -0.5267 -0.6298 -0.4845
   19MOL   C13114207   3.494   0.618   2.163 -0.1019 -0.3604 -0.8693
   19MOL   C13214208   3.542   0.514   2.242  0.4789 -0.0492 -0.5986
   19MOL   C13314209   3.453   0.404   2.275 -0.3936  0.7248 -0.1234
   19MOL   C13414210   3.321   0.402   2.228 -0.0020 -0.1272  0.0683
   19MOL   C13514211   3.220   0.296   2.264  0.2929 -0.4485 -0.3207
   19MOL   O13614212   3.100   0.307   2.250  0.3208  0.1775 -0.2462
   19MOL   O13714213   3.278   0.182   2.302  0.0069  0.0381  0.6085
   19MOL   C13814214   3.280   0.510   2.138 -0.0735 -0.7811 -0.2771
   19MOL   C13914215   3.365   0.618   2.101  0.3044  0.8193 -0.2478
   19MOL   H14014216   3.377   1.026   1.936 -3.7288  2.0634 -2.2410
   19MOL   H14114217   3.370   0.874   1.851 -1.2749  0.5006 -0.6834
   19MOL   H14214218   3.249   1.013   1.728 -0.2211 -0.5490  0.3230
   19MOL   H14314219   3.389   1.126   1.699  3.5011 -0.6995 -0.7413
   19MOL   H14414220   3.408   0.831   1.636  0.9490  0.3441  2.2495
   19MOL   H14514221   3.355   1.046   1.431  2.2360  0.2756  0.1953
   19MOL   H14614222   3.400   0.877   1.386 -2.3842 -0.9300 -1.8175
   19MOL   H14714223   3.618   0.935   1.509  0.0370 -1.4900  0.7054
   19MOL   H14814224   3.586   1.074   1.603 -1.4358 -0.0137 -0.8593
   19MOL   H14914225   3.733   0.941   1.718 -0.3245  0.0493 -0.4973
   19MOL   H15014226   3.629   0.803   1.724 -1.6784  0.0074  0.4586
   19MOL   H15114227   3.590   1.084   1.849 -0.5971 -0.7574 -1.5510
   19MOL   H15214228   3.715   0.928   2.006 -0.3138  0.6825  0.7508
   19MOL   H15314229   3.568   0.997   2.059  0.6147 -1.0123  1.5768
   19MOL   H15414230   3.641   0.511   2.285  1.0763 -0.7988 -1.9902
   19MOL   H15514231   3.494   0.330   2.343 -0.4371  2.5299  1.9373
   19MOL   H15614232   3.184   0.509   2.089  1.1511 -0.7325 -2.7425
   19MOL   H15714233   3.327   0.696   2.036 -1.8629 -0.2648 -0.3269
   19MOL   C15814234   2.851   7.857   2.244 -0.3118 -0.2436  0.3590
   19MOL   C15914235   2.963   7.956   2.215 -1.0453 -0.1920 -0.3998
   19MOL   C16014236   3.105   7.897   2.224  0.1040  0.4115 -0.2196
   19MOL   C16114237   3.211   8.004   2.213  0.1066 -0.1102 -0.0131
   19MOL   O16214238   3.181   0.060   2.310  0.0727 -0.8459 -0.2915
   19MOL   C16314239   3.126   7.828   2.353 -0.5772 -0.6461 -0.0461
   19MOL   C16414240   3.024   7.713   2.377  0.6243  0.2839  0.4327
   19MOL   C16514241   2.884   7.776   2.371 -0.0613 -0.6112  0.8593
   19MOL   C16614242   2.774   7.683   2.406 -0.7650  0.3487 -0.3988
   19MOL   O16714243   2.781   7.589   2.297  0.0320 -0.7039 -0.2397
   19MOL   C16814244   2.696   7.487   2.288  0.4775 -0.1081 -0.0379
   19MOL   O16914245   2.603   7.476   2.369 -0.9839 -1.1174  0.0190
   19MOL   C17014246   2.719   7.410   2.167  0.0150 -0.7260 -0.3974
   19MOL   C17114247   2.623   7.322   2.121  0.8380 -0.1641 -0.0226
   19MOL   C17214248   2.640   7.249   2.002  0.8451  0.4561  0.7536
   19MOL   C17314249   2.754   7.269   1.921 -0.1533  0.1746 -0.2893
   19MOL   C17414250   2.774   7.203   1.791  0.9604 -0.1125 -0.1052
   19MOL   O17514251   2.681   7.146   1.727  0.2586 -0.5746 -0.3591
   19MOL   O17614252   2.906   7.201   1.748  0.0098 -0.7119 -0.1930
   19MOL   C17714253   2.855   7.351   1.972  0.8209 -0.2456 -0.9108
   19MOL   C17814254   2.841   7.421   2.095 -0.0247  0.2134 -0.6145
   19MOL   H17914255   2.755   7.907   2.251 -0.6318 -0.5660 -1.4551
   19MOL   H18014256   2.847   7.795   2.154  1.4849 -1.2266  0.9187
   19MOL   H18114257   2.967   7.988   2.110 -2.6168  1.5971  0.0396
   19MOL   H18214258   2.953   0.007   2.282  0.6286 -0.8247  0.6744
   19MOL   H18314259   3.125   7.831   2.139  2.8395  1.0729 -0.1380
   19MOL   H18414260   3.308   7.960   2.234  0.8298  2.0700  1.3743
   19MOL   H18514261   3.221   0.026   2.121  1.0233 -0.3435 -0.0542
   19MOL   H18614262   3.228   7.789   2.358  0.4859  1.8050 -1.8219
   19MOL   H18714263   3.102   7.887   2.442 -0.9361 -1.4394  0.3925
   19MOL   H18814264   3.044   7.668   2.474  0.1239 -0.1490  0.3368
   19MOL   H18914265   3.047   7.644   2.296  0.2400 -0.2313  0.7645
   19MOL   H19014266   2.879   7.842   2.457  1.5483  0.8978 -0.1647
   19MOL   H19114267   2.789   7.634   2.502 -1.8490  0.1321 -0.3293
   19MOL   H19214268   2.681   7.740   2.414 -1.2414 -0.6250  1.1748
   19MOL   H19314269   2.535   7.310   2.183  0.6694  1.9019  0.1905
   19MOL   H19414270   2.573   7.169   1.974  0.7183 -0.0617  2.5279
   19MOL   H19514271   2.948   7.359   1.917  0.5296  0.9703 -1.2507
   19MOL   H19614272   2.920   7.486   2.131 -0.3716  0.9157 -1.1123
   19MOL   C19714273   2.961   7.337   1.141 -0.6972  0.3882 -0.7947
   19MOL   C19814274   2.932   7.378   1.285  0.1201  0.2527 -0.3905
   19MOL   C19914275   2.933   7.263   1.383  0.5220 -0.1298 -1.0883
   19MOL   C20014276   2.913   7.301   1.531  0.3466 -0.0515 -0.0588
   19MOL   O20114277   2.920   7.180   1.603 -0.7715  0.4823 -0.4811
   19MOL   C20214278   2.814   7.166   1.344  0.3689  0.1151  0.0021
   19MOL   C20314279   2.830   7.129   1.192  0.2754  0.0958 -1.1558
   19MOL   C20414280   2.852   7.248   1.100 -0.3997  0.5642 -0.7743
   19MOL   C20514281   2.886   7.197   0.964 -0.1702 -0.0762  0.3097
   19MOL   O20614282   2.798   7.087   0.925  0.4254  0.0911 -0.3099
   19MOL   C20714283   2.765   7.054   0.802 -0.2658  0.0192  0.4493
   19MOL   O20814284   2.798   7.118   0.702 -0.0992  0.1792 -0.0681
   19MOL   C20914285   2.677   6.933   0.799 -0.1235  0.2165 -0.2082
   19MOL   C21014286   2.638   6.866   0.918 -0.0645  0.1546  0.4742
   19MOL   C21114287   2.552   6.761   0.916  0.1748 -0.2677  0.6053
   19MOL   C21214288   2.505   6.715   0.792 -0.2988 -0.0347  0.2147
   19MOL   C21314289   2.414   6.596   0.796 -0.9095 -0.0646  0.3108
   19MOL   O21414290   2.378   6.548   0.901  0.4584  0.2682  0.3739
   19MOL   O21514291   2.376   6.549   0.669  0.0739  0.1236  0.6040
   19MOL   C21614292   2.536   6.775   0.669  0.7567  1.0520 -0.3399
   19MOL   C21714293   2.627   6.886   0.672  0.5493 -0.4075  0.3418
   19MOL   H21814294   2.970   7.424   1.077 -1.6706 -0.8841 -2.7055
   19MOL   H21914295   3.062   7.294   1.137 -0.0622  1.7150  0.3876
   19MOL   H22014296   3.009   7.451   1.309 -1.3777  2.0477 -0.9009
   19MOL   H22114297   2.840   7.436   1.276 -0.5718 -1.1608 -2.7652
   19MOL   H22214298   3.030   7.214   1.385  0.4093 -0.3198  0.6242
   19MOL   H22314299   2.992   7.372   1.555 -1.0735  1.9490 -1.1299
   19MOL   H22414300   2.818   7.350   1.554  0.1013  0.8262 -2.7715
   19MOL   H22514301   2.802   7.082   1.413 -0.2991  1.3551  1.4213
   19MOL   H22614302   2.726   7.229   1.354  1.9899  2.5124 -0.1690
   19MOL   H22714303   2.737   7.082   1.161 -1.0250  1.4599  0.5954
   19MOL   H22814304   2.913   7.058   1.189  0.9294  0.5135  3.1843
   19MOL   H22914305   2.760   7.304   1.085 -1.7543 -1.9380 -2.0937
   19MOL   H23014306   2.881   7.277   0.891  1.2630  0.6904  1.0335
   19MOL   H23114307   2.987   7.155   0.970 -0.0386  0.1731 -0.1459
   19MOL   H23214308   2.683   6.887   1.013 -1.4153  0.1478  1.1329
   19MOL   H23314309   2.527   6.710   1.008  1.0693 -2.6227 -0.4349
   19MOL   H23414310   2.507   6.740   0.572  0.9028  2.7728 -1.0160
   19MOL   H23514311   2.657   6.930   0.578 -1.4365 -0.3220 -0.2738
   19MOL   C23614312   1.827   6.279   0.608  0.1488 -0.0244  0.1902
   19MOL   C23714313   1.920   6.405   0.615  0.4857 -0.3822 -0.1659
   19MOL   C23814314   2.064   6.366   0.641  0.0946  0.0928  0.4077
   19MOL   C23914315   2.156   6.492   0.654  1.1704  0.2844  0.1538
   19MOL   O24014316   2.287   6.437   0.665 -0.8368  0.0217 -0.3160
   19MOL   C24114317   2.078   6.274   0.758  0.2889  0.6796  0.0304
   19MOL   C24214318   2.000   6.140   0.730  0.3948 -0.0702  0.2978
   19MOL   C24314319   1.852   6.172   0.715 -0.3025 -1.1896  0.3089
   19MOL   C24414320   1.764   6.052   0.685 -0.5112  0.4086  0.0429
   19MOL   O24514321   1.624   6.080   0.688  0.4971  0.2608  0.2336
   19MOL   C24614322   1.546   6.048   0.583 -0.0960 -0.3378 -0.1975
   19MOL   O24714323   1.582   5.961   0.498  0.1915 -0.2856 -0.1710
   19MOL   C24814324   1.418   6.126   0.593  0.5830  0.4806 -0.1990
   19MOL   C24914325   1.386   6.205   0.706 -0.0250 -0.0211 -0.7037
   19MOL   C25014326   1.257   6.268   0.707  0.3275  0.0088 -0.3720
   19MOL   C25114327   1.173   6.261   0.597  0.2403  0.5649 -0.0668
   19MOL   C25214328   1.032   6.306   0.627 -0.1420 -0.6987  0.9241
   19MOL   O25314329   0.988   6.376   0.723  0.0700 -0.4784  0.6108
   19MOL   O25414330   0.955   6.271   0.528 -0.2794 -0.7568  0.0593
   19MOL   C25514331   1.214   6.192   0.484  0.2751 -0.7530 -0.4647
   19MOL   C25614332   1.334   6.127   0.483 -0.5265 -0.3144 -0.4602
   19MOL   H25714333   1.726   6.321   0.598  0.8677  1.3637 -1.4609
   19MOL   H25814334   1.853   6.239   0.511  2.1008  0.7076  0.3976
   19MOL   H25914335   1.894   6.473   0.534 -0.6038  0.1730  0.6234
   19MOL   H26014336   1.877   6.451   0.704  1.0190  1.2744 -0.7506
   19MOL   H26114337   2.093   6.315   0.550 -0.4922 -0.1163  0.3423
   19MOL   H26214338   2.144   6.549   0.561  1.3372  1.8089  1.0457
   19MOL   H26314339   2.137   6.567   0.731  0.1150 -0.8748  1.0500
   19MOL   H26414340   2.186   6.259   0.760  0.1064 -1.1350 -2.0340
   19MOL   H26514341   2.038   6.326   0.845  0.5011  2.2860 -0.8096
   19MOL   H26614342   2.027   6.060   0.799 -1.6895  0.0846  1.3382
   19MOL   H26714343   2.035   6.099   0.636  1.5277 -0.9900  1.1105
   19MOL   H26814344   1.814   6.214   0.809 -0.5202  2.0209 -1.1356
   19MOL   H26914345   1.793   6.000   0.593 -0.5266 -0.7412  0.6772
   19MOL   H27014346   1.788   5.980   0.763 -2.8193 -0.8191 -0.3340
   19MOL   H27114347   1.458   6.226   0.784 -1.5384 -1.0205  1.0074
   19MOL   H27214348   1.234   6.329   0.794 -1.6741 -0.9280 -0.2146
   19MOL   H27314349   1.154   6.194   0.394  0.3380 -2.6856 -0.5866
   19MOL   H27414350   1.353   6.065   0.397  0.3034  1.4971 -1.6068
   19MOL   C27514351   0.437   6.539   0.446  0.7912  0.7844 -0.7038
   19MOL   C27614352   0.576   6.520   0.505  0.2691 -0.1093  0.3415
   19MOL   C27714353   0.689   6.493   0.404  0.0304 -1.0275  0.5023
   19MOL   C27814354   0.822   6.460   0.468  0.2725  0.0010  0.1473
   19MOL   O27914355   0.819   6.330   0.531  0.2152  0.4561  0.0377
   19MOL   C28014356   0.647   6.391   0.301  0.0360 -0.4462  0.6492
   19MOL   C28114357   0.503   6.416   0.247 -0.6269  0.0561 -0.3629
   19MOL   C28214358   0.397   6.425   0.357  0.2720  0.0898  0.6411
   19MOL   C28314359   0.257   6.434   0.297  0.0271  0.1310  0.5059
   19MOL   O28414360   0.158   6.409   0.403 -0.3732  0.3223  0.5917
   19MOL   C28514361   0.060   6.316   0.388  0.4502  0.5692  0.4987
   19MOL   O28614362   0.054   6.237   0.299  0.0815 -0.3088 -0.0268
   19MOL   C28714363   7.993   6.318   0.494  0.0380 -0.0389 -0.4382
   19MOL   C28814364   7.858   6.286   0.472  0.2862 -0.1353  0.8531
   19MOL   C28914365   7.767   6.291   0.580 -0.5687 -0.0381  0.7125
   19MOL   C29014366   7.813   6.332   0.710  0.4138 -0.4523  0.1356
   19MOL   C29114367   7.710   6.341   0.813  0.1073  0.2595 -0.1719
   19MOL   O29214368   7.590   6.340   0.793  0.2277  0.7882  0.3266
   19MOL   O29314369   7.755   6.343   0.943 -0.1355  0.2319  0.4161
   19MOL   C29414370   7.947   6.365   0.734 -0.4067  0.3921 -0.5990
   19MOL   C29514371   8.035   6.359   0.622 -0.1730 -0.0660 -1.0171
   19MOL   H29614372   0.368   6.547   0.531  0.3625 -2.4804 -0.6992
   19MOL   H29714373   0.434   6.636   0.396 -0.4246  1.3669  0.4487
   19MOL   H29814374   0.596   6.612   0.561  0.6181 -0.0138  0.0594
   19MOL   H29914375   0.573   6.443   0.583  1.6200  1.2632  1.8156
   19MOL   H30014376   0.717   6.582   0.347 -0.1198 -2.0632 -1.2238
   19MOL   H30114377   0.896   6.472   0.389  0.8619 -0.2857  0.6574
   19MOL   H30214378   0.831   6.531   0.550  0.5114 -0.2144  0.3067
   19MOL   H30314379   0.724   6.394   0.224 -0.3020 -0.4633  0.3078
   19MOL   H30414380   0.651   6.295   0.353  1.9098 -1.4063 -1.2156
   19MOL   H30514381   0.479   6.333   0.182 -0.5236 -0.2523 -0.0119
   19MOL   H30614382   0.497   6.497   0.174 -0.2001 -0.5356 -1.0617
   19MOL   H30714383   0.396   6.335   0.418 -2.6070 -1.3648 -1.4301
   19MOL   H30814384   0.252   6.536   0.260  0.5201 -0.5220 -1.4065
   19MOL   H30914385   0.240   6.360   0.219 -0.3794  1.4053 -0.6354
   19MOL   H31014386   7.821   6.255   0.375  0.2069  0.9942  0.5149
   19MOL   H31114387   7.665   6.256   0.574 -0.5124  0.2369 -2.5590
   19MOL   H31214388   7.984   6.393   0.832  0.9857  1.1331 -1.3075
   19MOL   H31314389   0.103   6.386   0.637 -0.5530  0.4084  0.9252
   19MOL   C31414390   7.612   6.631   1.458  0.1398 -0.3376  0.7224
   19MOL   C31514391   7.604   6.639   1.307 -0.2195 -0.2068 -0.4549
   19MOL   C31614392   7.650   6.501   1.248  0.7139 -0.3471  0.1397
   19MOL   C31714393   7.657   6.512   1.091  0.6863 -0.4583 -0.3520
   19MOL   O31814394   7.650   6.375   1.050 -0.5664 -0.2062  0.4678
   19MOL   C31914395   7.793   6.467   1.298 -0.3435 -0.0207 -0.6660
   19MOL   C32014396   7.803   6.469   1.455 -0.0049  0.6913 -0.2504
   19MOL   C32114397   7.747   6.597   1.516  0.1920  0.6700 -0.5715
   19MOL   C32214398   7.746   6.596   1.669  0.4953  0.1479  0.2578
   19MOL   O32314399   7.877   6.555   1.714 -0.0644 -0.0181 -0.6156
   19MOL   C32414400   7.897   6.560   1.846  0.0716 -0.8568  0.2147
   19MOL   O32514401   7.807   6.592   1.923 -0.7175  0.2661  0.0353
   19MOL   C32614402   8.030   6.511   1.883  0.1874  0.2815  0.1870
   19MOL   C32714403   0.046   6.526   2.017  0.3632 -0.1852  0.5561
   19MOL   C32814404   0.168   6.485   2.058 -0.7814  0.0898  0.3227
   19MOL   C32914405   0.251   6.404   1.965 -0.1101 -0.4880 -0.0439
   19MOL   C33014406   0.378   6.348   2.001 -0.2981  0.4471  0.0623
   19MOL   O33114407   0.452   6.292   1.916 -0.4565  0.0437  0.3351
   19MOL   O33214408   0.418   6.368   2.127 -0.1241  0.4066  0.6069
   19MOL   C33314409   0.200   6.380   1.837 -0.3985  0.4964  0.1643
   19MOL   C33414410   0.077   6.438   1.799 -0.0985 -0.6304  0.2063
   19MOL   H33514411   7.569   6.707   1.523 -0.9406  0.2048 -0.5880
   19MOL   H33614412   7.545   6.549   1.484  0.9022 -0.0308  3.8587
   19MOL   H33714413   7.506   6.683   1.287  0.1127  1.4490  1.3780
   19MOL   H33814414   7.665   6.718   1.263  1.6073 -0.5721  1.3417
   19MOL   H33914415   7.575   6.431   1.284  1.1659  0.1804  2.2228
   19MOL   H34014416   7.568   6.558   1.049  1.3635  0.5733 -0.6984
   19MOL   H34114417   7.748   6.566   1.062  2.2432 -2.7718  0.1341
   19MOL   H34214418   7.812   6.364   1.267 -0.3278 -0.0843 -0.4491
   19MOL   H34314419   7.870   6.530   1.254  2.1145 -2.2261  0.3259
   19MOL   H34414420   7.906   6.458   1.486 -0.3268  1.6311  1.2082
   19MOL   H34514421   7.756   6.388   1.512 -1.8053  1.1693 -1.0338
   19MOL   H34614422   7.811   6.682   1.491  0.6221  0.7098  0.6638
   19MOL   H34714423   7.722   6.694   1.710  0.0638  0.7427 -1.4005
   19MOL   H34814424   7.680   6.517   1.706 -1.7228  1.5488 -0.6176
   19MOL   H34914425   8.020   6.574   2.092 -2.8995 -0.2438 -1.9248
   19MOL   H35014426   0.194   6.501   2.161 -0.7391  0.0805  0.3137
   19MOL   H35114427   0.256   6.318   1.768  2.7110  1.6627  1.5213
   19MOL   H35214428   0.036   6.426   1.700 -1.5836 -2.9645  1.0568
   19MOL   C35314429   0.974   6.206   2.274  0.7930  0.0018  0.1373
   19MOL   C35414430   0.828   6.275   2.279  0.7503 -1.0078  0.2302
   19MOL   C35514431   0.801   6.350   2.146  0.2802 -0.1056 -0.2228
   19MOL   C35614432   0.651   6.408   2.138  0.0138  0.2534  0.9110
   19MOL   O35714433   0.552   6.310   2.167  0.1334  0.1570 -0.7289
   19MOL   C35814434   0.913   6.458   2.120 -0.3145 -0.4394 -0.0236
   19MOL   C35914435   1.049   6.384   2.118  0.3442 -0.0309  0.1796
   19MOL   C36014436   1.076   6.312   2.252  0.4863 -0.1873  0.7361
   19MOL   C36114437   1.228   6.258   2.265 -0.1914  0.4293  0.3676
   19MOL   O36214438   1.313   6.375   2.255  0.5725  0.3533  0.4100
   19MOL   C36314439   1.364   6.434   2.370  0.1533 -0.5122  0.2680
   19MOL   O36414440   1.355   6.391   2.483  0.0194 -0.5800  0.4133
   19MOL   C36514441   1.437   6.562   2.355  0.7050 -0.1350 -0.1338
   19MOL   C36614442   1.448   6.644   2.468  0.5853  0.0169 -0.4207
   19MOL   C36714443   1.513   6.762   2.459  0.1700 -0.2760 -0.2389
   19MOL   C36814444   1.561   6.812   2.338  0.3545  0.7601  0.3480
   19MOL   C36914445   1.613   6.951   2.338  0.1552 -0.4353 -0.1200
   19MOL   O37014446   1.599   7.024   2.436  0.1877 -0.3920 -0.8193
   19MOL   O37114447   1.670   6.988   2.219 -0.2507 -0.4641 -0.0044
   19MOL   C37214448   1.551   6.734   2.222  0.4791  0.0851 -0.5079
   19MOL   C37314449   1.491   6.603   2.234 -0.2438  0.0132  0.0898
   19MOL   H37414450   0.996   6.169   2.374 -3.2014 -0.7094  0.8523
   19MOL   H37514451   0.982   6.126   2.201  0.3717 -0.2418  0.3576
   19MOL   H37614452   0.755   6.197   2.297 -1.4858  1.2531  1.2997
   19MOL   H37714453   0.819   6.345   2.362  2.1356  0.0251 -0.4614
   19MOL   H37814454   0.804   6.279   2.064  1.9198  1.8062 -1.8789
   19MOL   H37914455   0.643   6.484   2.215  0.0360  2.3669 -1.1191
   19MOL   H38014456   0.636   6.457   2.042  2.0639 -0.5528  0.1335
   19MOL   H38114457   0.900   6.521   2.032  1.7418 -0.2005 -0.1769
   19MOL   H38214458   0.896   6.517   2.209 -1.8617  1.2091 -1.3719
   19MOL   H38314459   1.129   6.458   2.111  0.2561  0.0856  0.4046
   19MOL   H38414460   1.068   6.326   2.028  0.0552 -0.8790  0.6585
   19MOL   H38514461   1.054   6.381   2.334  1.6583  2.4313 -1.0976
   19MOL   H38614462   1.253   6.204   2.357 -1.4588  0.0211  0.4795
   19MOL   H38714463   1.251   6.195   2.180 -0.2111 -0.2899  0.8888
   19MOL   H38814464   1.397   6.611   2.557  3.6415 -1.0700  0.9801
   19MOL   H38914465   1.511   6.823   2.549  1.6685 -0.1949 -0.2505
   19MOL   H39014466   1.580   6.766   2.123  0.0553  0.6582 -0.4482
   19MOL   H39114467   1.479   6.536   2.150 -1.5502  1.3508 -0.8198
   19MOL   C39214468   1.564   7.612   2.192 -0.1515 -0.2280 -0.3917
   19MOL   C39314469   1.532   7.461   2.177 -0.4283 -0.5104 -0.3801
   19MOL   C39414470   1.651   7.367   2.206  0.1801  0.2885 -0.6287
   19MOL   C39514471   1.623   7.221   2.173 -0.5051  0.1237 -0.1854
   19MOL   O39614472   1.724   7.131   2.215  0.0774 -1.0497 -0.0400
   19MOL   C39714473   1.773   7.413   2.125  0.0581 -0.5698  0.4357
   19MOL   C39814474   1.795   7.561   2.146  0.1579  0.2842  0.3756
   19MOL   C39914475   1.675   7.648   2.099  0.5811 -0.0355 -0.1749
   19MOL   C40014476   1.715   7.797   2.090 -0.6246  0.0523 -0.8464
   19MOL   O40114477   1.761   7.841   2.223  0.4270  0.3271 -0.0522
   19MOL   C40214478   1.682   7.912   2.306  0.1088  0.4983 -0.4300
   19MOL   O40314479   1.564   7.945   2.284  0.0803  0.1643  0.6614
   19MOL   C40414480   1.750   7.930   2.441 -0.0599  0.1741 -0.3471
   19MOL   C40514481   1.880   7.885   2.469  0.1254 -0.2184  0.2476
   19MOL   C40614482   1.944   7.904   2.592  0.2239 -0.1940  0.9393
   19MOL   C40714483   1.876   7.965   2.695  0.6346 -0.2275 -0.3383
   19MOL   C40814484   1.941   7.999   2.822 -0.5385  0.3766 -0.8019
   19MOL   O40914485   1.882   0.025   2.910 -0.0847  0.2095  0.1796
   19MOL   O41014486   2.065   7.952   2.838 -0.3366  0.1259 -0.6494
   19MOL   C41114487   1.738   8.003   2.676 -0.2937 -0.5753  0.5324
   19MOL   C41214488   1.674   7.987   2.549  0.1089  0.5375  0.3798
   19MOL   H41314489   1.477   7.676   2.178 -0.8123 -0.4083  2.5386
   19MOL   H41414490   1.603   7.628   2.292 -1.6923  0.5629  0.0986
   19MOL   H41514491   1.450   7.436   2.245 -1.1740  1.6306 -0.4517
   19MOL   H41614492   1.495   7.432   2.079  1.0749 -0.9275 -0.8361
   19MOL   H41714493   1.682   7.367   2.311 -1.8797  1.6987  0.0203
   19MOL   H41814494   1.537   7.195   2.236  0.4442 -2.4463  0.0889
   19MOL   H41914495   1.591   7.203   2.071  0.0853  0.6012 -0.4525
   19MOL   H42014496   1.855   7.353   2.164 -1.9504 -3.1014  0.8899
   19MOL   H42114497   1.769   7.384   2.020 -1.0881 -4.3906  1.4493
   19MOL   H42214498   1.887   7.601   2.101  0.5911  0.1451  1.1268
   19MOL   H42314499   1.823   7.578   2.250  1.7174  1.5821 -0.2351
   19MOL   H42414500   1.653   7.626   1.994 -0.7158  1.8179 -0.3063
   19MOL   H42514501   1.796   7.801   2.017 -0.3719  0.7623 -0.5434
   19MOL   H42614502   1.639   7.864   2.051 -2.0397 -1.1271 -0.1314
   19MOL   H42714503   1.942   7.839   2.392 -2.5525 -1.7506 -1.0664
   19MOL   H42814504   2.045   7.868   2.602 -0.0126 -0.6288  1.8315
   19MOL   H42914505   1.676   0.002   2.757  0.2127 -0.9056  1.0694
   19MOL   H43014506   1.573   8.018   2.529 -0.2105 -1.3914 -1.2095
   19MOL   C43114507   2.200   7.897   3.438 -0.4486 -0.9815  0.1204
   19MOL   C43214508   2.148   7.852   3.301  0.3062 -0.1393 -0.1643
   19MOL   C43314509   2.170   7.961   3.193 -0.5046 -0.6515 -0.5150
   19MOL   C43414510   2.101   7.912   3.065  0.6365 -1.0611 -0.7627
   19MOL   O43514511   2.131   8.000   2.962 -0.8101  0.1191  0.1322
   19MOL   C43614512   2.118   0.069   3.229  0.6787 -0.1481 -0.0314
   19MOL   C43714513   2.168   0.111   3.368  0.1363  0.1753  0.2146
   19MOL   C43814514   2.142   0.001   3.479 -0.1099 -0.1714 -0.0104
   19MOL   C43914515   2.200   0.053   3.617  0.7084  0.5098  0.0545
   19MOL   O44014516   2.160   7.997   3.720  0.2475 -0.1184 -0.5082
   19MOL   C44114517   2.203   8.021   3.848  0.4351  0.0447  0.0525
   19MOL   O44214518   2.294   0.066   3.876 -0.0738  0.2305 -0.2142
   19MOL   C44314519   2.140   7.931   3.950  0.4612  0.5323  0.3445
   19MOL   C44414520   2.033   7.847   3.916 -0.0821 -0.6989  1.3053
   19MOL   C44514521   1.977   7.763   4.015 -0.4475 -0.5984  0.5506
   19MOL   C44614522   2.034   7.754   4.148  0.5229  0.2794  0.1177
   19MOL   C44714523   1.987   7.654   4.241 -0.4682 -0.4105 -0.2717
   19MOL   O44814524   2.004   7.669   4.364 -0.2597 -0.1520 -0.2207
   19MOL   O44914525   1.934   7.543   4.188  0.0344  0.2138  0.3373
   19MOL   C45014526   2.142   7.844   4.176 -0.2899 -0.2892 -0.2898
   19MOL   C45114527   2.194   7.928   4.080 -0.5687  0.5407  0.3948
   19MOL   H45214528   2.192   7.812   3.505  1.2310  0.0375  1.6700
   19MOL   H45314529   2.309   7.903   3.430 -0.4088 -1.9474 -0.1661
   19MOL   H45414530   2.177   7.754   3.263 -0.6544 -1.1476  1.6388
   19MOL   H45514531   2.045   7.830   3.327  0.3931 -1.4402 -0.8817
   19MOL   H45614532   2.278   7.969   3.181 -0.5296 -0.5823 -0.6893
   19MOL   H45714533   2.142   7.814   3.041  1.4866 -1.0777  0.6889
   19MOL   H45814534   1.994   7.899   3.081  0.5847 -0.6755 -0.7916
   19MOL   H45914535   2.151   0.145   3.157  1.2727  1.8834  2.3110
   19MOL   H46014536   2.009   0.067   3.234  0.7773 -2.9641  2.6009
   19MOL   H46114537   2.129   0.209   3.398 -1.5932 -0.4185 -0.0136
   19MOL   H46214538   2.277   0.112   3.364  0.1919 -2.8127  0.2714
   19MOL   H46314539   2.033   8.026   3.484  0.0572 -1.5496  1.2982
   19MOL   H46414540   2.307   0.068   3.609  0.6057  1.1822 -0.0531
   19MOL   H46514541   2.167   0.153   3.645  0.9025  1.2018 -2.1527
   19MOL   H46614542   1.988   7.839   3.818  1.4699  0.0706  0.5189
   19MOL   H46714543   1.893   7.704   3.983 -0.2721 -1.8454  2.3504
   19MOL   H46814544   2.188   7.833   4.273 -1.1087  1.0340  0.2581
   19MOL   H46914545   2.282   7.985   4.105 -0.2639  0.6151 -0.8238
   19MOL   C47014546   1.503   7.405   4.113  1.2746 -0.2747  0.1579
   19MOL   C47114547   1.637   7.439   4.167 -0.0296  0.0551 -0.3667
   19MOL   C47214548   1.685   7.355   4.280 -1.0694  0.0745  0.6060
   19MOL   C47314549   1.807   7.418   4.352 -0.3035 -0.0996 -0.4069
   19MOL   O47414550   1.932   7.424   4.282  0.2791  0.4684  0.1133
   19MOL   C47514551   1.580   7.323   4.381 -0.0529  0.5056 -0.0225
   19MOL   C47614552   1.460   7.266   4.312 -0.0540 -0.1204  0.5040
   19MOL   C47714553   1.395   7.371   4.216  0.4920 -0.1932  0.1264
   19MOL   C47814554   1.246   7.338   4.159  0.4415 -0.0886  0.2392
   19MOL   O47914555   1.145   7.306   4.254 -0.1114 -0.4164 -0.2879
   19MOL   C48014556   1.107   7.408   4.334  0.0859  0.5863 -0.5205
   19MOL   O48114557   1.148   7.527   4.339  0.2681  0.5076  0.3121
   19MOL   C48214558   0.990   7.368   4.417 -0.9098 -0.4139  0.0815
   19MOL   C48314559   0.975   7.416   4.549 -0.0735 -0.2112  0.4601
   19MOL   C48414560   0.866   7.373   4.631  0.9931 -0.0216  0.9936
   19MOL   C48514561   0.773   7.290   4.571  0.2921 -0.2867  0.1363
   19MOL   C48614562   0.654   7.249   4.644 -0.1280 -0.0502 -0.1521
   19MOL   O48714563   0.645   7.258   4.768  0.3624 -0.1970 -0.0244
   19MOL   O48814564   0.553   7.196   4.570  0.0798 -0.8946  0.0386
   19MOL   C48914565   0.781   7.252   4.430 -0.2931  0.5627  0.7444
   19MOL   C49014566   0.893   7.283   4.362 -0.1994  0.2841  0.3804
   19MOL   H49114567   1.471   7.481   4.041 -1.9778 -0.6706  1.0889
   19MOL   H49214568   1.512   7.315   4.052  2.4468  1.4258 -2.2808
   19MOL   H49314569   1.714   7.443   4.091 -0.0102  1.5082 -0.2935
   19MOL   H49414570   1.628   7.541   4.204  2.2766  0.5839 -1.1885
   19MOL   H49514571   1.733   7.263   4.246  1.0621  1.2468  0.4052
   19MOL   H49614572   1.790   7.519   4.390 -3.0769 -1.6008  2.5322
   19MOL   H49714573   1.817   7.359   4.443 -0.7228  0.0963 -0.2339
   19MOL   H49814574   1.633   7.257   4.450  0.0023  1.4426  0.8470
   19MOL   H49914575   1.548   7.414   4.433  1.3911  1.9466 -1.6279
   19MOL   H50014576   1.400   7.248   4.402  0.2436  1.5790  1.0657
   19MOL   H50114577   1.478   7.167   4.270 -2.7556 -0.8757  1.0193
   19MOL   H50214578   1.376   7.466   4.266 -0.2628 -0.3305  0.1159
   19MOL   H50314579   1.215   7.420   4.094 -0.2967  0.4135  1.2084
   19MOL   H50414580   1.272   7.250   4.101  2.2851 -0.2123  1.1970
   19MOL   H50514581   1.050   7.485   4.583  1.9355 -2.2951  0.3474
   19MOL   H50614582   0.856   7.415   4.730  0.0392  1.7118  0.1893
   19MOL   H50714583   0.708   7.189   4.380  1.0950 -0.4469 -0.0371
   19MOL   H50814584   0.912   7.245   4.262 -0.0172  0.2424  0.4318
   19MOL   C50914585   0.151   7.263   4.949 -0.4845  0.4122 -0.1440
   19MOL   C51014586   0.272   7.292   4.851  0.0799  0.4164  0.2954
   19MOL   C51114587   0.228   7.291   4.704 -0.4350 -0.1660  0.3646
   19MOL   C51214588   0.351   7.303   4.622  0.8196  0.7018 -0.3357
   19MOL   O51314589   0.424   7.187   4.641 -0.2927 -0.2624  0.2555
   19MOL   C51414590   0.148   7.162   4.668 -0.2246  0.1535 -0.0250
   19MOL   C51514591   0.028   7.133   4.768  0.1612 -0.0999  0.8948
   19MOL   C51614592   0.071   7.137   4.912  1.0796 -0.3538 -0.3661
   19MOL   C51714593   7.996   7.100   5.010 -0.2173 -0.2084 -0.1096
   19MOL   O51814594   0.017   7.080   5.135  0.1596  0.5951 -0.0825
   19MOL   C51914595   7.980   7.038   5.235  0.1232 -0.0778 -0.1272
   19MOL   O52014596   7.856   7.009   5.225 -0.0908  0.3771  0.5419
   19MOL   C52114597   0.018   7.028   5.365  0.5460 -0.1075 -0.3337
   19MOL   C52214598   0.144   7.087   5.387 -0.3070  0.1925  0.9304
   19MOL   C52314599   0.208   7.077   5.516  0.7132  0.4687 -0.0625
   19MOL   C52414600   0.140   7.009   5.623 -0.3236 -0.5058  0.5156
   19MOL   C52514601   0.186   7.008   5.767  0.2863 -0.1989  0.0165
   19MOL   O52614602   0.118   6.952   5.859  0.7579 -0.9503 -0.2283
   19MOL   O52714603   0.296   7.076   5.787 -0.1842  0.0036  0.5209
   19MOL   C52814604   0.019   6.945   5.590  0.0340  0.1126 -0.5564
   19MOL   C52914605   7.997   6.951   5.465 -0.2102  0.2151 -0.0966
   19MOL   H53014606   0.188   7.262   5.052 -0.1593 -1.6937 -0.2626
   19MOL   H53114607   0.078   7.344   4.948  0.4586  1.2827  0.3093
   19MOL   H53214608   0.304   7.393   4.878 -0.5403  0.2867  1.5713
   19MOL   H53314609   0.350   7.218   4.871  1.3110  0.8887 -2.5720
   19MOL   H53414610   0.167   7.375   4.670 -2.5250 -1.8037 -0.0368
   19MOL   H53514611   0.328   7.319   4.516  0.9824  1.7759 -0.2096
   19MOL   H53614612   0.413   7.387   4.652  1.7601 -0.3472  0.6902
   19MOL   H53714613   0.110   7.170   4.566  1.1680  2.6792 -0.3938
   19MOL   H53814614   0.212   7.075   4.679 -1.2114 -0.3894  1.7232
   19MOL   H53914615   0.009   7.027   4.747 -4.8929  1.0087 -0.9108
   19MOL   H54014616   7.977   7.200   4.763 -0.4177 -0.9210 -0.5849
   19MOL   H54114617   0.142   7.055   4.917  0.1082 -1.1029  1.7521
   19MOL   H54214618   7.925   7.182   5.021 -1.3032 -0.8866 -1.7648
   19MOL   H54314619   7.936   7.015   4.978  0.8584 -1.1943  0.4624
   19MOL   H54414620   0.180   7.154   5.311  2.0910  0.7715  2.5179
   19MOL   H54514621   0.305   7.121   5.532  0.3592  1.2876 -0.1880
   19MOL   H54614622   8.012   6.887   5.670 -0.1829 -1.0839 -1.5231
   19MOL   H54714623   7.907   6.894   5.446 -0.4804  0.2458  1.0656
   19MOL   C54814624   0.511   7.248   6.302  0.4039 -0.6639  0.5921
   19MOL   C54914625   0.478   7.247   6.153  0.5602  0.1142 -0.6899
   19MOL   C55014626   0.335   7.244   6.118 -0.1809  0.4296  0.5708
   19MOL   C55114627   0.302   7.227   5.968  0.5590 -0.1431 -0.6345
   19MOL   O55214628   0.331   7.093   5.929  0.1444  0.0150 -0.1424
   19MOL   C55314629   0.265   7.128   6.196  0.4743 -0.5429  0.0934
   19MOL   C55414630   0.304   7.132   6.349 -0.0391  0.0786 -0.3186
   19MOL   C55514631   0.455   7.127   6.370  1.3425  0.1305  0.3267
   19MOL   C55614632   0.495   7.115   6.520 -0.4672  0.0735 -0.0655
   19MOL   O55714633   0.632   7.086   6.529  0.5110 -0.7530  0.1208
   19MOL   C55814634   0.666   6.965   6.550 -0.1360  0.2585 -0.7661
   19MOL   O55914635   0.596   6.862   6.571  0.5600  0.2882  0.7285
   19MOL   C56014636   0.817   6.954   6.547  0.3247 -0.1761 -0.6357
   19MOL   C56114637   0.899   7.059   6.507  0.0916  0.1844 -0.3527
   19MOL   C56214638   1.035   7.037   6.485 -0.2686  0.0494 -0.0974
   19MOL   C56314639   1.090   6.907   6.494  0.3090  0.4032  0.4784
   19MOL   C56414640   1.238   6.887   6.479  0.0460 -0.6831 -0.1433
   19MOL   O56514641   1.294   6.781   6.510 -0.7742 -0.1259 -0.1592
   19MOL   O56614642   1.304   7.006   6.444  0.3705 -0.4437  0.1794
   19MOL   C56714643   1.005   6.806   6.533 -0.4610 -0.1282 -0.4166
   19MOL   C56814644   0.872   6.827   6.564 -0.4049  0.3889 -0.0179
   19MOL   H56914645   0.617   7.258   6.325  0.4524 -1.5985  0.8156
   19MOL   H57014646   0.481   7.333   6.362  1.0182 -0.1990  0.2487
   19MOL   H57114647   0.519   7.329   6.095  0.3624  1.0473  0.4540
   19MOL   H57214648   0.527   7.161   6.108  0.4893  0.0010 -0.5566
   19MOL   H57314649   0.301   7.337   6.163 -0.2919  0.3513  0.6491
   19MOL   H57414650   0.195   7.245   5.965 -0.1194 -3.0089  2.8404
   19MOL   H57514651   0.365   7.297   5.912  1.3821 -0.3471  0.0187
   19MOL   H57614652   0.158   7.130   6.175  0.2138 -2.1991  1.2031
   19MOL   H57714653   0.299   7.033   6.156  0.8951 -0.8384  1.1468
   19MOL   H57814654   0.261   7.043   6.396  3.0703 -0.5389  1.4979
   19MOL   H57914655   0.262   7.227   6.380 -0.2763 -0.4346  0.9602
   19MOL   H58014656   0.500   7.042   6.319  0.0427 -3.1947  4.4899
   19MOL   H58114657   0.489   7.216   6.559  2.1934  0.4193 -0.4663
   19MOL   H58214658   0.439   7.059   6.595 -1.3998 -0.3681 -1.0803
   19MOL   H58314659   0.857   7.156   6.486  1.4696  1.1632  1.3077
   19MOL   H58414660   1.098   7.124   6.474  1.8684 -1.6607 -1.6557
   19MOL   H58514661   1.042   6.705   6.537  0.2553  0.2155  3.2556
   19MOL   H58614662   0.822   6.733   6.580  0.1107 -0.1433 -1.4801
   19MOL   C58714663   1.453   6.628   6.201  0.7919 -0.1300  0.3344
   19MOL   C58814664   1.512   6.752   6.271 -0.0104 -0.0873 -0.7105
   19MOL   C58914665   1.444   6.878   6.220 -0.3042 -0.0936  0.5145
   19MOL   C59014666   1.478   7.013   6.293 -0.4731  0.5355 -0.6134
   19MOL   O59114667   1.451   6.999   6.430 -0.0609 -0.1223 -0.0477
   19MOL   C59214668   1.462   6.889   6.070 -0.1056  0.3540  0.0273
   19MOL   C59314669   1.407   6.769   5.996  0.3572  0.1089  0.9593
   19MOL   C59414670   1.470   6.639   6.048 -0.2055  0.0811  0.1842
   19MOL   C59514671   1.427   6.519   5.960  0.2232  0.0582 -0.0038
   19MOL   O59614672   1.286   6.489   5.963  1.0529  0.5252 -0.2496
   19MOL   C59714673   1.224   6.427   5.867  0.4099 -0.0474  0.5581
   19MOL   O59814674   1.280   6.377   5.773 -0.5552 -0.0129 -0.0426
   19MOL   C59914675   1.077   6.420   5.881  0.5490  0.8569  0.5224
   19MOL   C60014676   1.002   6.472   5.993  0.0235 -0.4790  0.7143
   19MOL   C60114677   0.861   6.451   5.995 -0.2800  0.4964  0.0281
   19MOL   C60214678   0.791   6.395   5.889  0.0937 -0.4651 -0.0437
   19MOL   C60314679   0.645   6.369   5.906 -0.7657 -0.3564 -0.4785
   19MOL   O60414680   0.578   6.386   6.011 -0.1741  0.3929  0.5542
   19MOL   O60514681   0.591   6.313   5.799  0.0535  0.2411 -0.0688
   19MOL   C60614682   0.872   6.364   5.770  1.2441 -0.1893  0.9843
   19MOL   C60714683   1.013   6.367   5.767  0.1709 -0.0895 -0.3801
   19MOL   H60814684   1.487   6.534   6.243 -0.3081 -0.9726 -0.6252
   19MOL   H60914685   1.347   6.628   6.227  0.7295  0.8779  0.0966
   19MOL   H61014686   1.506   6.733   6.378  0.0688 -1.1720 -0.8988
   19MOL   H61114687   1.617   6.761   6.244  0.0466  1.6377  0.0100
   19MOL   H61214688   1.337   6.861   6.229 -0.2904  0.5823  2.1853
   19MOL   H61314689   1.584   7.030   6.275  0.6806 -2.7689  2.5723
   19MOL   H61414690   1.415   7.095   6.259 -1.1423 -0.0802 -0.8700
   19MOL   H61514691   1.414   6.983   6.042  1.5117  1.3682  0.5438
   19MOL   H61614692   1.567   6.895   6.041  0.9035 -1.6273  3.0349
   19MOL   H61714693   1.428   6.772   5.889  0.1556  0.3230  0.9247
   19MOL   H61814694   1.299   6.760   5.985  0.3808  1.1577 -0.2659
   19MOL   H61914695   1.573   6.649   6.013  0.2183 -3.2339  0.2774
   19MOL   H62014696   1.470   6.514   5.860 -1.2890 -1.7122 -0.5861
   19MOL   H62114697   1.471   6.436   6.015 -0.0552 -0.6707 -0.8623
   19MOL   H62214698   1.041   6.520   6.082 -2.4103 -0.6227  1.9023
   19MOL   H62314699   0.807   6.479   6.085  2.0367  1.9137  1.0226
   19MOL   H62414700   0.817   6.325   5.686  3.1434  0.1848 -0.4545
   19MOL   H62514701   1.068   6.336   5.679  0.6601  1.2352 -0.5540
   19MOL   C62614702   0.028   6.325   5.720 -0.9351  0.3160 -0.3860
   19MOL   C62714703   0.177   6.311   5.719  0.1007  1.1394  0.2701
   19MOL   C62814704   0.231   6.226   5.839  0.4105 -0.0589 -0.8584
   19MOL   C62914705   0.380   6.196   5.840  0.3952 -0.3234 -0.3457
   19MOL   O63014706   0.442   6.323   5.802 -0.1071 -0.0259  0.0781
   19MOL   C63114707   0.198   6.301   5.966 -0.3092  0.3340  0.4609
   19MOL   C63214708   0.049   6.339   5.968  0.1059  0.1293 -0.6147
   19MOL   C63314709   8.030   6.405   5.842  0.5554 -0.2069 -0.0284
   19MOL   C63414710   7.881   6.446   5.863  0.5622  0.2202  0.2745
   19MOL   O63514711   7.824   6.500   5.745 -0.9349 -0.0588  0.3416
   19MOL   C63614712   7.755   6.417   5.655  0.3354 -0.5048 -0.1641
   19MOL   O63714713   7.714   6.304   5.683 -0.0758 -0.8312  0.6115
   19MOL   C63814714   7.721   6.477   5.525 -0.2634  0.6155  0.6744
   19MOL   C63914715   7.646   6.404   5.432 -0.0275 -0.6602 -0.3011
   19MOL   C64014716   7.625   6.464   5.307  0.2142 -0.2101  0.4072
   19MOL   C64114717   7.674   6.595   5.273 -0.6773 -0.3893 -0.3315
   19MOL   C64214718   7.658   6.647   5.137  0.3112 -0.8662 -0.6009
   19MOL   O64314719   7.594   6.581   5.055  0.0248 -0.3538  0.0542
   19MOL   O64414720   7.707   6.774   5.114  0.7783 -0.2581 -0.1674
   19MOL   C64514721   7.745   6.670   5.370 -0.1610  0.6763  0.3132
   19MOL   C64614722   7.762   6.611   5.497 -0.0007  0.6190 -0.3827
   19MOL   H64714723   0.000   6.366   5.623 -0.5762  2.8042  0.5213
   19MOL   H64814724   8.011   6.231   5.729 -0.9798  0.3947  0.1606
   19MOL   H64914725   0.201   6.268   5.621 -0.4254  1.7545 -0.1316
   19MOL   H65014726   0.228   6.407   5.715  1.3913  0.4028 -3.3126
   19MOL   H65114727   0.175   6.132   5.839 -1.5682  1.0869  0.1629
   19MOL   H65214728   0.421   6.162   5.935  1.4318 -1.4892 -1.1882
   19MOL   H65314729   0.405   6.116   5.770 -2.7217 -1.6066 -0.1016
   19MOL   H65414730   0.214   6.237   6.053 -0.2157 -0.2284  0.0375
   19MOL   H65514731   0.259   6.390   5.976  0.9407 -0.6667  2.1348
   19MOL   H65614732   0.015   6.403   6.049 -2.4375 -2.1826  0.2436
   19MOL   H65714733   8.024   6.250   5.987 -0.5883  1.0566  1.6386
   19MOL   H65814734   0.043   6.503   5.834  0.7275 -0.2915 -0.0235
   19MOL   H65914735   7.820   6.368   5.909 -1.5172  0.5554 -1.8218
   19MOL   H66014736   7.880   6.521   5.942 -0.0989  0.6932 -0.1757
   19MOL   H66114737   7.613   6.305   5.460 -1.9564  0.4986  1.6301
   19MOL   H66214738   7.583   6.405   5.227  2.9460 -0.5721 -0.8094
   19MOL   H66314739   7.793   6.764   5.344 -1.2265  1.2870  0.5035
   19MOL   H66414740   7.826   6.665   5.567 -0.3284 -1.2475  1.4045
   19MOL   C66514741   7.521   6.916   4.584 -0.5128 -0.2015 -0.2728
   19MOL   C66614742   7.526   6.878   4.724 -0.5123 -0.1720  0.2247
   19MOL   C66714743   7.550   6.978   4.831  0.5825  0.0586  0.1181
   19MOL   C66814744   7.567   6.910   4.971 -0.3201 -0.6985 -0.2900
   19MOL   O66914745   7.684   6.825   4.970 -0.2296  0.1583  0.0337
   19MOL   C67014746   7.678   7.062   4.802  0.5141  0.1653  0.6220
   19MOL   C67114747   7.664   7.107   4.653 -0.3591  0.1026  0.0625
   19MOL   C67214748   7.651   6.989   4.548 -0.3999  0.5200  0.3687
   19MOL   C67314749   7.639   7.045   4.407 -0.2504 -0.7031  0.6109
   19MOL   O67414750   7.749   7.131   4.372 -0.0155 -0.1952  0.1283
   19MOL   C67514751   7.771   7.164   4.242  0.3712 -0.2499  0.0111
   19MOL   O67614752   7.701   7.123   4.155 -0.2966  0.5622  0.2863
   19MOL   C67714753   7.902   7.238   4.222 -0.0642 -0.0586  0.1290
   19MOL   C67814754   7.968   7.303   4.337 -0.3146 -0.8400  0.1108
   19MOL   C67914755   0.049   7.381   4.322  0.1642  0.5911 -1.1817
   19MOL   C68014756   0.111   7.383   4.201 -0.1711  1.0016 -0.2702
   19MOL   C68114757   0.232   7.467   4.181  0.2417  0.1903 -0.5558
   19MOL   O68214758   0.265   7.512   4.070  0.3273  0.1835  0.1994
   19MOL   O68314759   0.295   7.488   4.298 -0.6789  0.0863  0.0863
   19MOL   C68414760   0.065   7.314   4.085 -0.2547  1.0992  0.1117
   19MOL   C68514761   7.972   7.249   4.096 -0.1011 -0.4953 -0.3095
   19MOL   H68614762   7.499   6.837   4.512 -0.7655 -1.6231  1.3423
   19MOL   H68714763   7.443   6.991   4.572  0.7684  1.3012  0.5014
   19MOL   H68814764   7.425   6.840   4.740 -0.0588 -1.1365  0.8537
   19MOL   H68914765   7.583   6.785   4.734 -3.3631 -2.3303 -2.3414
   19MOL   H69014766   7.466   7.047   4.834 -0.5116 -1.2086 -0.8190
   19MOL   H69114767   7.585   6.986   5.048  2.8337 -1.1904 -0.4842
   19MOL   H69214768   7.483   6.854   5.012  0.5238 -1.3813  0.5285
   19MOL   H69314769   7.685   7.153   4.860  0.4009  0.1982  0.5835
   19MOL   H69414770   7.772   7.007   4.807  1.6083  1.9596  0.1978
   19MOL   H69514771   7.753   7.169   4.639 -0.0566  0.0989  1.9251
   19MOL   H69614772   7.572   7.165   4.659  0.7031  2.1029 -1.8927
   19MOL   H69714773   7.737   6.922   4.556  0.4919  1.6203  0.2123
   19MOL   H69814774   7.638   6.961   4.337  1.0922  0.3415 -0.6769
   19MOL   H69914775   7.543   7.094   4.394 -0.1611 -0.6287  0.2122
   19MOL   H70014776   7.923   7.299   4.435 -0.8829 -0.4967 -0.1328
   19MOL   H70114777   0.085   7.438   4.406  0.9829 -0.1978 -0.9912
   19MOL   H70214778   0.123   7.309   3.994  1.9326  1.0184  1.4717
   19MOL   H70314779   7.933   7.196   4.010  0.2214  1.1137 -1.4670
   19MOL   C70414780   0.790   7.707   4.491 -0.3727 -0.3783 -0.3636
   19MOL   C70514781   0.643   7.678   4.469  0.6667  0.4739 -0.3911
   19MOL   C70614782   0.613   7.693   4.317  0.7181 -0.1064  0.1567
   19MOL   C70714783   0.463   7.660   4.283  0.8144  0.2766  0.2130
   19MOL   O70814784   0.438   7.518   4.302 -0.3823 -0.0296  0.2862
   19MOL   C70914785   0.648   7.833   4.263 -0.3327 -0.2292  0.2297
   19MOL   C71014786   0.794   7.861   4.293  0.4228 -0.0178 -0.1035
   19MOL   C71114787   0.829   7.843   4.441  0.1058  0.3714  0.5741
   19MOL   C71214788   0.982   7.845   4.479  0.3600 -0.1055  0.8038
   19MOL   O71314789   1.027   7.983   4.492 -0.4122 -0.1687  0.2175
   19MOL   C71414790   1.006   0.009   4.609 -0.1859 -0.5012  0.0112
   19MOL   O71514791   0.960   7.999   4.709  0.2712  0.4073  0.2509
   19MOL   C71614792   1.053   0.148   4.616  0.5305  0.4133 -0.2135
   19MOL   C71714793   1.052   0.219   4.743 -0.3963 -0.4254 -0.3077
   19MOL   C71814794   1.102   0.347   4.750  0.2326 -0.1818 -0.1106
   19MOL   C71914795   1.160   0.408   4.633  0.3854  0.1176  0.6701
   19MOL   C72014796   1.212   0.546   4.644 -0.2367 -0.2881 -0.0731
   19MOL   O72114797   1.203   0.610   4.749 -0.3481  0.2201 -0.1957
   19MOL   O72214798   1.280   0.589   4.537 -0.3635  0.1035  0.3254
   19MOL   C72314799   1.176   0.331   4.514  0.3601 -0.1448 -0.4732
   19MOL   C72414800   1.127   0.200   4.507 -0.2395  0.2551  0.1720
   19MOL   H72514801   0.818   7.697   4.596  3.1134  1.3024 -1.0771
   19MOL   H72614802   0.846   7.631   4.436 -0.5436  0.5213 -1.8092
   19MOL   H72714803   0.619   7.581   4.512 -0.1066  0.9063  0.1607
   19MOL   H72814804   0.588   7.752   4.527  0.0665  1.6872 -2.4609
   19MOL   H72914805   0.673   7.623   4.258  0.6040 -0.7288  0.7751
   19MOL   H73014806   0.397   7.712   4.353  2.5019 -0.1851  2.1984
   19MOL   H73114807   0.449   7.679   4.177 -2.2218  1.6238  0.7833
   19MOL   H73214808   0.642   7.815   4.156  2.0390  0.0744  0.0094
   19MOL   H73314809   0.578   7.905   4.305 -0.3820 -1.7611  2.9204
   19MOL   H73414810   0.822   7.964   4.271  2.0778 -0.7543 -1.5226
   19MOL   H73514811   0.856   7.791   4.237  1.7807 -0.0918  1.4404
   19MOL   H73614812   0.778   7.924   4.495 -0.4902 -0.2985  1.0234
   19MOL   H73714813   1.001   7.792   4.573 -1.0326 -1.5250  0.3233
   19MOL   H73814814   1.043   7.809   4.396  0.5895  3.1192 -0.4934
   19MOL   H73914815   0.993   0.191   4.829  0.2575 -1.4588 -0.1823
   19MOL   H74014816   1.095   0.395   4.847 -0.8463 -0.1018 -0.2243
   19MOL   H74114817   1.229   0.383   4.435  1.0850 -1.3096 -0.7726
   19MOL   H74214818   1.141   0.143   4.416  0.4896 -0.0885  0.4987
   19MOL   C74314819   1.702   0.832   4.237  0.9367  0.1245  0.1681
   19MOL   C74414820   1.675   0.763   4.373  0.3433 -0.6050  0.0609
   19MOL   C74514821   1.528   0.794   4.420 -0.2171 -0.6168 -0.7541
   19MOL   C74614822   1.491   0.712   4.545  0.7884 -0.0918  0.7207
   19MOL   O74714823   1.351   0.723   4.570  0.4471 -1.0872 -0.2886
   19MOL   C74814824   1.503   0.945   4.439  1.2322 -0.3866  0.2080
   19MOL   C74914825   1.534   1.016   4.303  0.2580  0.9261 -0.1203
   19MOL   C75014826   1.674   0.987   4.249 -0.8657  0.5449  0.2294
   19MOL   C75114827   1.690   1.061   4.111  0.4138 -0.3574 -0.5435
   19MOL   O75214828   1.681   1.192   4.146 -0.4631 -0.1263  0.2718
   19MOL   C75314829   1.653   1.291   4.056  0.3289  0.7214  0.0163
   19MOL   O75414830   1.632   1.262   3.935  0.0990  0.8880  0.2906
   19MOL   C75514831   1.620   1.418   4.122 -0.2429 -0.3914 -0.0186
   19MOL   C75614832   1.594   1.439   4.263  0.5418 -0.1876 -0.1949
   19MOL   C75714833   1.549   1.568   4.308 -0.0941 -0.2882 -0.1124
   19MOL   C75814834   1.525   1.670   4.214  0.6596 -0.3717 -0.3906
   19MOL   C75914835   1.455   1.800   4.255  0.2782 -0.2876  0.1071
   19MOL   O76014836   1.424   1.885   4.167  0.3506 -0.1139  0.0653
   19MOL   O76114837   1.450   1.833   4.380  0.3063  0.2619  0.2720
   19MOL   C76214838   1.564   1.658   4.082 -0.1527 -0.8061 -0.5673
   19MOL   C76314839   1.607   1.530   4.032 -0.0829 -0.2028  0.1681
   19MOL   H76414840   1.800   0.805   4.198  1.0241  2.1592 -1.0981
   19MOL   H76514841   1.635   0.797   4.158  1.2451 -1.2775  0.5143
   19MOL   H76614842   1.673   0.655   4.356 -1.7763 -0.4743 -0.7238
   19MOL   H76714843   1.746   0.784   4.452  0.3908  0.7207 -0.3286
   19MOL   H76814844   1.467   0.750   4.341 -0.5587  0.1779 -0.9369
   19MOL   H76914845   1.513   0.606   4.542  2.2261  0.1746  1.3109
   19MOL   H77014846   1.545   0.742   4.635 -1.5525  0.3474  2.0332
   19MOL   H77114847   1.396   0.949   4.460  0.9470 -0.1951 -1.1997
   19MOL   H77214848   1.554   0.996   4.520 -2.1209  1.6344  1.1666
   19MOL   H77314849   1.516   1.123   4.301 -1.6675  0.5884 -1.3302
   19MOL   H77414850   1.462   0.986   4.227  0.1287  0.7516  0.0707
   19MOL   H77514851   1.752   1.039   4.305 -1.9081  0.6762  1.5808
   19MOL   H77614852   1.776   1.037   4.049  2.0848  1.4598  1.0098
   19MOL   H77714853   1.607   1.031   4.048 -1.2161 -1.1924  1.9380
   19MOL   H77814854   1.606   1.363   4.339  0.6322  0.1085  0.0848
   19MOL   H77914855   1.514   1.572   4.410  0.0690 -1.2079 -0.0143
   19MOL   H78014856   1.547   1.740   4.014  0.8933  0.6792  0.9366
   19MOL   H78114857   1.626   1.512   3.928  1.2267  0.1241  0.3420
   19MOL   H78214858   1.437   1.925   4.396  2.5112  0.8558 -1.1117
   20MOL     C114859   0.723   1.779   2.692  0.0584 -0.0625 -0.7404
   20MOL     C214860   0.641   1.770   2.563  0.5964 -0.2774 -0.0629
   20MOL     C314861   0.524   1.872   2.574  0.9491 -0.8344 -0.3921
   20MOL     C414862   0.438   1.867   2.446 -0.2899  0.1846 -0.4855
   20MOL     O514863   0.383   1.738   2.441  0.3667 -0.1116 -0.3652
   20MOL     C614864   0.439   1.857   2.705  0.1933 -0.1071  0.0764
   20MOL     C714865   0.519   1.874   2.829 -0.4489 -0.1675  0.5557
   20MOL     C814866   0.642   1.772   2.828  0.4060  0.2809  0.5182
   20MOL     C914867   0.749   1.765   2.949 -0.5320  0.0417 -0.7561
   20MOL    O1014868   0.680   1.760   3.072  0.2496  0.3402 -0.4333
   20MOL    C1114869   0.673   1.863   3.162  0.6350 -0.6704  0.5746
   20MOL    O1214870   0.710   1.982   3.135  0.1210  0.4086 -0.4541
   20MOL    C1314871   0.603   1.827   3.292  0.0332  0.3660 -0.5694
   20MOL    C1414872   0.565   1.927   3.390  0.1982  0.2853  0.7779
   20MOL    C1514873   0.509   1.900   3.514  0.2358  0.8144  0.5744
   20MOL    C1614874   0.481   1.766   3.544 -0.1418 -0.8844  0.6837
   20MOL    C1714875   0.428   1.733   3.679  0.4257 -0.6017  0.0908
   20MOL    O1814876   0.418   1.619   3.723 -0.3665 -0.6544 -0.0888
   20MOL    O1914877   0.380   1.841   3.739 -0.4579 -0.6530 -0.1148
   20MOL    C2014878   0.505   1.665   3.446 -0.4861  0.0022  0.3259
   20MOL    C2114879   0.571   1.689   3.321 -0.0324  0.1588  0.1690
   20MOL    H2214880   0.798   1.700   2.689  1.8692  1.6056 -0.7255
   20MOL    H2314881   0.783   1.870   2.687  0.8830 -0.6522 -1.9575
   20MOL    H2414882   0.708   1.783   2.478 -0.0084 -0.4093 -0.5618
   20MOL    H2514883   0.603   1.670   2.539  1.4052 -0.5180 -0.3655
   20MOL    H2614884   0.575   1.968   2.582 -0.9860  0.1008  1.0979
   20MOL    H2714885   0.363   1.946   2.449 -1.9630 -1.4113  1.0954
   20MOL    H2814886   0.494   1.884   2.354  0.0131  0.5375 -0.2396
   20MOL    H2914887   0.351   1.921   2.697 -1.5698 -2.5822 -1.1819
   20MOL    H3014888   0.396   1.757   2.714 -0.2091  0.1121  0.5796
   20MOL    H3114889   0.463   1.852   2.919 -0.2155 -0.3490  0.6556
   20MOL    H3214890   0.565   1.973   2.829 -3.4518  1.2891  3.0189
   20MOL    H3314891   0.584   1.679   2.821 -0.7402  1.0317 -0.1417
   20MOL    H3414892   0.829   1.691   2.946  0.3100  0.8379  0.7335
   20MOL    H3514893   0.803   1.860   2.961  0.8856 -0.8010 -0.3498
   20MOL    H3614894   0.595   2.027   3.362  1.8776 -0.7148 -1.1715
   20MOL    H3714895   0.487   1.982   3.581  1.7295  1.4905  0.2422
   20MOL    H3814896   0.479   1.562   3.470 -1.5775 -0.2237 -1.7438
   20MOL    H3914897   0.586   1.611   3.247  0.8878 -0.0741  0.5925
   20MOL    H4014898   0.445   1.677   2.478  1.3642  2.1035  1.8006
   20MOL    C4114899   0.077   2.157   3.984  0.2513 -0.2821 -0.2676
   20MOL    C4214900   0.173   2.036   4.014 -0.4899 -0.1477 -0.0331
   20MOL    C4314901   0.159   1.931   3.902 -0.6099 -0.1574  0.4453
   20MOL    C4414902   0.248   1.809   3.925 -0.5708 -0.1614  0.2163
   20MOL    O4514903   0.381   1.821   3.887 -0.0083  0.9404  0.1874
   20MOL    C4614904   0.011   1.883   3.897  0.1314 -0.1018 -0.0588
   20MOL    C4714905   7.950   1.997   3.872 -0.1180  0.1627 -0.3822
   20MOL    C4814906   7.969   2.112   3.970 -0.3299 -0.2964  0.7523
   20MOL    C4914907   7.874   2.219   3.938  0.0240 -0.4985  0.6778
   20MOL    O5014908   7.890   2.275   3.805  0.1941 -0.5357 -0.1613
   20MOL    C5114909   7.786   2.307   3.726  0.5828 -0.2378 -0.1029
   20MOL    O5214910   7.670   2.279   3.749 -0.4487 -0.3195  0.2421
   20MOL    C5314911   7.835   2.378   3.603  0.7539  0.0055 -0.7108
   20MOL    C5414912   7.967   2.432   3.608 -0.2542  0.7033  0.0532
   20MOL    C5514913   8.015   2.498   3.495  0.1486 -1.2144  0.5376
   20MOL    C5614914   7.939   2.507   3.382  0.1927  0.7446 -0.2667
   20MOL    C5714915   7.991   2.589   3.266  0.9806 -0.1128  0.3144
   20MOL    O5814916   7.923   2.637   3.182  0.0310  0.5595  0.5154
   20MOL    O5914917   0.091   2.608   3.261  0.5485  0.2224 -0.4572
   20MOL    C6014918   7.810   2.458   3.377  0.1443  0.1760  0.1627
   20MOL    C6114919   7.752   2.400   3.490 -0.1376  0.1287 -0.0926
   20MOL    H6214920   0.087   2.223   4.070 -0.9349 -1.9678  1.2024
   20MOL    H6314921   0.113   2.197   3.890 -0.3114 -2.3302 -1.3740
   20MOL    H6414922   0.277   2.065   4.024 -0.3286 -0.2088 -1.3386
   20MOL    H6514923   0.137   1.990   4.106  0.9305 -0.5710  0.3203
   20MOL    H6614924   0.197   1.976   3.810 -0.9707 -1.0549 -0.1521
   20MOL    H6714925   0.228   1.783   4.029 -0.3307 -0.0696  0.2868
   20MOL    H6814926   0.206   1.725   3.870 -0.4545 -0.7559  1.0126
   20MOL    H6914927   8.032   1.815   3.813  0.1300  0.5878 -0.6194
   20MOL    H7014928   8.012   1.834   3.988 -2.3834 -1.7930 -1.8583
   20MOL    H7114929   7.849   1.957   3.869 -0.5825  0.7410  4.1737
   20MOL    H7214930   7.962   2.034   3.770 -1.2396 -0.0348 -0.5867
   20MOL    H7314931   7.937   2.080   4.069 -0.7515  0.0262  0.7202
   20MOL    H7414932   7.780   2.162   3.940 -1.1007  1.3424  1.4811
   20MOL    H7514933   7.842   2.289   4.015 -0.8384  0.9087 -0.9448
   20MOL    H7614934   0.003   2.414   3.687 -1.0946 -1.7276  0.2704
   20MOL    H7714935   0.079   2.540   3.494 -1.1534  2.0493  0.9070
   20MOL    H7814936   7.759   2.466   3.283 -0.6612  0.6856  0.6457
   20MOL    H7914937   7.650   2.363   3.492  0.1642 -0.7065  0.9176
   20MOL    C8014938   0.442   2.998   3.355 -0.2035  0.3476  0.3781
   20MOL    C8114939   0.301   2.965   3.302 -0.6993  0.9550  0.5113
   20MOL    C8214940   0.300   2.836   3.217 -0.0488  0.1372 -0.5565
   20MOL    C8314941   0.156   2.810   3.163 -0.0181  0.1311 -0.8854
   20MOL    O8414942   0.141   2.671   3.139 -0.1867 -0.3638 -0.1396
   20MOL    C8514943   0.408   2.848   3.106 -0.1630  0.3581  0.1711
   20MOL    C8614944   0.550   2.876   3.161  0.0223 -0.3796  0.2599
   20MOL    C8714945   0.552   3.005   3.246  0.4960  0.5832  0.0878
   20MOL    C8814946   0.691   3.035   3.295 -0.5099  0.3921  0.4844
   20MOL    O8914947   0.691   3.162   3.361 -0.0652  0.0760 -0.4070
   20MOL    C9014948   0.715   3.279   3.296  0.4542 -0.1463  0.6220
   20MOL    O9114949   0.725   3.296   3.174 -0.0475 -0.6775 -0.6697
   20MOL    C9214950   0.748   3.387   3.390 -0.6616 -0.3920  0.5541
   20MOL    C9314951   0.743   3.377   3.530 -0.2761 -0.1977  0.2870
   20MOL    C9414952   0.781   3.485   3.615  0.2771 -0.1643  0.2883
   20MOL    C9514953   0.822   3.608   3.557 -0.0215 -0.1124 -0.9103
   20MOL    C9614954   0.868   3.718   3.645  0.4120 -0.0070  0.3234
   20MOL    O9714955   0.832   3.731   3.765 -0.5365  0.4878  0.1894
   20MOL    O9814956   0.958   3.789   3.588  0.4726 -0.1746  0.0466
   20MOL    C9914957   0.816   3.626   3.416  0.6786 -0.6016 -0.3399
   20MOL   C10014958   0.790   3.515   3.335  0.2720  0.8288  0.3966
   20MOL   H10114959   0.422   3.084   3.419  0.6213  0.6431  0.2328
   20MOL   H10214960   0.467   2.911   3.416 -0.7214  0.7046  1.1132
   20MOL   H10314961   0.245   2.937   3.391  0.4960 -3.2893  0.0223
   20MOL   H10414962   0.264   3.056   3.255 -0.6310  0.2151 -0.9991
   20MOL   H10514963   0.319   2.759   3.292 -1.4096 -0.5946 -0.9585
   20MOL   H10614964   0.087   2.842   3.241  0.9547 -2.6521  1.2126
   20MOL   H10714965   0.134   2.860   3.069 -1.5549  2.6689  0.7567
   20MOL   H10814966   0.391   2.760   3.045 -1.3039 -1.3355  2.8478
   20MOL   H10914967   0.373   2.927   3.040 -1.1344  0.8961  1.2847
   20MOL   H11014968   0.618   2.887   3.077 -0.4549 -0.3983 -0.1348
   20MOL   H11114969   0.583   2.787   3.214 -0.3227 -1.0008 -0.5618
   20MOL   H11214970   0.536   3.086   3.175  0.7594  0.9147  0.4104
   20MOL   H11314971   0.719   2.949   3.355 -0.1216  1.0347  1.2245
   20MOL   H11414972   0.758   3.043   3.209 -1.3012  1.4035 -0.0541
   20MOL   H11514973   0.716   3.281   3.573 -0.0949 -0.5655 -0.3966
   20MOL   H11614974   0.787   3.463   3.720  0.2804  1.1221  0.5689
   20MOL   H11714975   0.850   3.716   3.367  0.8238 -1.0025 -0.9802
   20MOL   H11814976   0.791   3.524   3.227 -1.6315  2.2058  0.4632
   20MOL   C11914977   1.360   3.985   3.391  0.2524  0.0712 -0.3415
   20MOL   C12014978   1.287   3.913   3.501  0.1999  0.6132  0.3520
   20MOL   C12114979   1.240   3.771   3.460  0.6688  0.2482  0.2626
   20MOL   C12214980   1.177   3.697   3.580  0.0338  0.3652  0.4044
   20MOL   O12314981   1.097   3.790   3.654 -0.0376  1.4616 -0.0043
   20MOL   C12414982   1.149   3.792   3.336 -0.1811  0.6140 -0.2493
   20MOL   C12514983   1.242   3.851   3.223  0.2582  0.0684  0.0012
   20MOL   C12614984   1.280   3.991   3.261  0.3463 -0.5246  0.7060
   20MOL   C12714985   1.358   4.057   3.145 -0.1120  0.2806  0.5832
   20MOL   O12814986   1.357   4.193   3.181  0.0211 -0.2894 -0.3883
   20MOL   C12914987   1.316   4.286   3.096  0.2220  0.7075  0.7002
   20MOL   O13014988   1.262   4.262   2.990  0.1356 -0.5304 -0.4418
   20MOL   C13114989   1.311   4.426   3.144 -0.7071 -0.2418 -0.0162
   20MOL   C13214990   1.299   4.458   3.283 -0.7929 -0.6216  0.3468
   20MOL   C13314991   1.290   4.591   3.326  0.1837  0.1837 -0.0267
   20MOL   C13414992   1.307   4.697   3.234  0.4538 -0.3138 -0.1472
   20MOL   C13514993   1.298   4.846   3.274  0.5171  0.3768  0.8110
   20MOL   O13614994   1.327   4.936   3.198 -0.2949  0.1351 -0.6313
   20MOL   O13714995   1.240   4.867   3.391  0.1507 -0.4075 -0.1368
   20MOL   C13814996   1.329   4.668   3.097 -0.5345  0.8786  0.1587
   20MOL   C13914997   1.320   4.530   3.052  0.9937 -0.1884 -0.2144
   20MOL   H14014998   1.386   4.088   3.419  1.2543  0.0590 -1.1924
   20MOL   H14114999   1.458   3.944   3.367 -0.1179 -1.8022  1.2785
   20MOL   H14215000   1.344   3.901   3.593 -0.8999  1.1388  1.1186
   20MOL   H14315001   1.195   3.963   3.532  2.2046  4.0864  0.9873
   20MOL   H14415002   1.321   3.708   3.423 -0.0733 -0.0471 -0.8994
   20MOL   H14515003   1.116   3.616   3.540 -0.5565  0.9209  0.1700
   20MOL   H14615004   1.265   3.654   3.628 -0.5052 -1.2959 -0.0718
   20MOL   H14715005   1.090   3.705   3.306 -0.9092  1.9002 -2.6595
   20MOL   H14815006   1.066   3.861   3.350 -0.4577 -0.1227  1.8375
   20MOL   H14915007   1.183   3.856   3.132  1.5920  2.7592 -0.7576
   20MOL   H15015008   1.325   3.782   3.206  0.7613  0.4905  0.7252
   20MOL   H15115009   1.191   4.050   3.280  1.4071  1.0619  0.8255
   20MOL   H15215010   1.456   4.010   3.146  0.8544  2.2457  0.4785
   20MOL   H15315011   1.305   4.018   3.058  3.1760  1.4118 -2.0230
   20MOL   H15415012   1.310   4.382   3.359 -1.1119 -1.0643 -0.0367
   20MOL   H15515013   1.274   4.613   3.431  0.2800 -0.1196  0.0515
   20MOL   H15615014   1.329   4.744   3.020 -0.5920  0.7987  0.0793
   20MOL   H15715015   1.327   4.508   2.947 -1.8659  0.4766 -0.5654
   20MOL   C15815016   1.299   5.423   3.495  0.1604 -0.1881  0.5035
   20MOL   C15915017   1.329   5.273   3.454  0.1541 -0.4380 -0.6892
   20MOL   C16015018   1.285   5.186   3.568  0.1264 -0.2447 -0.4360
   20MOL   C16115019   1.312   5.035   3.539  0.2178  0.3454 -0.3473
   20MOL   O16215020   1.220   5.007   3.435 -0.8913  0.2062 -0.0164
   20MOL   C16315021   1.356   5.223   3.698  0.7114 -0.2715 -0.1029
   20MOL   C16415022   1.344   5.368   3.734  0.5690  0.4515  0.8533
   20MOL   C16515023   1.383   5.462   3.620  0.8893  0.0527  0.1005
   20MOL   C16615024   1.341   5.605   3.662 -0.3339 -0.1234  0.7066
   20MOL   O16715025   1.413   5.656   3.771 -0.0378  0.4097 -0.4086
   20MOL   C16815026   1.435   5.786   3.791 -0.0979 -0.8142  0.1880
   20MOL   O16915027   1.408   5.870   3.705 -0.0074 -0.5854 -0.7112
   20MOL   C17015028   1.489   5.818   3.926 -0.4192 -0.4709  0.3567
   20MOL   C17115029   1.462   5.747   4.045  1.0870 -0.2949  0.5484
   20MOL   C17215030   1.518   5.791   4.167 -0.0511 -0.0338  0.7183
   20MOL   C17315031   1.600   5.902   4.167  0.3513  0.1133  0.3048
   20MOL   C17415032   1.663   5.945   4.300  0.0093  0.0147 -0.1093
   20MOL   O17515033   1.613   5.917   4.410 -0.3246 -0.2479 -0.4903
   20MOL   O17615034   1.785   6.004   4.282  0.7546  0.0076 -0.0527
   20MOL   C17715035   1.627   5.971   4.050  0.1572 -0.1374 -0.4784
   20MOL   C17815036   1.567   5.938   3.931 -0.2853  0.7015 -0.0404
   20MOL   H17915037   1.332   5.477   3.407 -0.4518 -2.7755 -1.3715
   20MOL   H18015038   1.191   5.436   3.498  0.3728  1.8766 -0.1656
   20MOL   H18115039   1.273   5.263   3.361 -0.3189  0.9739 -0.5674
   20MOL   H18215040   1.436   5.253   3.444  0.5192  1.7995 -1.6083
   20MOL   H18315041   1.177   5.201   3.574 -0.0919  0.2070 -4.2624
   20MOL   H18415042   1.410   5.026   3.492  0.7682 -0.3267  0.9142
   20MOL   H18515043   1.298   4.964   3.620  1.6577  1.2085  0.6634
   20MOL   H18615044   1.331   5.168   3.789 -1.8673 -1.7641 -1.6902
   20MOL   H18715045   1.462   5.197   3.687  0.6636 -0.2859 -0.5002
   20MOL   H18815046   1.391   5.391   3.829 -0.8055 -2.6472  2.3377
   20MOL   H18915047   1.238   5.387   3.750  0.1478  0.4151 -1.6269
   20MOL   H19015048   1.488   5.465   3.590  0.4350 -0.0699 -1.5702
   20MOL   H19115049   1.351   5.686   3.591 -1.6639 -1.4983 -1.0877
   20MOL   H19215050   1.236   5.610   3.690 -0.4761 -1.6785  0.4933
   20MOL   H19315051   1.395   5.663   4.047 -1.1004  1.4295  1.8314
   20MOL   H19415052   1.491   5.739   4.258 -1.0888 -1.9510 -0.6480
   20MOL   H19515053   1.698   6.052   4.048 -0.1497  0.1053 -1.3419
   20MOL   H19615054   1.583   5.996   3.841 -1.6533 -1.1113 -1.4863
   20MOL   C19715055   2.023   6.210   4.825  0.7068  0.5551 -0.0024
   20MOL   C19815056   1.944   6.233   4.695  0.1547  0.1186 -0.1448
   20MOL   C19915057   1.949   6.112   4.602  0.4392 -1.2785 -0.2106
   20MOL   C20015058   1.886   6.130   4.463 -0.7636  0.1658  0.3783
   20MOL   O20115059   1.870   5.998   4.402 -0.2553  0.2517 -0.1287
   20MOL   C20215060   2.087   6.061   4.587 -0.1695  0.1495  0.6330
   20MOL   C20315061   2.156   6.038   4.720  0.3409 -1.3754 -0.2048
   20MOL   C20415062   2.162   6.171   4.794 -0.5507 -0.0567 -0.0384
   20MOL   C20515063   2.251   6.164   4.921 -0.0490  0.5829  0.4972
   20MOL   O20615064   2.182   6.082   5.021 -0.7806 -0.3115 -0.4234
   20MOL   C20715065   2.234   6.080   5.144  0.4034  0.1280 -0.1418
   20MOL   O20815066   2.332   6.143   5.175  0.7249 -0.7503  0.5134
   20MOL   C20915067   2.166   5.973   5.230 -0.2470  0.0914 -0.1359
   20MOL   C21015068   2.045   5.910   5.191 -0.6617 -0.1164  0.1398
   20MOL   C21115069   1.977   5.828   5.283  0.0718  0.5254  0.0044
   20MOL   C21215070   2.025   5.814   5.414 -0.7100 -0.1197  0.2118
   20MOL   C21315071   1.937   5.750   5.526 -0.0124  0.3552 -0.3262
   20MOL   O21415072   1.829   5.699   5.500 -0.4159 -0.3656  0.3669
   20MOL   O21515073   1.978   5.768   5.652 -0.0380 -0.1742 -0.2156
   20MOL   C21615074   2.155   5.867   5.447  0.2200  0.0461 -0.0481
   20MOL   C21715075   2.223   5.948   5.354  0.1831  0.2671  0.5006
   20MOL   H21815076   2.028   6.298   4.889  1.7997  0.2401  0.3525
   20MOL   H21915077   1.977   6.127   4.880  0.8131 -0.0294 -0.7921
   20MOL   H22015078   1.838   6.256   4.707 -0.0622  0.7781 -3.0364
   20MOL   H22115079   1.990   6.316   4.642 -0.6774 -0.5216 -1.9133
   20MOL   H22215080   1.893   6.033   4.653  0.2879  0.4658  2.4576
   20MOL   H22315081   1.787   6.174   4.478 -1.5351 -1.1824 -0.7217
   20MOL   H22415082   1.932   6.199   4.392 -0.9002 -2.2075 -2.1013
   20MOL   H22515083   2.081   5.964   4.538 -0.6437  0.4586  0.0680
   20MOL   H22615084   2.145   6.127   4.522  0.6216 -0.9918  0.1774
   20MOL   H22715085   2.255   6.009   4.687  0.0095 -1.6799 -0.9537
   20MOL   H22815086   2.100   5.958   4.768 -1.0959 -0.1316  0.2593
   20MOL   H22915087   2.216   6.240   4.728  1.3813 -3.2552 -1.9197
   20MOL   H23015088   2.351   6.126   4.900 -1.4025 -3.0721  0.4844
   20MOL   H23115089   2.259   6.271   4.943 -1.6170  1.5617 -3.2513
   20MOL   H23215090   2.005   5.922   5.092 -1.5967 -0.5857  0.4577
   20MOL   H23315091   1.883   5.782   5.256  1.4433 -1.5569 -1.3432
   20MOL   H23415092   2.197   5.849   5.545  0.3265  0.1422 -0.0759
   20MOL   H23515093   2.314   5.997   5.384 -0.2607  3.3401 -2.8426
   20MOL   C23615094   1.556   5.801   6.096 -0.6193  0.0986 -0.3775
   20MOL   C23715095   1.651   5.866   6.008 -0.2254 -0.5665 -0.0572
   20MOL   C23815096   1.724   5.756   5.919 -0.5224  0.0224 -0.7304
   20MOL   C23915097   1.826   5.820   5.825 -0.4026  0.7829  0.3816
   20MOL   O24015098   1.890   5.708   5.760 -0.3688  0.1164  0.1138
   20MOL   C24115099   1.789   5.650   6.007 -0.1673 -0.1970 -0.0648
   20MOL   C24215100   1.693   5.598   6.106 -0.2984 -0.1573  0.3778
   20MOL   C24315101   1.627   5.706   6.191 -0.6181  0.5347 -0.2791
   20MOL   C24415102   1.541   5.633   6.296  0.0319 -0.2839 -0.2367
   20MOL   O24515103   1.472   5.736   6.373  0.0669 -0.2070  0.0481
   20MOL   C24615104   1.429   5.703   6.491 -0.6379 -0.0262  0.1514
   20MOL   O24715105   1.457   5.598   6.545  0.4522  0.0382 -0.4981
   20MOL   C24815106   1.354   5.815   6.553  0.2096  0.9488  0.4991
   20MOL   C24915107   1.392   5.946   6.531 -0.3607  0.5591  0.0686
   20MOL   C25015108   1.329   6.055   6.590  0.1798  0.1006 -0.0770
   20MOL   C25115109   1.223   6.033   6.677  0.6569  0.6370 -0.6261
   20MOL   C25215110   1.166   6.150   6.753  0.8106  0.0251 -0.1677
   20MOL   O25315111   1.205   6.267   6.730 -0.0944  0.7225  0.1128
   20MOL   O25415112   1.052   6.110   6.835  0.6586  0.0006 -0.0117
   20MOL   C25515113   1.176   5.903   6.704 -0.6691  0.0868  0.2198
   20MOL   C25615114   1.243   5.793   6.636 -0.1513 -0.2297 -0.4080
   20MOL   H25715115   1.500   5.879   6.149  0.9133  2.1491 -1.7187
   20MOL   H25815116   1.476   5.752   6.039 -1.0348  0.5556 -0.1960
   20MOL   H25915117   1.598   5.940   5.948  1.3363 -0.1741 -0.9886
   20MOL   H26015118   1.714   5.934   6.066 -0.3008 -0.5000 -0.0534
   20MOL   H26115119   1.653   5.698   5.861 -1.2476  0.4527 -0.2778
   20MOL   H26215120   1.779   5.876   5.744  1.4638  0.7690 -0.7409
   20MOL   H26315121   1.890   5.898   5.866 -1.7937  1.8438  0.5978
   20MOL   H26415122   1.837   5.571   5.949 -0.6232 -0.6425  0.1579
   20MOL   H26515123   1.861   5.697   6.073 -0.1534 -0.1482 -0.1146
   20MOL   H26615124   1.755   5.533   6.167  0.4679 -0.7282 -1.0008
   20MOL   H26715125   1.615   5.538   6.058  0.2208 -0.1857 -0.4269
   20MOL   H26815126   1.704   5.769   6.236  0.5026 -2.3338  2.0159
   20MOL   H26915127   1.470   5.564   6.250 -1.0659  1.6126 -1.5030
   20MOL   H27015128   1.602   5.574   6.364 -3.1754 -0.8751  2.2687
   20MOL   H27115129   1.471   5.965   6.460 -0.1878 -2.0756 -0.5212
   20MOL   H27215130   1.377   6.151   6.587 -0.3943  0.3465 -1.3710
   20MOL   H27315131   1.104   5.876   6.780  0.0201 -0.2563  0.7619
   20MOL   H27415132   1.206   5.692   6.647 -2.3091  0.7145  1.2783
   20MOL   C27515133   0.690   6.539   7.023 -0.0593 -0.0421 -0.3430
   20MOL   C27615134   0.734   6.395   6.999  1.1353 -0.2721  0.1211
   20MOL   C27715135   0.808   6.388   6.862  0.3595  0.1098 -0.4822
   20MOL   C27815136   0.851   6.248   6.833 -0.7133 -0.0633 -0.1367
   20MOL   O27915137   0.977   6.226   6.901 -0.2509 -0.3305  0.2403
   20MOL   C28015138   0.709   6.447   6.754 -0.2299 -0.2930  1.0066
   20MOL   C28115139   0.667   6.590   6.784 -0.3730 -0.3941 -0.3118
   20MOL   C28215140   0.596   6.597   6.919  0.3866  0.3473  0.6139
   20MOL   C28315141   0.545   6.738   6.955  0.0918 -0.8941  0.1902
   20MOL   O28415142   0.430   6.774   6.868 -0.8265  0.0927 -0.9386
   20MOL   C28515143   0.419   6.898   6.821 -0.2115 -0.1227 -0.7157
   20MOL   O28615144   0.504   6.986   6.845 -0.4054 -0.4576  0.6045
   20MOL   C28715145   0.287   6.931   6.760  0.0442  0.7489  0.0726
   20MOL   C28815146   0.207   6.826   6.706 -0.5456 -0.3316 -0.0137
   20MOL   C28915147   0.077   6.853   6.652 -0.7185 -0.1282  0.1880
   20MOL   C29015148   0.029   6.984   6.647 -0.0727  0.0399 -0.0253
   20MOL   C29115149   7.925   7.010   6.600 -0.0879  0.7778  0.3695
   20MOL   O29215150   7.841   6.917   6.572 -0.4533  0.6046  0.7896
   20MOL   O29315151   7.893   7.142   6.602 -0.1850 -0.0903 -0.2578
   20MOL   C29415152   0.115   7.092   6.689  0.3349 -0.7846 -0.3385
   20MOL   C29515153   0.244   7.066   6.749  0.3091 -0.1928  0.0835
   20MOL   H29615154   0.634   6.543   7.117  0.9377  0.4453  0.2333
   20MOL   H29715155   0.770   6.609   7.045  0.7349 -0.3710 -2.1418
   20MOL   H29815156   0.804   6.362   7.075  1.4416  3.0628  1.3798
   20MOL   H29915157   0.643   6.335   7.004  0.4865  0.4610 -2.3277
   20MOL   H30015158   0.893   6.454   6.848 -0.4823  1.4301  0.5647
   20MOL   H30115159   0.768   6.179   6.851 -1.4417  0.8315 -0.0403
   20MOL   H30215160   0.864   6.227   6.727  1.1805  0.3299  0.0026
   20MOL   H30315161   0.767   6.443   6.662 -0.9507  2.5254  0.4021
   20MOL   H30415162   0.619   6.386   6.746 -1.2466  1.1949  0.9322
   20MOL   H30515163   0.609   6.628   6.700  1.4878 -0.4572 -1.6566
   20MOL   H30615164   0.752   6.659   6.790 -2.3252  2.0822 -0.2492
   20MOL   H30715165   0.508   6.533   6.918  1.6099 -1.4744  3.4070
   20MOL   H30815166   0.502   6.736   7.054 -1.3576  1.9114 -0.3297
   20MOL   H30915167   0.630   6.806   6.960  0.4302 -1.4147  1.5834
   20MOL   H31015168   0.250   6.727   6.712 -0.4365 -0.5409 -3.3517
   20MOL   H31115169   0.016   6.768   6.624  0.2138 -0.7619  0.0332
   20MOL   H31215170   0.083   7.194   6.708  0.3744 -0.2502 -2.9238
   20MOL   H31315171   0.300   7.142   6.801 -1.3258  0.3923  1.0104
   20MOL   C31415172   7.403   7.434   6.721 -0.6799  0.8817 -0.0237
   20MOL   C31515173   7.536   7.361   6.727  0.6783  0.7064 -0.1549
   20MOL   C31615174   7.532   7.220   6.658 -0.3765 -0.8420 -0.1066
   20MOL   C31715175   7.664   7.149   6.680 -0.0997 -0.0807  0.3900
   20MOL   O31815176   7.748   7.181   6.567  0.1378 -0.7756 -0.4153
   20MOL   C31915177   7.409   7.139   6.704  0.1166 -0.6032  0.2966
   20MOL   C32015178   7.277   7.216   6.694 -0.5945 -0.0448 -0.7416
   20MOL   C32115179   7.284   7.344   6.774  0.5610 -0.0385  0.3118
   20MOL   C32215180   7.150   7.418   6.770  0.6308 -0.0295  0.2990
   20MOL   O32315181   7.054   7.341   6.838 -0.5265  0.4301  0.3627
   20MOL   C32415182   7.025   7.358   6.971 -0.5606  0.1100 -0.0491
   20MOL   O32515183   7.095   7.420   7.050 -0.1842 -0.7228  0.6082
   20MOL   C32615184   6.910   7.273   7.008  0.4740 -0.5337  0.8319
   20MOL   C32715185   6.827   7.221   6.905  0.3399 -0.3826  0.1314
   20MOL   C32815186   6.714   7.149   6.942 -0.7064  0.0867  0.7336
   20MOL   C32915187   6.683   7.104   7.070 -0.2362 -0.1599  1.0028
   20MOL   C33015188   6.570   7.016   7.096  0.4508 -0.0791 -0.3548
   20MOL   O33115189   6.538   6.977   7.214  0.0099  0.2326 -0.2396
   20MOL   O33215190   6.505   6.979   6.981  0.4657 -0.2312 -0.2698
   20MOL   C33315191   6.769   7.155   7.174  0.3389  0.0131  0.7519
   20MOL   C33415192   6.884   7.235   7.142 -0.1738  0.1751 -0.3418
   20MOL   H33515193   7.413   7.534   6.763  2.4548 -0.6842  3.2195
   20MOL   H33615194   7.368   7.456   6.620 -0.9931 -0.2631 -0.1719
   20MOL   H33715195   7.627   7.419   6.714  0.8935  0.7793  1.6297
   20MOL   H33815196   7.537   7.328   6.830  1.1800  1.0676 -0.0445
   20MOL   H33915197   7.528   7.225   6.549  0.1199 -2.5407 -0.2152
   20MOL   H34015198   7.707   7.184   6.774  1.5951 -1.6972  0.2458
   20MOL   H34115199   7.638   7.043   6.682  0.0599 -0.1465 -0.6083
   20MOL   H34215200   7.405   7.059   6.631 -4.3252  0.4531 -0.7713
   20MOL   H34315201   7.435   7.095   6.800 -0.8510  0.2947  0.9862
   20MOL   H34415202   7.191   7.152   6.716 -0.9189 -0.2432 -2.4902
   20MOL   H34515203   7.262   7.252   6.592  0.3197 -2.4648 -1.7882
   20MOL   H34615204   7.302   7.316   6.878  0.5244 -1.9880 -0.1896
   20MOL   H34715205   7.139   7.516   6.815  1.9161 -0.2705  1.1875
   20MOL   H34815206   7.108   7.426   6.670 -0.9631 -1.0573  0.8580
   20MOL   H34915207   6.846   7.246   6.801  2.1286  1.6233  0.9064
   20MOL   H35015208   6.651   7.120   6.859  0.2086  0.1866 -0.0028
   20MOL   H35115209   6.742   7.128   7.276 -0.2566  2.4192  1.2729
   20MOL   H35215210   6.961   7.266   7.210  0.6885 -0.6156 -0.9387
   20MOL   C35315211   6.193   6.486   6.986 -0.2034  0.3289  0.0371
   20MOL   C35415212   6.298   6.597   7.018  0.0719  0.6656 -0.0510
   20MOL   C35515213   6.224   6.731   7.007  0.0446 -0.8358  0.7091
   20MOL   C35615214   6.313   6.854   7.045 -0.3357  0.1015 -0.2806
   20MOL   O35715215   6.442   6.846   6.984 -0.0111  0.5572 -0.5091
   20MOL   C35815216   6.168   6.752   6.864 -0.2141  0.8034  0.8975
   20MOL   C35915217   6.086   6.637   6.820  0.1444  0.8235 -0.6409
   20MOL   C36015218   6.152   6.500   6.840  0.9121  0.7644  0.5537
   20MOL   C36115219   6.053   6.388   6.808 -0.1213 -1.0819  0.2260
   20MOL   O36215220   6.099   6.258   6.840 -0.7610  0.2989 -0.1956
   20MOL   C36315221   6.150   6.174   6.746 -0.1435 -0.0802 -0.2152
   20MOL   O36415222   6.156   6.203   6.627  0.1174  0.7472  0.3373
   20MOL   C36515223   6.207   6.050   6.803  0.2433  0.9942 -0.6179
   20MOL   C36615224   6.317   5.990   6.738 -0.0588  0.9850 -0.2099
   20MOL   C36715225   6.368   5.869   6.794  0.6260  0.0198  0.6958
   20MOL   C36815226   6.316   5.811   6.909 -0.0644 -0.2217 -0.3322
   20MOL   C36915227   6.370   5.685   6.961 -0.1088  0.4428  0.7986
   20MOL   O37015228   6.314   5.617   7.051  0.2522 -0.2140 -0.1018
   20MOL   O37115229   6.485   5.647   6.903 -1.1235 -0.3052 -0.1116
   20MOL   C37215230   6.208   5.878   6.973 -0.1278 -0.3244 -0.1871
   20MOL   C37315231   6.157   5.994   6.924  0.1085  0.5840  0.9414
   20MOL   H37415232   6.241   6.389   6.994 -0.9439 -0.0755 -0.3996
   20MOL   H37515233   6.112   6.496   7.058 -1.7873 -2.8309 -1.2354
   20MOL   H37615234   6.338   6.575   7.118 -0.5587  0.3227  0.1256
   20MOL   H37715235   6.386   6.589   6.955  1.1054  3.2093  0.9957
   20MOL   H37815236   6.138   6.732   7.074  1.2860  1.0183  2.3217
   20MOL   H37915237   6.269   6.949   7.013  1.6268  0.1172 -3.0996
   20MOL   H38015238   6.322   6.878   7.151 -0.5379 -1.7793  0.1845
   20MOL   H38115239   6.094   6.832   6.870 -1.3594  0.4493 -4.9702
   20MOL   H38215240   6.244   6.778   6.791 -0.4002 -1.2596 -0.0911
   20MOL   H38315241   6.069   6.650   6.713  1.1832  1.6760 -0.7187
   20MOL   H38415242   5.984   6.645   6.856 -0.7225 -2.6322 -2.1590
   20MOL   H38515243   6.247   6.488   6.789  1.0350  0.1577  0.9289
   20MOL   H38615244   5.967   6.411   6.870  0.1272  0.6524 -0.0228
   20MOL   H38715245   6.029   6.394   6.702  1.3542 -0.4610 -0.0883
   20MOL   H38815246   6.365   6.023   6.647 -0.8070  0.8162 -0.6694
   20MOL   H38915247   6.435   5.811   6.732  0.8154 -0.6606  1.5310
   20MOL   H39015248   6.161   5.835   7.061 -2.4978  1.4482 -0.5413
   20MOL   H39115249   6.075   6.037   6.980 -1.1283 -0.7122  0.1357
   20MOL   C39215250   6.746   5.515   6.465  0.1993 -0.6250  0.3381
   20MOL   C39315251   6.622   5.465   6.550 -0.0004  0.3982  0.6059
   20MOL   C39415252   6.644   5.487   6.706 -0.3940 -0.1459  0.5278
   20MOL   C39515253   6.519   5.441   6.784 -0.2804  0.1220 -0.0263
   20MOL   O39615254   6.521   5.500   6.920  0.4331 -0.0966  0.3331
   20MOL   C39715255   6.774   5.423   6.761  0.4749  0.0745  0.1218
   20MOL   C39815256   6.893   5.485   6.679 -0.0981  1.1977  0.4200
   20MOL   C39915257   6.871   5.454   6.533  0.1123  0.2176 -0.2202
   20MOL   C40015258   7.003   5.484   6.456 -0.0314 -1.0428  0.8971
   20MOL   O40115259   6.978   5.455   6.326 -0.5365 -0.3329 -0.2826
   20MOL   C40215260   7.074   5.456   6.230  0.1971  0.0228  0.0821
   20MOL   O40315261   7.193   5.471   6.257  0.3342 -0.1064 -0.0491
   20MOL   C40415262   7.019   5.428   6.093  0.3844 -0.0869  0.3935
   20MOL   C40515263   6.880   5.408   6.072  0.0944  0.4920  0.4074
   20MOL   C40615264   6.825   5.383   5.943 -0.2901  0.0726  0.5791
   20MOL   C40715265   6.910   5.378   5.830 -0.0175 -0.2278  0.0827
   20MOL   C40815266   6.851   5.357   5.691  0.4140 -1.1077  0.0471
   20MOL   O40915267   6.728   5.351   5.669 -0.3055 -0.0669 -0.0396
   20MOL   O41015268   6.951   5.338   5.603  0.6095 -0.0758  0.0477
   20MOL   C41115269   7.046   5.399   5.849 -0.2895  0.3350 -0.1493
   20MOL   C41215270   7.099   5.429   5.977 -0.0834 -0.8047 -0.3673
   20MOL   H41315271   6.738   5.486   6.360 -0.5770 -1.7364  0.6973
   20MOL   H41415272   6.758   5.623   6.472 -0.2500 -0.4883 -0.8411
   20MOL   H41515273   6.535   5.523   6.519 -0.5030  0.0395  1.3162
   20MOL   H41615274   6.596   5.359   6.548  0.8375  0.1842  0.8239
   20MOL   H41715275   6.652   5.593   6.730 -0.7422  0.2037 -0.8821
   20MOL   H41815276   6.429   5.468   6.729  1.2468  1.6304 -1.8752
   20MOL   H41915277   6.524   5.332   6.787  0.0587  0.1188 -0.5896
   20MOL   H42015278   6.776   5.436   6.869 -1.7540  0.8091  0.1070
   20MOL   H42115279   6.767   5.315   6.750 -0.7940  0.1434  0.1219
   20MOL   H42215280   6.987   5.446   6.717  0.2082  2.1579  0.6466
   20MOL   H42315281   6.886   5.593   6.694 -0.1706  1.6276 -2.4765
   20MOL   H42415282   6.854   5.347   6.531  1.0481  0.0811 -1.4279
   20MOL   H42515283   7.021   5.591   6.453 -1.8898 -0.7272  0.5249
   20MOL   H42615284   7.089   5.434   6.500  0.2785 -0.9305  0.4211
   20MOL   H42715285   6.811   5.414   6.155  0.2052  3.9691  0.3125
   20MOL   H42815286   6.718   5.371   5.933 -0.1519 -0.6030 -0.0814
   20MOL   H42915287   7.116   5.402   5.766  0.6679  1.4675  0.6711
   20MOL   H43015288   7.206   5.438   5.985  0.0811 -2.4495 -0.4924
   20MOL   C43115289   6.859   5.365   5.018 -0.2986 -0.3561 -0.2124
   20MOL   C43215290   6.931   5.362   5.157 -0.0421 -0.0423 -0.7975
   20MOL   C43315291   6.856   5.450   5.259 -0.3595 -0.4999 -0.0316
   20MOL   C43415292   6.929   5.449   5.401  0.6879  0.6144 -0.0323
   20MOL   O43515293   6.901   5.316   5.464 -0.1462 -1.0362 -0.1583
   20MOL   C43615294   6.841   5.599   5.205 -0.4538 -0.3055  0.4393
   20MOL   C43715295   6.771   5.594   5.065 -0.0433  0.3732 -0.9136
   20MOL   C43815296   6.848   5.509   4.967 -0.7218  0.1485 -0.6038
   20MOL   C43915297   6.790   5.522   4.827  0.1201 -0.6882 -0.6511
   20MOL   O44015298   6.650   5.486   4.831 -0.1922 -0.3413 -0.4974
   20MOL   C44115299   6.587   5.438   4.708  0.5900  0.6529 -0.5068
   20MOL   O44215300   6.638   5.455   4.598  0.5608 -0.6572 -0.1389
   20MOL   C44315301   6.453   5.380   4.741 -0.0971  0.4554 -0.1798
   20MOL   C44415302   6.421   5.350   4.878  0.1474  0.2426 -0.4383
   20MOL   C44515303   6.291   5.301   4.913  0.2790  0.1456 -0.4295
   20MOL   C44615304   6.199   5.269   4.809 -0.9532  0.0780  0.3871
   20MOL   C44715305   6.063   5.206   4.827  0.2575 -0.0727 -0.5194
   20MOL   O44815306   5.975   5.196   4.744 -0.8875  0.0557 -0.2458
   20MOL   O44915307   6.050   5.156   4.953  0.3428 -0.1251 -0.3337
   20MOL   C45015308   6.241   5.288   4.671  0.0997 -0.5921  0.1983
   20MOL   C45115309   6.366   5.345   4.641  0.3703 -0.6501 -0.5536
   20MOL   H45215310   6.913   5.306   4.943 -1.4227 -0.1795 -1.1807
   20MOL   H45315311   6.762   5.317   5.022 -0.8392  0.8095  0.7977
   20MOL   H45415312   6.932   5.258   5.189 -0.8713  1.0539  2.9626
   20MOL   H45515313   7.036   5.390   5.154  0.3014 -1.2307 -0.0394
   20MOL   H45615314   6.753   5.418   5.273 -0.1339 -1.5846 -0.8219
   20MOL   H45715315   7.035   5.473   5.413  0.8869  0.0227 -0.5614
   20MOL   H45815316   6.882   5.523   5.465  0.1740  2.3330 -2.3289
   20MOL   H45915317   6.766   5.655   5.261 -0.5129  0.1945 -0.1273
   20MOL   H46015318   6.942   5.641   5.211 -0.9331  0.9219  0.0477
   20MOL   H46115319   6.768   5.699   5.034  0.2380  0.8255  0.5536
   20MOL   H46215320   6.667   5.565   5.079  0.8798 -2.2617  0.9026
   20MOL   H46315321   6.954   5.531   4.954 -1.0488  3.4379  1.6275
   20MOL   H46415322   6.777   5.629   4.811 -0.1777 -0.5777  0.2887
   20MOL   H46515323   6.844   5.482   4.742  1.8237  0.5364 -0.1791
   20MOL   H46615324   6.491   5.377   4.956  0.4670 -1.6858 -0.0265
   20MOL   H46715325   6.261   5.285   5.015  1.1118  2.6777  0.2503
   20MOL   H46815326   6.174   5.262   4.591 -0.7424  0.5408  0.5153
   20MOL   H46915327   6.382   5.358   4.535  2.4813 -1.0091 -0.2929
   20MOL   C47015328   5.677   5.189   5.400 -0.1743 -0.3526 -0.2969
   20MOL   C47115329   5.716   5.237   5.267  0.3650  0.6118 -0.6119
   20MOL   C47215330   5.806   5.139   5.193 -0.6825  0.4268  0.0912
   20MOL   C47315331   5.822   5.184   5.048 -0.4037  0.2097  0.1951
   20MOL   O47415332   5.910   5.095   4.978 -0.1323  0.7275 -0.4234
   20MOL   C47515333   5.932   5.113   5.275  0.6452  0.6177 -1.0101
   20MOL   C47615334   5.898   5.063   5.421 -0.2772  0.4615  0.3795
   20MOL   C47715335   5.807   5.169   5.487 -0.4356  0.4655 -0.1436
   20MOL   C47815336   5.780   5.146   5.634  0.0611 -0.2914 -0.3432
   20MOL   O47915337   5.899   5.170   5.702  0.0078  0.4024  0.1249
   20MOL   C48015338   5.903   5.202   5.830  0.2089  0.1182 -0.2186
   20MOL   O48115339   5.799   5.204   5.900 -0.9243  0.3878 -0.1749
   20MOL   C48215340   6.038   5.224   5.891  0.5281  0.5763  0.0292
   20MOL   C48315341   6.046   5.236   6.030  0.4102  0.0261 -0.1733
   20MOL   C48415342   6.171   5.247   6.094  0.0871  0.3486  0.0563
   20MOL   C48515343   6.288   5.248   6.017 -0.2827 -0.1017  0.4636
   20MOL   C48615344   6.417   5.255   6.078 -0.2206 -0.7592 -0.6839
   20MOL   O48715345   6.518   5.287   6.018 -0.2196 -0.2839  0.2370
   20MOL   O48815346   6.414   5.214   6.209 -0.1932  0.1072 -0.4358
   20MOL   C48915347   6.279   5.242   5.875  0.1827 -0.1904 -0.6864
   20MOL   C49015348   6.157   5.237   5.811  0.7841  0.6151 -0.7035
   20MOL   H49115349   5.617   5.265   5.449  0.8644 -0.5159  1.2817
   20MOL   H49215350   5.616   5.099   5.388  0.6950 -1.1782  1.3457
   20MOL   H49315351   5.630   5.254   5.203 -0.4216 -0.8621  0.0300
   20MOL   H49415352   5.769   5.332   5.275  2.7796 -0.8190  1.2156
   20MOL   H49515353   5.750   5.046   5.184  1.3545 -0.8832  0.6331
   20MOL   H49615354   5.722   5.180   5.003 -0.7319  0.8294  0.8657
   20MOL   H49715355   5.859   5.286   5.040 -0.3937  0.2356  0.5857
   20MOL   H49815356   5.998   5.040   5.228  1.2574  0.2041  0.4797
   20MOL   H49915357   5.970   5.215   5.284  1.9889  0.0926 -0.6498
   20MOL   H50015358   5.992   5.052   5.474 -0.6673  0.6779  1.1266
   20MOL   H50115359   5.852   4.964   5.429 -0.8969  0.7804  0.8387
   20MOL   H50215360   5.866   5.261   5.482 -0.1132  0.2547 -0.2258
   20MOL   H50315361   5.701   5.211   5.670 -0.1265 -0.7101 -0.0039
   20MOL   H50415362   5.761   5.041   5.655  0.6989 -0.6032 -1.2576
   20MOL   H50515363   5.963   5.210   6.094 -1.1704  2.1638 -1.3122
   20MOL   H50615364   6.169   5.243   6.202  1.0097  3.4727  0.2133
   20MOL   H50715365   6.371   5.244   5.818 -0.0730  1.5082 -1.0602
   20MOL   H50815366   6.151   5.243   5.704  1.2960  3.1102 -0.6159
   20MOL   C50915367   6.879   5.012   6.513 -0.3500 -0.1719 -0.1788
   20MOL   C51015368   6.747   5.071   6.468 -0.0180 -0.2532 -0.6459
   20MOL   C51115369   6.711   5.008   6.329  0.6786  0.3494  0.1026
   20MOL   C51215370   6.568   5.038   6.275 -0.5391 -0.1314  0.2462
   20MOL   O51315371   6.555   5.185   6.270  0.1312  0.7962  0.6390
   20MOL   C51415372   6.814   5.039   6.224  0.2923 -0.5019  0.6340
   20MOL   C51515373   6.951   4.994   6.266 -0.5162 -0.0842  1.0755
   20MOL   C51615374   6.990   5.041   6.406  0.6858 -0.0548 -0.1769
   20MOL   C51715375   7.118   4.967   6.446  0.3504  0.1967  0.5078
   20MOL   O51815376   7.111   4.821   6.443  0.7257 -0.4376  0.2224
   20MOL   C51915377   7.175   4.743   6.535 -0.9261 -0.8170  0.3567
   20MOL   O52015378   7.248   4.794   6.624 -0.2202  0.3272  0.0978
   20MOL   C52115379   7.161   4.600   6.512 -0.4901  0.2480 -1.3399
   20MOL   C52215380   7.127   4.557   6.384 -1.2908  0.0119 -0.0917
   20MOL   C52315381   7.104   4.418   6.364 -0.0342  0.5035 -0.0254
   20MOL   C52415382   7.109   4.325   6.469 -0.1916 -0.0430 -0.6527
   20MOL   C52515383   7.086   4.182   6.442  0.0555  0.2596  0.1237
   20MOL   O52615384   7.059   4.103   6.535  0.3803 -0.5010 -0.0039
   20MOL   O52715385   7.084   4.156   6.311 -0.4485  0.8024  0.0876
   20MOL   C52815386   7.142   4.371   6.597  0.0388  0.0384  0.1346
   20MOL   C52915387   7.159   4.507   6.619 -0.0150  0.3242  0.1683
   20MOL   H53015388   6.905   5.043   6.614  2.0350 -0.6355 -0.6231
   20MOL   H53115389   6.868   4.903   6.511  1.4151 -0.3844  0.8334
   20MOL   H53215390   6.670   5.052   6.543 -0.1696 -1.2107 -1.0432
   20MOL   H53315391   6.750   5.180   6.470  1.0481 -0.3061  1.6339
   20MOL   H53415392   6.714   4.899   6.334  1.7065  0.3662 -0.1084
   20MOL   H53515393   6.558   4.996   6.175 -1.5189  1.0940 -0.1813
   20MOL   H53615394   6.489   5.001   6.339  1.2400 -1.3437  1.7857
   20MOL   H53715395   6.775   4.985   6.138  2.1232 -2.4608  0.9856
   20MOL   H53815396   6.825   5.142   6.188  1.0405 -0.3540  1.2685
   20MOL   H53915397   7.013   5.048   6.195 -0.1841  0.3590  1.6948
   20MOL   H54015398   6.967   4.887   6.253 -1.2320 -0.2169  1.3046
   20MOL   H54115399   7.013   5.147   6.407  0.1532  0.0512  1.3963
   20MOL   H54215400   7.190   4.997   6.370 -0.5230  0.8784 -0.0641
   20MOL   H54315401   7.154   5.002   6.543  1.6877  0.7777 -0.1958
   20MOL   H54415402   7.129   4.626   6.302 -0.3812  0.0277 -0.0563
   20MOL   H54515403   7.107   4.382   6.262 -1.1165  0.0985  0.0737
   20MOL   H54615404   7.150   4.302   6.679  1.1457  0.6019  0.5111
   20MOL   H54715405   7.179   4.542   6.719  0.8055  1.2805 -0.3189
   20MOL   C54815406   7.040   3.588   6.281  0.2828  0.5378  0.5423
   20MOL   C54915407   7.040   3.735   6.324  0.8330  0.5498 -0.5671
   20MOL   C55015408   6.992   3.818   6.212 -0.0481 -0.7995  0.2136
   20MOL   C55115409   6.973   3.955   6.267 -0.5063 -0.3808 -0.8833
   20MOL   O55215410   7.105   4.011   6.279 -0.7715 -0.1278 -0.0592
   20MOL   C55315411   7.092   3.807   6.091 -0.2512  0.3839 -0.4243
   20MOL   C55415412   7.105   3.662   6.043  0.2071  0.7800 -0.4786
   20MOL   C55515413   7.138   3.558   6.160 -0.2918  1.0079  0.7427
   20MOL   C55615414   7.140   3.413   6.103 -0.5795  0.6083 -0.0882
   20MOL   O55715415   7.164   3.324   6.215 -0.7721  0.5902  0.0050
   20MOL   C55815416   7.255   3.230   6.212 -0.3994 -0.1448 -0.4599
   20MOL   O55915417   7.343   3.224   6.133 -0.5301  0.7971 -0.0894
   20MOL   C56015418   7.244   3.144   6.337  0.0260  0.1746 -0.3535
   20MOL   C56115419   7.350   3.072   6.388 -0.0026  0.3781  0.1681
   20MOL   C56215420   7.342   3.003   6.514  0.1975 -0.2574  0.6252
   20MOL   C56315421   7.220   2.994   6.588  0.0224  0.2606 -0.3767
   20MOL   C56415422   7.216   2.928   6.721 -0.0526 -0.1057  0.1416
   20MOL   O56515423   7.310   2.872   6.774  0.3791 -0.2077  0.0246
   20MOL   O56615424   7.093   2.927   6.777 -0.0581  0.6863 -0.2236
   20MOL   C56715425   7.110   3.066   6.533  0.5757  0.3568 -0.4366
   20MOL   C56815426   7.122   3.138   6.408  0.2303  0.8504  0.2226
   20MOL   H56915427   7.083   3.530   6.363  0.5693  0.0260  0.0355
   20MOL   H57015428   6.941   3.545   6.268  0.1920 -0.0843  3.0070
   20MOL   H57115429   6.974   3.740   6.410  1.3769  0.9485 -0.1675
   20MOL   H57215430   7.138   3.768   6.358  2.1080 -1.5147 -2.1082
   20MOL   H57315431   6.897   3.779   6.177 -0.5837  0.4826  0.2108
   20MOL   H57415432   6.910   4.010   6.197 -0.9394  1.6517  1.0521
   20MOL   H57515433   6.910   3.952   6.357 -0.5606 -2.5163 -0.9695
   20MOL   H57615434   7.064   3.869   6.006 -0.6658 -1.3239 -1.5880
   20MOL   H57715435   7.187   3.831   6.138  0.3321  0.2037 -1.4917
   20MOL   H57815436   7.174   3.665   5.959  0.4301  1.3793 -0.2762
   20MOL   H57915437   7.010   3.630   5.999  0.2815 -1.8462  1.1726
   20MOL   H58015438   7.239   3.586   6.190  0.1804  0.2156 -0.0592
   20MOL   H58115439   7.039   3.391   6.067 -0.2458  0.3093 -0.8633
   20MOL   H58215440   7.213   3.397   6.024  1.6880  3.0389  1.4283
   20MOL   H58315441   7.439   3.071   6.327 -0.6843  0.4572 -0.8437
   20MOL   H58415442   7.429   2.951   6.551 -0.6238 -1.8563  0.3325
   20MOL   H58515443   7.009   3.063   6.571  1.1503 -2.2849  1.0297
   20MOL   H58615444   7.037   3.191   6.369  1.2665  2.7232  0.4731
   20MOL   C58715445   6.707   2.752   6.640 -0.2699 -0.6526  0.4097
   20MOL   C58815446   6.858   2.766   6.677 -0.5007 -0.5162 -0.4747
   20MOL   C58915447   6.897   2.686   6.802  0.3170 -0.0511  0.4908
   20MOL   C59015448   7.043   2.703   6.831  0.5374  0.2668  0.2507
   20MOL   O59115449   7.069   2.828   6.886  0.0462  0.4043 -0.4821
   20MOL   C59215450   6.801   2.714   6.918 -0.0416 -0.1687 -0.8375
   20MOL   C59315451   6.658   2.681   6.880  0.3744 -0.5757  0.0173
   20MOL   C59415452   6.619   2.778   6.762  0.1987 -0.2936 -0.0017
   20MOL   C59515453   6.477   2.745   6.713 -1.0826 -0.6694  0.9717
   20MOL   O59615454   6.424   2.822   6.600  0.3525  0.5272  0.0832
   20MOL   C59715455   6.296   2.871   6.608 -0.6061  1.2418 -0.7107
   20MOL   O59815456   6.222   2.850   6.704 -0.6972 -0.0195  0.3984
   20MOL   C59915457   6.267   2.957   6.495  0.6857 -0.2986 -0.3481
   20MOL   C60015458   6.354   2.985   6.389  0.1905  0.2253 -0.0337
   20MOL   C60115459   6.324   3.075   6.282  0.0062  0.1000  0.9235
   20MOL   C60215460   6.200   3.141   6.287 -0.4262 -0.5091  0.1451
   20MOL   C60315461   6.151   3.237   6.182 -0.2779 -0.3010  0.2218
   20MOL   O60415462   6.032   3.270   6.166 -0.4746  0.2930 -0.0551
   20MOL   O60515463   6.247   3.289   6.108 -0.0792  0.3174 -0.2935
   20MOL   C60615464   6.109   3.104   6.386  0.2582 -0.4827 -0.1453
   20MOL   C60715465   6.137   3.015   6.490 -0.3218  0.3071 -0.1434
   20MOL   H60815466   6.675   2.808   6.552  0.5945 -1.9200 -0.7162
   20MOL   H60915467   6.705   2.647   6.613  0.5843 -0.6570  0.3749
   20MOL   H61015468   6.912   2.729   6.590 -0.7024 -0.9072 -0.4369
   20MOL   H61115469   6.877   2.873   6.678  0.3640 -0.6667 -1.0671
   20MOL   H61215470   6.892   2.583   6.767 -1.2634 -0.4048  1.7326
   20MOL   H61315471   7.078   2.636   6.909  0.6517 -0.3320 -0.3029
   20MOL   H61415472   7.102   2.686   6.741  0.2512  0.6170 -0.0064
   20MOL   H61515473   6.828   2.655   7.005  0.5857 -1.4686 -1.8950
   20MOL   H61615474   6.800   2.814   6.961 -0.4609 -0.2571 -0.6423
   20MOL   H61715475   6.594   2.693   6.967 -0.8655 -2.5892 -0.5869
   20MOL   H61815476   6.636   2.579   6.849 -0.4391 -0.3890 -0.0195
   20MOL   H61915477   6.629   2.881   6.796  0.2424  0.1024 -1.1868
   20MOL   H62015478   6.471   2.639   6.689 -0.6636 -0.0871 -1.9010
   20MOL   H62115479   6.405   2.749   6.795 -1.8455 -2.3579  0.4149
   20MOL   H62215480   6.454   2.945   6.400 -0.8934 -2.2307  1.0181
   20MOL   H62315481   6.392   3.101   6.202  0.1737  1.9547  1.6377
   20MOL   H62415482   6.011   3.150   6.390 -0.0800 -1.2519  0.3636
   20MOL   H62515483   6.072   3.004   6.575 -0.3741 -3.2612 -0.5864
   20MOL   C62615484   6.376   3.296   5.562 -0.1580  0.2953 -0.3554
   20MOL   C62715485   6.250   3.307   5.662 -0.1406 -0.4712  0.2355
   20MOL   C62815486   6.294   3.329   5.803  1.0228  0.0581 -0.1203
   20MOL   C62915487   6.167   3.322   5.894  0.0982 -0.4142  0.2896
   20MOL   O63015488   6.202   3.390   6.012  0.1834  0.2780 -0.2148
   20MOL   C63115489   6.400   3.222   5.848  0.6480 -0.2432  0.2551
   20MOL   C63215490   6.522   3.205   5.748 -0.0075  0.1527 -0.7989
   20MOL   C63315491   6.473   3.193   5.594  0.4107  0.2081 -0.8838
   20MOL   C63415492   6.596   3.203   5.497  0.3237  0.6543  0.1994
   20MOL   O63515493   6.677   3.312   5.527 -0.4322  0.2578 -0.2528
   20MOL   C63615494   6.799   3.290   5.595 -0.2001 -0.0620  0.0043
   20MOL   O63715495   6.833   3.174   5.626  0.4596 -0.2925  0.0725
   20MOL   C63815496   6.879   3.410   5.627 -0.4992 -0.3645  0.0828
   20MOL   C63915497   7.001   3.398   5.686 -0.2289 -0.1645 -0.8143
   20MOL   C64015498   7.087   3.509   5.700  0.0509  0.7120 -0.1243
   20MOL   C64115499   7.049   3.633   5.646  0.5329 -0.0812 -0.2763
   20MOL   C64215500   7.155   3.736   5.654  0.6251 -0.3491 -0.6513
   20MOL   O64315501   7.270   3.722   5.701  0.1018  0.7273  0.3182
   20MOL   O64415502   7.104   3.854   5.607  0.6154 -0.1421  0.2914
   20MOL   C64515503   6.914   3.646   5.593 -0.3417  0.5153  0.2943
   20MOL   C64615504   6.834   3.535   5.581 -0.0740  0.4552  0.4634
   20MOL   H64715505   6.361   3.302   5.454  1.1700 -0.3567 -0.5898
   20MOL   H64815506   6.432   3.389   5.575  0.8002 -0.3413  0.1440
   20MOL   H64915507   6.191   3.391   5.625 -1.1568 -1.0545  0.5182
   20MOL   H65015508   6.193   3.215   5.648 -0.5247 -0.1947 -0.0704
   20MOL   H65115509   6.344   3.425   5.806 -0.4299  0.8352 -0.3170
   20MOL   H65215510   6.082   3.369   5.846  1.1648 -0.8620 -2.1193
   20MOL   H65315511   6.137   3.218   5.903 -0.2079 -0.4201 -0.7964
   20MOL   H65415512   6.428   3.233   5.953 -0.9098 -3.5867  1.0862
   20MOL   H65515513   6.350   3.126   5.839  1.1720 -0.7351  2.4237
   20MOL   H65615514   6.572   3.113   5.777 -1.7585 -0.6241 -0.1593
   20MOL   H65715515   6.589   3.287   5.775  2.3021 -2.1849  0.7939
   20MOL   H65815516   6.421   3.098   5.589  0.8196 -0.0156 -0.9096
   20MOL   H65915517   6.652   3.111   5.479  1.1079  0.8488  1.5531
   20MOL   H66015518   6.559   3.220   5.396  0.2312 -2.5439 -0.3336
   20MOL   H66115519   7.031   3.296   5.703  0.3463 -0.1920 -1.9138
   20MOL   H66215520   7.184   3.490   5.742 -0.6503 -1.3249  0.6536
   20MOL   H66315521   6.884   3.741   5.552 -1.6486 -0.7530 -1.7688
   20MOL   H66415522   6.739   3.542   5.532  0.2560 -0.0448 -0.2528
   20MOL   C66515523   6.935   4.308   5.546  0.9813 -0.2010  0.1866
   20MOL   C66615524   7.047   4.207   5.545 -0.0492  0.4435  0.2031
   20MOL   C66715525   7.069   4.143   5.688  0.0838 -0.1400 -0.1007
   20MOL   C66815526   7.194   4.056   5.697  0.3424  0.1604  0.3160
   20MOL   O66915527   7.204   3.952   5.594  0.2386 -0.3773 -0.2878
   20MOL   C67015528   7.085   4.258   5.787 -0.1798 -0.1751  0.1119
   20MOL   C67115529   6.968   4.353   5.788 -0.5707 -0.1142  0.1895
   20MOL   C67215530   6.956   4.419   5.650 -0.0542  0.4615 -0.3772
   20MOL   C67315531   6.833   4.509   5.644 -0.6580 -0.4015  0.2529
   20MOL   O67415532   6.823   4.561   5.511 -0.3472 -0.2793  0.0519
   20MOL   C67515533   6.722   4.641   5.466 -0.1917  0.8493 -0.3827
   20MOL   O67615534   6.622   4.669   5.530  0.5438 -0.1641 -0.8166
   20MOL   C67715535   6.750   4.687   5.329  0.2784  0.3014 -0.3513
   20MOL   C67815536   6.837   4.622   5.239 -0.5195  0.1161 -0.1233
   20MOL   C67915537   6.867   4.679   5.117  0.4769  1.0067  0.3358
   20MOL   C68015538   6.825   4.811   5.080 -0.1429 -0.1808  0.7589
   20MOL   C68115539   6.858   4.883   4.961  0.0713  0.1499  0.4951
   20MOL   O68215540   6.804   4.986   4.915  0.7901 -0.1211 -0.2001
   20MOL   O68315541   6.953   4.822   4.889 -0.4542  0.2528 -0.4147
   20MOL   C68415542   6.724   4.864   5.162  0.2887  0.0965  1.1870
   20MOL   C68515543   6.691   4.807   5.287 -0.1337  0.3321  0.1291
   20MOL   H68615544   6.934   4.360   5.450  1.4806 -0.6597 -0.0718
   20MOL   H68715545   6.842   4.252   5.563  1.2370  0.7051  5.3377
   20MOL   H68815546   7.031   4.140   5.460  0.8340 -0.8631  1.0294
   20MOL   H68915547   7.135   4.266   5.516 -0.7107  1.6212  0.5840
   20MOL   H69015548   6.980   4.082   5.705  0.5972 -1.4036 -1.7815
   20MOL   H69115549   7.283   4.115   5.680  1.0010 -1.3152 -1.5608
   20MOL   H69215550   7.205   4.020   5.799 -0.2396 -1.7342 -0.2695
   20MOL   H69315551   7.102   4.222   5.889 -0.8183 -0.3121  0.1750
   20MOL   H69415552   7.165   4.318   5.744 -0.7787 -0.7218 -1.8139
   20MOL   H69515553   6.982   4.427   5.866  0.6779 -0.0608 -0.0746
   20MOL   H69615554   6.882   4.291   5.813  0.0663 -0.0765  2.6455
   20MOL   H69715555   7.043   4.472   5.610 -0.0159  0.9941  0.3987
   20MOL   H69815556   6.743   4.451   5.667 -1.8141  0.8594 -0.9864
   20MOL   H69915557   6.835   4.594   5.713  0.0270  2.0714 -2.7141
   20MOL   H70015558   6.865   4.521   5.264  2.1248  0.9275  0.3624
   20MOL   H70115559   6.943   4.629   5.058 -0.6528  0.7387 -0.9439
   20MOL   H70215560   6.670   4.952   5.132 -1.5690 -1.8758 -1.5365
   20MOL   H70315561   6.620   4.862   5.346  1.2286  1.3860  0.8214
   20MOL   C70415562   6.874   4.728   4.280  0.7189  0.3447 -0.1915
   20MOL   C70515563   6.853   4.694   4.424  0.1013 -0.4179  0.1317
   20MOL   C70615564   6.948   4.778   4.521  0.5073  0.4128  0.0419
   20MOL   C70715565   6.932   4.735   4.670 -0.2670  0.2626  0.2005
   20MOL   O70815566   6.957   4.853   4.747  0.6855 -0.5718  0.3298
   20MOL   C70915567   7.094   4.780   4.469 -0.0940 -1.2873 -0.0892
   20MOL   C71015568   7.101   4.839   4.326 -0.7152  0.5567 -0.1872
   20MOL   C71115569   7.018   4.741   4.235 -0.3109 -0.2938 -0.3337
   20MOL   C71215570   7.040   4.771   4.087 -0.7296 -0.5084 -0.2047
   20MOL   O71315571   6.980   4.661   4.017  0.0590  0.2760 -0.3606
   20MOL   C71415572   7.032   4.622   3.905 -0.3363 -0.4882 -0.7359
   20MOL   O71515573   7.130   4.678   3.855 -1.3807 -0.1108  0.7725
   20MOL   C71615574   6.966   4.496   3.853 -0.3769  0.2565 -0.3431
   20MOL   C71715575   6.993   4.451   3.717  0.4443  0.5286 -0.7925
   20MOL   C71815576   6.929   4.336   3.666  0.0262 -0.5258 -0.0286
   20MOL   C71915577   6.855   4.248   3.753  0.0685  0.4481  0.0248
   20MOL   C72015578   6.797   4.117   3.711  0.0511 -0.2711  0.1666
   20MOL   O72115579   6.733   4.038   3.780 -0.1889 -0.0389  0.2967
   20MOL   O72215580   6.832   4.084   3.588 -0.4193 -0.1840  0.1941
   20MOL   C72315581   6.834   4.291   3.887  0.0093  0.0953  0.3969
   20MOL   C72415582   6.882   4.416   3.933 -0.1710  0.0440  0.1005
   20MOL   H72515583   6.821   4.645   4.233  0.3675 -0.2076  1.1699
   20MOL   H72615584   6.832   4.823   4.246 -1.3158 -0.8320 -1.0174
   20MOL   H72715585   6.750   4.710   4.454 -0.3126 -0.3770 -1.3046
   20MOL   H72815586   6.874   4.591   4.450 -1.8282 -0.8163  0.1710
   20MOL   H72915587   6.898   4.874   4.531 -1.2006 -0.6928  2.7205
   20MOL   H73015588   6.826   4.716   4.688 -0.0572  0.1276  1.3530
   20MOL   H73115589   6.996   4.653   4.704  1.6453  1.7740  0.3124
   20MOL   H73215590   7.161   4.832   4.538  0.2652 -0.6277 -0.9293
   20MOL   H73315591   7.142   4.683   4.483  1.9221 -0.0575  1.9376
   20MOL   H73415592   7.199   4.860   4.284 -0.6296 -0.7071 -0.6540
   20MOL   H73515593   7.048   4.935   4.326  0.8550  1.4358 -0.0814
   20MOL   H73615594   7.056   4.639   4.246 -1.2502 -0.4533  1.7465
   20MOL   H73715595   6.998   4.869   4.065 -0.2748 -0.1067  0.6926
   20MOL   H73815596   7.147   4.775   4.067 -0.5723 -2.0873  0.2070
   20MOL   H73915597   7.056   4.507   3.650  2.6156 -2.8689 -1.7390
   20MOL   H74015598   6.952   4.312   3.563 -0.5192  1.8914 -0.7496
   20MOL   H74115599   6.783   4.230   3.960  0.7195  0.8912  1.5668
   20MOL   H74215600   6.868   4.442   4.037 -2.5990  1.5387 -0.5695
   20MOL   C74315601   6.750   3.501   3.533  0.2629  0.2127 -0.3168
   20MOL   C74415602   6.763   3.649   3.570  0.7303 -0.5836 -0.3769
   20MOL   C74515603   6.882   3.712   3.501  0.8366 -0.1327 -0.4261
   20MOL   C74615604   6.899   3.856   3.557 -0.3116 -0.2532 -0.7572
   20MOL   O74715605   6.787   3.945   3.546 -0.0643 -0.5013 -0.1825
   20MOL   C74815606   7.015   3.629   3.517  0.3109  0.6196 -0.2275
   20MOL   C74915607   6.997   3.480   3.493  0.0096  0.2624  0.2664
   20MOL   C75015608   6.877   3.423   3.574  0.5800 -0.2953 -0.0824
   20MOL   C75115609   6.862   3.272   3.553  0.1378 -0.2986 -0.2716
   20MOL   O75215610   6.819   3.246   3.419  0.2277  0.1458 -0.0812
   20MOL   C75315611   6.706   3.177   3.390 -0.4959  0.2687 -1.3698
   20MOL   O75415612   6.616   3.160   3.471 -0.0103  0.4002  0.1641
   20MOL   C75515613   6.704   3.114   3.253 -0.0889 -0.1461  0.2887
   20MOL   C75615614   6.587   3.059   3.197  0.2526  0.5319  0.0771
   20MOL   C75715615   6.583   3.009   3.065  0.2944  0.3433  0.1638
   20MOL   C75815616   6.694   3.006   2.980 -0.9749  0.1530 -0.6609
   20MOL   C75915617   6.700   2.944   2.847  0.4233 -0.9256 -0.1341
   20MOL   O76015618   6.624   2.852   2.820 -0.2576 -0.5856  0.1984
   20MOL   O76115619   6.799   2.982   2.762  0.5172 -0.5504 -0.4179
   20MOL   C76215620   6.808   3.066   3.044  0.1295 -0.1873 -0.0157
   20MOL   C76315621   6.817   3.118   3.172 -0.3573  0.6846  0.5075
   20MOL   H76415622   6.664   3.455   3.582 -0.9095 -0.8497 -3.2242
   20MOL   H76515623   6.732   3.491   3.426 -0.0447 -0.3984 -0.2102
   20MOL   H76615624   6.664   3.685   3.540 -0.1526 -0.5132  2.4306
   20MOL   H76715625   6.768   3.660   3.678  1.3912 -1.4811 -0.3125
   20MOL   H76815626   6.859   3.717   3.395 -1.8065  0.8588  0.1625
   20MOL   H76915627   6.926   3.859   3.663 -1.1025  1.5578 -0.5780
   20MOL   H77015628   6.972   3.912   3.500 -1.0948  2.3358  0.6721
   20MOL   H77115629   7.096   3.657   3.451  1.3419 -1.6198  0.0672
   20MOL   H77215630   7.054   3.644   3.618  0.1000  1.9492 -0.3326
   20MOL   H77315631   7.088   3.440   3.537  1.2147  1.2983 -1.2606
   20MOL   H77415632   7.003   3.449   3.389  4.2901 -0.0993  0.5434
   20MOL   H77515633   6.905   3.446   3.676 -0.8931  1.4719 -0.0504
   20MOL   H77615634   6.948   3.212   3.582  1.1794  1.3955  0.1933
   20MOL   H77715635   6.785   3.233   3.619 -2.6254  1.2054 -2.4849
   20MOL   H77815636   6.498   3.056   3.258  0.7563 -1.5410  0.7678
   20MOL   H77915637   6.489   2.974   3.025 -1.3743  2.4097  2.0865
   20MOL   H78015638   6.894   3.082   2.980  0.0910 -1.7040 -0.4759
   20MOL   H78115639   6.910   3.167   3.199  0.9344 -0.8005 -1.0971
   20MOL   H78215640   6.798   2.919   2.692 -1.2570 -0.8045 -0.2026
   21MOL     C115641   5.900   4.584   0.002  0.0499  0.0611  0.2534
   21MOL     C215642   5.976   4.721   0.010 -0.7526  0.7583  0.9656
   21MOL     C315643   5.904   4.836   0.080  0.3514  0.1570  0.3923
   21MOL     C415644   5.988   4.967   0.089 -0.1418  0.3536 -0.0105
   21MOL     O515645   6.083   4.953   0.190  0.0981 -0.0738 -0.6950
   21MOL     C615646   5.763   4.859   0.017 -0.3133  0.5652  0.4737
   21MOL     C715647   5.681   4.724   0.000  0.0202 -0.7281  0.2671
   21MOL     C815648   5.759   4.604   7.970 -0.3872 -0.2565  0.0405
   21MOL     C915649   5.687   4.474   7.964 -0.3849 -0.5653  0.4268
   21MOL    O1015650   5.565   4.475   7.894 -0.5361 -0.0808 -0.6035
   21MOL    C1115651   5.486   4.369   7.876  0.0665 -0.1595  0.5092
   21MOL    O1215652   5.510   4.258   7.922 -0.1947 -0.0089 -0.0385
   21MOL    C1315653   5.361   4.401   7.804 -0.3124 -0.8164  0.2279
   21MOL    C1415654   5.265   4.299   7.763 -0.2689  0.0101  0.0731
   21MOL    C1515655   5.156   4.333   7.674 -0.1445  0.3989 -0.0673
   21MOL    C1615656   5.124   4.465   7.639 -0.0912  0.7743 -0.8116
   21MOL    C1715657   4.992   4.495   7.569  0.2449 -0.1027 -0.1981
   21MOL    O1815658   4.912   4.413   7.529  0.0328 -0.2601 -0.3302
   21MOL    O1915659   4.972   4.631   7.550 -0.7136 -0.2876  0.0857
   21MOL    C2015660   5.219   4.568   7.685 -0.1834  0.2933  0.7714
   21MOL    C2115661   5.332   4.536   7.760 -0.2681  0.2483  0.2065
   21MOL    H2215662   5.965   4.513   7.985 -2.5735 -0.5129 -2.3753
   21MOL    H2315663   5.875   4.547   0.102  0.1975  0.2092  0.3434
   21MOL    H2415664   6.073   4.711   0.059  0.0073  0.9137 -0.4796
   21MOL    H2515665   5.995   4.773   7.951  2.8674 -1.4448  0.3413
   21MOL    H2615666   5.892   4.803   0.184 -1.1551  0.0472  0.1940
   21MOL    H2715667   6.050   4.979   8.035  0.8460 -1.4139  0.4102
   21MOL    H2815668   5.924   5.054   0.099  0.0927  0.5740 -0.4183
   21MOL    H2915669   5.720   4.928   0.090  0.4364  1.8993 -0.3295
   21MOL    H3015670   5.781   4.922   7.966 -0.8099  0.1676  0.0842
   21MOL    H3115671   5.587   4.748   7.988 -0.3379  2.0209  2.2024
   21MOL    H3215672   5.656   4.703   0.104 -0.6771  1.5526  0.5957
   21MOL    H3315673   5.779   4.632   7.867 -1.1764  0.8414  0.1647
   21MOL    H3415674   5.748   4.395   7.920  2.0328  0.1890  2.3159
   21MOL    H3515675   5.663   4.444   0.030 -0.6508 -1.3749  0.1333
   21MOL    H3615676   5.269   4.197   7.798  2.5413  0.3158  0.7568
   21MOL    H3715677   5.083   4.257   7.651 -1.1559  1.5857 -0.8230
   21MOL    H3815678   5.211   4.671   7.654 -0.0112  0.3642  0.9609
   21MOL    H3915679   5.402   4.618   7.767 -1.9791  1.6598  1.3990
   21MOL    H4015680   6.085   4.862   0.214  2.8993  0.0432 -0.2371
   21MOL    C4115681   4.577   4.873   7.131 -0.1498  0.7610  0.9818
   21MOL    C4215682   4.717   4.830   7.178  0.1773 -0.2115  0.0024
   21MOL    C4315683   4.712   4.755   7.311 -0.3086  0.1788 -0.6481
   21MOL    C4415684   4.852   4.722   7.368 -0.6502  0.7744  0.2018
   21MOL    O4515685   4.840   4.652   7.487 -0.3799 -0.5150 -0.5549
   21MOL    C4615686   4.620   4.832   7.411 -0.4008  0.0579  0.2047
   21MOL    C4715687   4.482   4.861   7.359 -0.4518 -0.2171 -0.0400
   21MOL    C4815688   4.493   4.953   7.239 -0.1032  0.2853  0.5299
   21MOL    C4915689   4.368   5.021   7.180  0.1141  0.4715  0.0433
   21MOL    O5015690   4.294   5.072   7.281  0.0283 -0.1721 -0.8628
   21MOL    C5115691   4.166   5.113   7.256  0.5854 -0.2615 -0.4858
   21MOL    O5215692   4.118   5.125   7.144  0.3396  0.2862 -0.4552
   21MOL    C5315693   4.094   5.146   7.382  0.1290  0.2152 -0.0032
   21MOL    C5415694   3.961   5.195   7.372  0.3229 -0.3428  0.5306
   21MOL    C5515695   3.880   5.231   7.483  0.2596 -0.3380  0.2318
   21MOL    C5615696   3.934   5.234   7.614 -0.4081 -0.0709 -0.6899
   21MOL    C5715697   3.855   5.290   7.729  0.2499  0.5781 -0.3656
   21MOL    O5815698   3.741   5.343   7.724 -0.1141  1.0644 -0.3277
   21MOL    O5915699   3.933   5.285   7.838 -0.2158 -0.9648 -0.3673
   21MOL    C6015700   4.068   5.180   7.631 -0.0157 -0.7513 -0.3238
   21MOL    C6115701   4.145   5.148   7.511  0.0955  0.1976 -0.4218
   21MOL    H6215702   4.573   4.931   7.039  0.5068  0.1402  0.5588
   21MOL    H6315703   4.523   4.781   7.105 -0.4299  1.1623  0.1052
   21MOL    H6415704   4.770   4.772   7.102 -0.6245 -0.0453 -0.6905
   21MOL    H6515705   4.772   4.924   7.186  0.0730 -0.1302 -0.2286
   21MOL    H6615706   4.662   4.661   7.288  1.0099 -0.8136  0.4784
   21MOL    H6715707   4.910   4.664   7.295  0.2296 -2.6751  3.4661
   21MOL    H6815708   4.916   4.810   7.370  1.1148 -0.4554 -0.0893
   21MOL    H6915709   4.624   4.776   7.505  0.1364  0.5725  0.4943
   21MOL    H7015710   4.663   4.930   7.432  1.4405 -0.8111  0.5863
   21MOL    H7115711   4.410   4.887   7.437 -0.4559 -2.3986  0.7246
   21MOL    H7215712   4.437   4.765   7.335 -0.9563 -0.4010  1.5699
   21MOL    H7315713   4.556   5.035   7.273  0.2703  0.3394 -0.2676
   21MOL    H7415714   4.400   5.095   7.106  3.8852  0.0783  1.1600
   21MOL    H7515715   4.314   4.945   7.124  1.4684 -0.4906  0.0080
   21MOL    H7615716   3.910   5.205   7.277 -0.3158 -2.2969  0.6462
   21MOL    H7715717   3.779   5.265   7.463 -0.0792 -1.6039 -0.2461
   21MOL    H7815718   4.121   5.181   7.725  1.2526 -0.2837 -1.0258
   21MOL    H7915719   4.245   5.110   7.520 -0.7158 -1.7014  0.9116
   21MOL    C8015720   3.865   5.697   0.258  0.5097  0.0876  0.1994
   21MOL    C8115721   3.931   5.656   0.127  0.0438  0.3626 -0.2158
   21MOL    C8215722   3.875   5.518   0.093 -0.0557 -0.1783  0.3324
   21MOL    C8315723   3.936   5.469   7.989 -0.7025 -0.2840 -0.0071
   21MOL    O8415724   3.867   5.354   7.957  1.0757  0.4134 -0.3596
   21MOL    C8515725   3.898   5.412   0.206 -0.3028  0.1615  0.4991
   21MOL    C8615726   3.840   5.455   0.339 -0.5897 -0.7522  0.3037
   21MOL    C8715727   3.876   5.599   0.374  0.6533  0.8512  0.0779
   21MOL    C8815728   3.810   5.650   0.500  0.1204 -0.1666 -0.2278
   21MOL    O8915729   3.879   5.762   0.552  0.2406 -0.6594  0.2709
   21MOL    C9015730   3.832   5.818   0.661 -0.2498  0.5596  0.2418
   21MOL    O9115731   3.719   5.793   0.700  0.2165 -0.8892 -0.3190
   21MOL    C9215732   3.926   5.915   0.721  0.8461 -0.6644  0.3242
   21MOL    C9315733   4.055   5.934   0.667 -0.1201 -0.1246 -0.3287
   21MOL    C9415734   4.130   6.044   0.705 -0.2286  0.1228 -0.0041
   21MOL    C9515735   4.089   6.136   0.810  0.6282 -0.0040  0.5903
   21MOL    C9615736   4.159   6.254   0.863  0.3467  0.2961  0.4230
   21MOL    O9715737   4.114   6.330   0.946  0.2695  0.7139  0.5953
   21MOL    O9815738   4.277   6.279   0.796  0.0264 -0.2922  0.3467
   21MOL    C9915739   3.968   6.099   0.873  0.1856 -0.0486 -0.2272
   21MOL   C10015740   3.887   5.993   0.830  0.3186 -0.2361  0.2991
   21MOL   H10115741   3.906   5.790   0.297 -0.6169  0.5292  0.3420
   21MOL   H10215742   3.760   5.722   0.240  0.3243  0.2885  1.4855
   21MOL   H10315743   3.907   5.730   0.051  2.7752  0.6235 -0.9033
   21MOL   H10415744   4.039   5.641   0.136 -0.0436 -0.9658 -1.1567
   21MOL   H10515745   3.769   5.527   0.071 -0.3256  0.6720  1.9018
   21MOL   H10615746   3.928   5.545   7.911  1.8158 -0.5407 -0.5364
   21MOL   H10715747   4.039   5.437   7.998 -1.0128 -0.9653  1.2502
   21MOL   H10815748   3.861   5.311   0.188 -0.8880  0.8111 -2.0354
   21MOL   H10915749   4.006   5.399   0.209 -0.1166  0.6487 -2.5227
   21MOL   H11015750   3.877   5.391   0.419  3.6489  0.8800 -0.2537
   21MOL   H11115751   3.732   5.440   0.345 -0.6211 -1.3272 -1.2722
   21MOL   H11215752   3.982   5.589   0.399  1.2095 -1.1961 -2.8529
   21MOL   H11315753   3.707   5.677   0.481  0.1516  0.3571  0.3282
   21MOL   H11415754   3.800   5.571   0.575 -1.2485  1.4540  1.3447
   21MOL   H11515755   4.097   5.867   0.593  2.1326  1.3321 -0.4340
   21MOL   H11615756   4.225   6.068   0.658  1.1970  0.3497  2.8638
   21MOL   H11715757   3.920   6.153   0.953  0.9307  3.1601 -1.8380
   21MOL   H11815758   3.796   5.974   0.885  0.8424  2.0030  2.0044
   21MOL   C11915759   4.644   6.734   0.965  0.7216  0.0332  0.1338
   21MOL   C12015760   4.605   6.586   0.943  0.8751  0.6873 -0.3561
   21MOL   C12115761   4.461   6.568   0.901 -0.0867  0.9562  0.3959
   21MOL   C12215762   4.443   6.423   0.850 -1.0649 -0.1047  0.5631
   21MOL   O12315763   4.314   6.420   0.798 -0.1123 -0.2600  0.0173
   21MOL   C12415764   4.370   6.612   1.011  0.7212 -0.4867  0.6485
   21MOL   C12515765   4.393   6.765   1.033 -0.6254  0.7613 -0.4142
   21MOL   C12615766   4.542   6.797   1.058  0.3768 -0.4834  0.1049
   21MOL   C12715767   4.555   6.951   1.065  0.1545  0.2019 -0.4480
   21MOL   O12815768   4.515   7.005   0.941  0.4665  0.5447  0.6202
   21MOL   C12915769   4.562   7.120   0.888 -0.2291  0.2828 -0.4840
   21MOL   O13015770   4.626   7.205   0.958  0.0682 -0.0144  0.2680
   21MOL   C13115771   4.546   7.130   0.747  0.8736 -0.1575  0.1289
   21MOL   C13215772   4.461   7.039   0.678 -0.4765  0.5128 -0.6114
   21MOL   C13315773   4.438   7.048   0.539 -0.5390  0.1417 -0.1191
   21MOL   C13415774   4.496   7.155   0.465  0.3248  0.0422  0.1566
   21MOL   C13515775   4.483   7.173   0.320 -0.0800 -0.0951  0.0965
   21MOL   O13615776   4.520   7.277   0.260 -0.5029  0.5268 -0.0806
   21MOL   O13715777   4.434   7.057   0.258 -0.1735  0.1965  0.1827
   21MOL   C13815778   4.577   7.250   0.537  0.1712  0.5378  0.8342
   21MOL   C13915779   4.598   7.237   0.670  0.0963  0.4059 -0.0483
   21MOL   H14015780   4.741   6.736   1.014  1.3285 -0.4747 -1.0398
   21MOL   H14115781   4.655   6.786   0.869  1.5606  2.1115  1.3271
   21MOL   H14215782   4.672   6.548   0.866 -2.2134 -1.4477 -2.1196
   21MOL   H14315783   4.613   6.540   1.042 -2.9971  1.6522  0.4973
   21MOL   H14415784   4.451   6.628   0.810  2.0591  2.4346  1.1101
   21MOL   H14515785   4.519   6.397   0.777  0.3777  0.0002  2.0071
   21MOL   H14615786   4.446   6.355   0.935  0.4779  1.0456  1.4403
   21MOL   H14715787   4.263   6.596   0.997  0.3965  3.2099 -1.8201
   21MOL   H14815788   4.399   6.555   1.099  0.7753 -1.0225  0.2867
   21MOL   H14915789   4.332   6.791   1.118  0.9947  0.2067  0.9514
   21MOL   H15015790   4.359   6.816   0.943  1.4125 -2.0336 -2.8915
   21MOL   H15115791   4.570   6.758   1.156  2.1812  0.1250 -0.1580
   21MOL   H15215792   4.502   6.999   1.147  0.1915  0.9677 -0.8598
   21MOL   H15315793   4.662   6.969   1.076  0.2625 -1.4231  1.2322
   21MOL   H15415794   4.403   6.968   0.735 -3.8427  2.2085 -1.7317
   21MOL   H15515795   4.380   6.971   0.491  1.2916 -0.4110 -1.5022
   21MOL   H15615796   4.613   7.332   0.477 -0.8268 -0.5852 -1.3520
   21MOL   H15715797   4.656   7.312   0.723  2.2434 -2.0882  1.2473
   21MOL   C15815798   4.782   6.667   0.178  0.2341  0.1960  0.1109
   21MOL   C15915799   4.735   6.798   0.130 -0.4557 -0.4610 -0.2166
   21MOL   C16015800   4.590   6.826   0.155  0.4712 -0.1531 -0.1647
   21MOL   C16115801   4.558   6.962   0.078 -0.2777  0.4942 -0.0414
   21MOL   O16215802   4.449   7.045   0.115 -0.7471 -0.9164 -0.4393
   21MOL   C16315803   4.507   6.714   0.087 -0.5321 -0.4305 -0.4625
   21MOL   C16415804   4.555   6.575   0.131 -0.3726 -0.3109  0.3795
   21MOL   C16515805   4.703   6.554   0.107  0.6922 -0.8219  0.5567
   21MOL   C16615806   4.757   6.424   0.159  0.1158  0.2548  0.2855
   21MOL   O16715807   4.696   6.315   0.081 -0.3519 -0.2802 -0.5470
   21MOL   C16815808   4.770   6.201   0.047 -0.5020 -0.0142 -1.1384
   21MOL   O16915809   4.874   6.176   0.114  0.1167 -0.1072  0.1406
   21MOL   C17015810   4.709   6.124   7.978  0.3006 -0.1473  0.4935
   21MOL   C17115811   4.762   5.994   7.949 -0.2631  0.2269  0.7353
   21MOL   C17215812   4.707   5.907   7.849  0.1230 -0.5082  0.0549
   21MOL   C17315813   4.602   5.962   7.768  0.6874 -0.2390 -1.0111
   21MOL   C17415814   4.529   5.879   7.667  0.4781  0.5146  0.0018
   21MOL   O17515815   4.495   5.767   7.697 -0.1590  0.5335  0.1456
   21MOL   O17615816   4.504   5.940   7.551 -0.6818  0.1827  0.0072
   21MOL   C17715817   4.548   6.088   7.801 -0.1379 -0.2833 -0.3536
   21MOL   C17815818   4.596   6.165   7.904  0.5599 -0.1755  0.2871
   21MOL   H17915819   4.889   6.665   0.158  0.0885 -1.5554 -0.5976
   21MOL   H18015820   4.767   6.667   0.286 -0.0335  0.4758  0.0745
   21MOL   H18115821   4.795   6.874   0.179  1.0700 -1.4639 -0.4935
   21MOL   H18215822   4.753   6.800   0.022 -1.8250 -0.2183 -0.4595
   21MOL   H18315823   4.572   6.829   0.263 -0.0389  1.3654 -0.2775
   21MOL   H18415824   4.648   7.024   0.083  0.2724  0.1031 -3.7049
   21MOL   H18515825   4.551   6.942   8.007  0.1478 -1.0367  0.1975
   21MOL   H18615826   4.399   6.719   0.098 -0.8120 -3.5235 -1.3298
   21MOL   H18715827   4.514   6.730   8.015  0.2785  3.0538  0.0276
   21MOL   H18815828   4.511   6.501   0.064  0.1875  0.5401 -0.9515
   21MOL   H18915829   4.518   6.581   0.233 -0.9913 -0.6404  0.1785
   21MOL   H19015830   4.729   6.557   0.001 -1.6028  2.0398  0.0250
   21MOL   H19115831   4.866   6.416   0.156  0.0929 -0.1070  0.4053
   21MOL   H19215832   4.730   6.404   0.262  1.0467 -0.4587  0.3950
   21MOL   H19315833   4.848   5.968   8.009  0.5464  2.3025  0.5152
   21MOL   H19415834   4.745   5.806   7.840 -1.4711 -1.1939  0.8348
   21MOL   H19515835   4.464   6.129   7.747 -0.4472  0.4150  0.6399
   21MOL   H19615836   4.543   6.258   7.916  2.1869  1.0171 -1.4272
   21MOL   C19715837   4.027   6.055   7.230  0.1528  0.4364  0.0568
   21MOL   C19815838   4.091   6.009   7.367 -0.2949 -0.0909  0.7157
   21MOL   C19915839   4.226   5.943   7.346 -0.5629 -0.1283 -0.2239
   21MOL   C20015840   4.286   5.896   7.481  0.1181  0.5980 -0.2394
   21MOL   O20115841   4.418   5.865   7.460 -0.0515 -0.1048 -0.5328
   21MOL   C20215842   4.218   5.820   7.253 -0.0739 -0.0132 -0.4111
   21MOL   C20315843   4.146   5.859   7.123 -0.3178 -0.6136  0.0587
   21MOL   C20415844   4.002   5.926   7.152  0.0850 -0.6445 -0.7124
   21MOL   C20515845   3.935   5.962   7.014  0.1120  0.1578 -0.1913
   21MOL   O20615846   4.018   6.043   6.935 -0.0992 -0.1428  0.2353
   21MOL   C20715847   3.991   6.173   6.911  0.7981  0.3610  0.2361
   21MOL   O20815848   3.900   6.240   6.954 -0.1312 -0.3787  0.1018
   21MOL   C20915849   4.080   6.230   6.814  0.6950  0.4378 -0.2728
   21MOL   C21015850   4.036   6.334   6.735  0.1513 -0.0401  0.2226
   21MOL   C21115851   4.123   6.396   6.638  0.9565  0.3799 -0.7151
   21MOL   C21215852   4.254   6.349   6.622 -0.0947 -0.3088 -0.1867
   21MOL   C21315853   4.340   6.399   6.515 -0.0437 -0.4465  0.8965
   21MOL   O21415854   4.455   6.366   6.494  0.2036 -0.2197  0.5215
   21MOL   O21515855   4.270   6.497   6.444 -0.2158  0.4018 -0.1848
   21MOL   C21615856   4.308   6.250   6.708  0.0906  0.0528 -0.1467
   21MOL   C21715857   4.220   6.189   6.805  0.3145  0.6797 -0.3823
   21MOL   H21815858   3.938   6.111   7.258  0.9591  2.7932 -2.0076
   21MOL   H21915859   4.095   6.124   7.180  1.7048 -1.1563 -0.0717
   21MOL   H22015860   4.099   6.093   7.435  0.6130 -0.6254  1.2762
   21MOL   H22115861   4.027   5.940   7.423  0.7180 -0.4882  1.3954
   21MOL   H22215862   4.300   6.011   7.303 -2.0573  1.1173 -0.8651
   21MOL   H22315863   4.273   5.977   7.553 -0.3034 -0.2983  0.6872
   21MOL   H22415864   4.226   5.813   7.516  1.1724 -1.3504 -2.9116
   21MOL   H22515865   4.314   5.770   7.244  0.1248 -0.1262  2.0463
   21MOL   H22615866   4.150   5.752   7.303  1.0812  0.8233  2.3580
   21MOL   H22715867   4.145   5.779   7.050 -0.4878 -0.9992  0.4827
   21MOL   H22815868   4.206   5.932   7.069 -0.6462  0.3838  1.0113
   21MOL   H22915869   3.928   5.866   7.203  1.2160 -0.3857  1.2857
   21MOL   H23015870   3.903   5.875   6.958 -0.6236 -1.4052  2.5644
   21MOL   H23115871   3.848   6.022   7.041  0.1946 -0.3636  1.3071
   21MOL   H23215872   3.936   6.373   6.741 -0.0019 -0.1215 -1.5394
   21MOL   H23315873   4.081   6.476   6.579 -1.2112  0.7047  1.2424
   21MOL   H23415874   4.409   6.215   6.693  0.3578  0.9462 -0.4694
   21MOL   H23515875   4.262   6.111   6.866  0.0574  2.3804  2.0555
   21MOL   C23615876   4.527   6.492   5.879  0.1101  0.0963 -0.0117
   21MOL   C23715877   4.443   6.440   5.994 -0.0578  0.4485  0.3746
   21MOL   C23815878   4.440   6.532   6.117 -0.3481  0.1875 -0.3115
   21MOL   C23915879   4.348   6.476   6.225 -0.3905  0.3928  0.1001
   21MOL   O24015880   4.354   6.560   6.342 -0.8328  0.6686 -0.1458
   21MOL   C24115881   4.584   6.562   6.167  0.9365  0.2041 -1.1222
   21MOL   C24215882   4.675   6.613   6.052 -0.9226 -0.1422  0.1953
   21MOL   C24315883   4.672   6.511   5.931  0.6752 -0.3512 -0.1966
   21MOL   C24415884   4.768   6.568   5.821 -0.3996 -0.3034  0.4399
   21MOL   O24515885   4.726   6.704   5.787 -0.2036 -0.4498 -0.7737
   21MOL   C24615886   4.752   6.764   5.675  0.3528  0.0216 -0.1182
   21MOL   O24715887   4.822   6.727   5.577 -0.1491 -0.1165  0.1482
   21MOL   C24815888   4.708   6.904   5.679 -0.0363 -0.4978 -0.4764
   21MOL   C24915889   4.655   6.965   5.796  0.6572  0.3520 -0.7216
   21MOL   C25015890   4.614   7.101   5.790  0.1930  0.7762 -0.4192
   21MOL   C25115891   4.638   7.179   5.673 -0.5535 -0.2239  0.3128
   21MOL   C25215892   4.599   7.320   5.669 -0.2960 -0.0533  0.2588
   21MOL   O25315893   4.597   7.385   5.564 -0.7485  0.2271  0.2442
   21MOL   O25415894   4.563   7.366   5.787 -0.4969  0.4797  0.0850
   21MOL   C25515895   4.685   7.114   5.557 -0.4011  0.4526  0.5238
   21MOL   C25615896   4.709   6.979   5.558 -0.1883 -0.5264 -0.2126
   21MOL   H25715897   4.519   6.428   5.791  1.5360  0.3444 -0.3351
   21MOL   H25815898   4.495   6.586   5.835  0.3544 -0.5499 -1.6229
   21MOL   H25915899   4.340   6.438   5.958 -0.3800 -1.6746  1.3528
   21MOL   H26015900   4.463   6.336   6.016 -0.3956  0.1295 -0.7577
   21MOL   H26115901   4.394   6.627   6.090  0.8808  1.0225  0.4870
   21MOL   H26215902   4.247   6.468   6.184 -0.3673 -0.4895  0.2004
   21MOL   H26315903   4.370   6.370   6.240 -3.0148  0.2249  3.2556
   21MOL   H26415904   4.587   6.619   6.260 -0.4354 -2.3964  0.5751
   21MOL   H26515905   4.637   6.471   6.193  0.8452  0.6877  0.8250
   21MOL   H26615906   4.776   6.642   6.079 -0.7380  2.3598 -2.8395
   21MOL   H26715907   4.633   6.707   6.015 -1.4125 -0.7115 -0.7405
   21MOL   H26815908   4.709   6.414   5.964  0.8685  0.0803  0.8592
   21MOL   H26915909   4.872   6.575   5.850  0.3476 -0.3738 -2.1609
   21MOL   H27015910   4.761   6.506   5.732 -0.4323 -0.5127  0.5866
   21MOL   H27115911   4.648   6.909   5.888 -0.6319  1.0775 -0.3604
   21MOL   H27215912   4.573   7.145   5.880 -0.2724  0.1409 -0.3142
   21MOL   H27315913   4.685   7.162   5.461 -0.9642 -0.4808  0.0544
   21MOL   H27415914   4.735   6.919   5.472 -0.2416 -1.5389  0.4777
   21MOL   C27515915   4.653   7.905   5.656  0.0736 -0.3630 -0.0759
   21MOL   C27615916   4.654   7.756   5.695 -0.1986 -0.2382 -0.3772
   21MOL   C27715917   4.605   7.724   5.833 -0.3616 -0.2341 -0.3770
   21MOL   C27815918   4.639   7.578   5.855  0.3680  0.0469 -0.2131
   21MOL   O27915919   4.529   7.507   5.795 -0.7735 -0.2578  0.2632
   21MOL   C28015920   4.669   7.817   5.937 -0.7094  0.1066  0.1727
   21MOL   C28115921   4.658   7.967   5.905  0.3720  0.1506 -0.3694
   21MOL   C28215922   4.711   7.999   5.758  0.4783 -0.7270 -0.5457
   21MOL   C28315923   4.697   0.112   5.725 -0.3256  0.1514 -0.0631
   21MOL   O28415924   4.776   0.197   5.810 -0.0095  0.4561 -0.0480
   21MOL   C28515925   4.896   0.239   5.778 -0.5081 -0.1417  0.5150
   21MOL   O28615926   4.959   0.201   5.675 -0.2237 -0.1085  0.0886
   21MOL   C28715927   4.948   0.342   5.873 -0.3326 -0.3734 -0.3171
   21MOL   C28815928   4.885   0.371   5.999  0.2846 -0.1390  0.3032
   21MOL   C28915929   4.931   0.479   6.077 -0.4288  0.4332  0.8827
   21MOL   C29015930   5.038   0.558   6.032 -0.1911 -0.1395 -0.0174
   21MOL   C29115931   5.081   0.680   6.111  0.2275 -0.2224 -0.1274
   21MOL   O29215932   5.024   0.714   6.212  0.3836 -0.9908  0.5075
   21MOL   O29315933   5.187   0.750   6.061  0.2940 -0.0360 -0.4424
   21MOL   C29415934   5.104   0.531   5.912 -0.5652 -0.2463  0.1767
   21MOL   C29515935   5.054   0.427   5.833  0.3099 -0.0891 -0.7303
   21MOL   H29615936   4.702   7.930   5.563 -1.4649  0.9920 -0.5495
   21MOL   H29715937   4.550   7.935   5.637 -0.3319 -1.9625 -0.4969
   21MOL   H29815938   4.594   7.702   5.622 -0.3483  1.1860 -1.3157
   21MOL   H29915939   4.757   7.720   5.685  0.5261  1.2339  1.4163
   21MOL   H30015940   4.499   7.747   5.836 -0.3597  0.1449 -2.3875
   21MOL   H30115941   4.739   7.551   5.821  0.6411 -1.5434  1.7657
   21MOL   H30215942   4.634   7.558   5.962 -1.9548 -0.3246 -0.3644
   21MOL   H30315943   4.638   7.793   6.040 -0.0629  0.7137  0.5060
   21MOL   H30415944   4.776   7.796   5.936 -0.8901 -1.3169  3.5293
   21MOL   H30515945   4.709   8.028   5.979  1.3306  0.8696 -1.5937
   21MOL   H30615946   4.552   7.991   5.904  0.4746  0.5922 -1.4175
   21MOL   H30715947   4.818   7.980   5.754  0.3755 -1.1148 -1.5970
   21MOL   H30815948   4.726   0.136   5.623 -1.2140 -1.3078 -0.6790
   21MOL   H30915949   4.594   0.143   5.736 -0.8177 -0.9710 -1.3233
   21MOL   H31015950   4.787   0.336   6.024  0.7841 -1.6601  0.2039
   21MOL   H31115951   4.879   0.508   6.167  0.1483  3.5025  0.3054
   21MOL   H31215952   5.188   0.589   5.878  0.9809 -1.9025  1.0536
   21MOL   H31315953   5.094   0.420   5.733  2.6558 -2.0809  0.2859
   21MOL   C31415954   5.063   1.285   6.259 -0.1363 -0.4085  0.0103
   21MOL   C31515955   5.047   1.145   6.198 -0.2332 -0.6807 -0.5399
   21MOL   C31615956   5.148   1.122   6.086  0.7142  0.3024 -0.0198
   21MOL   C31715957   5.156   0.979   6.026  0.3767 -0.1938 -0.1175
   21MOL   O31815958   5.212   0.887   6.122 -0.4998  0.2937  0.5719
   21MOL   C31915959   5.115   1.220   5.977  0.0390  0.3296  0.9236
   21MOL   C32015960   5.136   1.370   6.026  0.0832  0.0999 -0.1448
   21MOL   C32115961   5.052   1.393   6.157 -0.2618 -0.4493 -0.1298
   21MOL   C32215962   5.062   1.533   6.216 -0.5643  0.8078 -0.8567
   21MOL   O32315963   5.196   1.554   6.267 -0.2839  0.0951  0.7641
   21MOL   C32415964   5.276   1.640   6.208  0.0480 -0.2770  0.6627
   21MOL   O32515965   5.246   1.703   6.104  0.1854  1.1726  0.3172
   21MOL   C32615966   5.409   1.646   6.271 -0.0738  0.5259  0.8405
   21MOL   C32715967   5.453   1.560   6.378 -0.0536 -0.1678  0.8040
   21MOL   C32815968   5.586   1.567   6.424 -0.6812 -0.0530 -0.8138
   21MOL   C32915969   5.674   1.665   6.367 -0.6176 -0.8113 -0.4967
   21MOL   C33015970   5.814   1.656   6.430 -0.0691  0.1913  0.1671
   21MOL   O33115971   5.834   1.646   6.551 -0.3171  0.1926  0.1395
   21MOL   O33215972   5.911   1.649   6.334 -0.3131  0.2252  0.1102
   21MOL   C33315973   5.635   1.741   6.259  0.8382  0.2833 -0.4816
   21MOL   C33415974   5.506   1.727   6.210  0.5950 -0.5991 -0.3343
   21MOL   H33515975   4.976   1.294   6.324 -1.0201 -0.1161 -1.1809
   21MOL   H33615976   5.143   1.292   6.333  1.7037  0.7944 -2.0274
   21MOL   H33715977   5.057   1.068   6.274 -1.2349 -0.7871 -0.5052
   21MOL   H33815978   4.945   1.133   6.161  0.0158 -0.3329 -1.3654
   21MOL   H33915979   5.252   1.139   6.114  0.6844  1.9281 -0.8182
   21MOL   H34015980   5.065   0.938   5.982 -1.6064  2.6597  1.1796
   21MOL   H34115981   5.234   0.994   5.952  2.9428  1.0667  2.7508
   21MOL   H34215982   5.173   1.198   5.888 -1.4119 -3.1720  0.7406
   21MOL   H34315983   5.011   1.217   5.944 -0.3983  1.7176  2.0789
   21MOL   H34415984   5.092   1.430   5.946  0.6537 -0.7982 -1.1487
   21MOL   H34515985   5.240   1.391   6.051  0.0014 -0.8709  1.0163
   21MOL   H34615986   4.952   1.378   6.116 -0.3152 -0.9865  0.1918
   21MOL   H34715987   5.032   1.608   6.143  1.2902  2.7259  0.2934
   21MOL   H34815988   5.006   1.536   6.309  1.9486 -0.9160  0.7705
   21MOL   H34915989   5.394   1.481   6.422 -0.2387 -0.0488  0.7707
   21MOL   H35015990   5.618   1.506   6.508 -0.0802  2.6257  0.9435
   21MOL   H35115991   5.699   1.811   6.207 -0.4855  1.4567 -0.5434
   21MOL   H35215992   5.475   1.797   6.134  2.4535  0.5818 -0.0262
   21MOL   C35315993   6.403   1.834   6.151  0.0883 -0.5936  0.6031
   21MOL   C35415994   6.339   1.791   6.277 -0.3345 -0.8767  0.0033
   21MOL   C35515995   6.206   1.722   6.255 -0.5082 -0.0648 -0.2184
   21MOL   C35615996   6.133   1.689   6.386 -0.2014  0.3269 -0.2686
   21MOL   O35715997   6.040   1.579   6.376 -0.1498 -0.2531 -0.0500
   21MOL   C35815998   6.114   1.796   6.154  0.9170  0.8171 -0.6100
   21MOL   C35915999   6.188   1.846   6.031  0.6586  0.0492 -0.4666
   21MOL   C36016000   6.319   1.920   6.066  0.4654  0.4190  0.1837
   21MOL   C36116001   6.400   1.971   5.950  0.6460  0.2480  0.2750
   21MOL   O36216002   6.320   2.053   5.871  0.4191 -0.4328  0.3618
   21MOL   C36316003   6.347   2.185   5.868  0.1018  0.0058  0.1991
   21MOL   O36416004   6.452   2.245   5.899 -0.0964  0.1011 -0.2667
   21MOL   C36516005   6.232   2.264   5.818 -0.2374 -0.8650  0.2409
   21MOL   C36616006   6.244   2.372   5.733  0.1869 -0.1784  0.3258
   21MOL   C36716007   6.136   2.440   5.669  0.9417 -0.3214 -0.1654
   21MOL   C36816008   6.006   2.388   5.695  0.0823 -0.4194  0.7585
   21MOL   C36916009   5.893   2.431   5.612 -0.0863  0.0232 -0.6195
   21MOL   O37016010   5.899   2.490   5.501  0.1608  0.2649  0.0260
   21MOL   O37116011   5.776   2.414   5.672  0.2548 -0.6969 -0.0838
   21MOL   C37216012   5.988   2.285   5.790  0.3146  0.3606 -0.4852
   21MOL   C37316013   6.102   2.234   5.853  0.0279 -0.4326  0.3744
   21MOL   H37416014   6.486   1.897   6.182 -0.1308 -0.2087  0.3983
   21MOL   H37516015   6.451   1.747   6.107 -1.5412  0.2878 -3.0273
   21MOL   H37616016   6.403   1.717   6.325 -1.5583 -1.6217  0.4984
   21MOL   H37716017   6.326   1.878   6.341 -1.9519 -1.2938  0.2844
   21MOL   H37816018   6.231   1.626   6.210  0.8685  0.0916  0.2061
   21MOL   H37916019   6.207   1.661   6.462 -2.9469 -1.5870  1.7872
   21MOL   H38016020   6.089   1.782   6.422 -0.8438 -0.0394 -0.1028
   21MOL   H38116021   6.040   1.727   6.114 -0.1818  1.9490 -0.5467
   21MOL   H38216022   6.067   1.876   6.212 -0.0066  0.5510 -0.9933
   21MOL   H38316023   6.118   1.913   5.981 -0.0001  1.2367  1.9834
   21MOL   H38416024   6.211   1.757   5.972  1.8610 -0.1109  0.2298
   21MOL   H38516025   6.309   2.008   6.130  0.3642  1.4143 -1.1794
   21MOL   H38616026   6.483   2.035   5.984  0.0012  1.0063  0.4431
   21MOL   H38716027   6.440   1.896   5.882 -0.3024  1.0746 -1.2239
   21MOL   H38816028   6.344   2.410   5.723  0.7631 -1.2734  1.6181
   21MOL   H38916029   6.160   2.520   5.601 -1.6413  2.7911  2.4032
   21MOL   H39016030   5.893   2.244   5.817  0.2918 -0.2224 -1.4174
   21MOL   H39116031   6.089   2.154   5.924  0.2516  0.1470  1.0745
   21MOL   C39216032   5.246   2.420   5.626  0.5881 -0.0870  0.2959
   21MOL   C39316033   5.367   2.504   5.592 -0.3456  0.5454 -0.3215
   21MOL   C39416034   5.460   2.508   5.710 -0.6800  0.3562 -0.0499
   21MOL   C39516035   5.599   2.574   5.678  0.5652  0.2788  0.7412
   21MOL   O39616036   5.660   2.477   5.596 -0.3302  0.3566  0.3767
   21MOL   C39716037   5.395   2.575   5.826  0.1268  0.6021  0.7809
   21MOL   C39816038   5.275   2.482   5.866 -0.4501  0.4868 -0.6467
   21MOL   C39916039   5.176   2.463   5.754  0.3506 -0.6266 -0.3651
   21MOL   C40016040   5.061   2.369   5.797  0.3194 -0.1751  0.3673
   21MOL   O40116041   4.976   2.428   5.895 -0.3069 -0.1882 -0.3553
   21MOL   C40216042   4.860   2.374   5.928 -0.2966  0.3306 -0.2677
   21MOL   O40316043   4.808   2.289   5.852  0.3814 -0.0392  0.1460
   21MOL   C40416044   4.806   2.407   6.066  0.3733  0.5646  0.8774
   21MOL   C40516045   4.689   2.345   6.104  0.5452  0.3189  0.5097
   21MOL   C40616046   4.630   2.357   6.234 -0.2945  0.5564  0.2539
   21MOL   C40716047   4.704   2.424   6.334 -0.6891 -0.3641 -0.4211
   21MOL   C40816048   4.666   2.409   6.474  0.2870  0.4598 -0.2826
   21MOL   O40916049   4.576   2.334   6.510  0.3806 -0.0503  0.4591
   21MOL   O41016050   4.745   2.476   6.563 -0.3954  0.4360  0.3843
   21MOL   C41116051   4.824   2.494   6.294  0.1353 -0.1369 -0.3915
   21MOL   C41216052   4.874   2.489   6.161 -0.6765  0.2970 -1.2636
   21MOL   H41316053   5.180   2.428   5.539 -0.2575  2.5496  1.1124
   21MOL   H41416054   5.274   2.316   5.641 -3.0724 -0.8592  2.5755
   21MOL   H41516055   5.420   2.451   5.512 -0.3729  0.2046 -0.1141
   21MOL   H41616056   5.341   2.607   5.570  1.8943  1.2672  0.2556
   21MOL   H41716057   5.493   2.407   5.737  0.5607  0.5244 -0.8957
   21MOL   H41816058   5.594   2.664   5.617 -1.0230 -0.4188 -0.1784
   21MOL   H41916059   5.649   2.607   5.769  0.1415 -0.3265  1.1963
   21MOL   H42016060   5.468   2.598   5.903  0.6354  0.1495  0.4412
   21MOL   H42116061   5.351   2.668   5.791  1.2085  1.1218  0.7904
   21MOL   H42216062   5.227   2.525   5.954  3.8472  0.5027  1.8225
   21MOL   H42316063   5.310   2.387   5.906  0.3648  1.4354  0.9524
   21MOL   H42416064   5.142   2.567   5.750  0.8521 -0.5092 -3.2201
   21MOL   H42516065   5.002   2.361   5.705 -0.2663  0.3736  0.6955
   21MOL   H42616066   5.093   2.269   5.828 -0.8249 -0.4827  0.5652
   21MOL   H42716067   4.632   2.287   6.033 -0.0573  0.3253  0.9759
   21MOL   H42816068   4.543   2.306   6.272  0.3167  0.8806  2.1753
   21MOL   H42916069   4.882   2.544   6.370 -2.1222  2.0408 -0.0365
   21MOL   H43016070   4.960   2.551   6.138 -0.0155  0.7596  2.0755
   21MOL   C43116071   4.651   2.277   7.129 -0.0036 -0.4372 -0.0983
   21MOL   C43216072   4.724   2.361   7.018  0.5182  0.3599  0.0664
   21MOL   C43316073   4.621   2.413   6.910  0.1654 -0.4620  0.4109
   21MOL   C43416074   4.667   2.497   6.791  0.0122 -0.5234  0.4907
   21MOL   O43516075   4.743   2.416   6.704 -0.3469  0.0601  0.0971
   21MOL   C43616076   4.543   2.294   6.851  0.2911  0.2519 -0.2788
   21MOL   C43716077   4.469   2.221   6.969 -0.4023  0.6696  1.0194
   21MOL   C43816078   4.572   2.158   7.067  0.3808 -0.4825  0.3713
   21MOL   C43916079   4.506   2.076   7.168  0.2818 -0.0009  0.5044
   21MOL   O44016080   4.497   1.947   7.111 -0.2304 -0.5562 -0.5746
   21MOL   C44116081   4.510   1.842   7.188  0.5963  0.3902  0.0679
   21MOL   O44216082   4.514   1.844   7.311 -0.2409 -0.1276  0.2623
   21MOL   C44316083   4.503   1.715   7.110  0.3923 -0.0935 -0.5127
   21MOL   C44416084   4.464   1.588   7.170  1.0842  0.6162 -0.0796
   21MOL   C44516085   4.461   1.474   7.091 -0.5570  0.3441 -0.5311
   21MOL   C44616086   4.503   1.474   6.954 -0.3894 -0.0092 -0.1080
   21MOL   C44716087   4.511   1.338   6.885 -0.4877  0.1177 -1.4808
   21MOL   O44816088   4.481   1.229   6.937  0.1058  0.2943  0.8074
   21MOL   O44916089   4.561   1.346   6.764 -0.5655 -0.0315 -0.0349
   21MOL   C45016090   4.548   1.592   6.893 -0.6043 -1.1839  0.2476
   21MOL   C45116091   4.538   1.710   6.972  0.6964 -0.4572 -0.0600
   21MOL   H45216092   4.727   2.223   7.186  0.5034  0.8480  0.4528
   21MOL   H45316093   4.584   2.340   7.187  2.4741  1.2539  1.0026
   21MOL   H45416094   4.780   2.444   7.062  0.0944  1.5473 -1.5560
   21MOL   H45516095   4.805   2.298   6.980  0.4892  0.5755 -0.3658
   21MOL   H45616096   4.556   2.477   6.970  1.8401  0.6172  1.1220
   21MOL   H45716097   4.580   2.536   6.738  0.7328 -1.5096 -1.4955
   21MOL   H45816098   4.736   2.573   6.826 -0.9397 -0.1313  1.5278
   21MOL   H45916099   4.468   2.326   6.778  0.8590 -0.1610 -1.0493
   21MOL   H46016100   4.603   2.233   6.784 -1.3425 -1.7382  0.0116
   21MOL   H46116101   4.405   2.140   6.931 -1.8131  1.6545  1.2562
   21MOL   H46216102   4.398   2.287   7.018 -1.4156 -0.3981  1.0305
   21MOL   H46316103   4.646   2.095   7.019  1.7372  0.0330  1.7432
   21MOL   H46416104   4.580   2.072   7.247 -0.3054  2.0056  1.1965
   21MOL   H46516105   4.417   2.115   7.218  0.3345  0.2805  0.3805
   21MOL   H46616106   4.428   1.588   7.272  1.3164  1.4624  0.0067
   21MOL   H46716107   4.438   1.382   7.143  2.1987 -0.9165 -1.4443
   21MOL   H46816108   4.601   1.595   6.799  0.1240 -1.3189  0.6549
   21MOL   H46916109   4.579   1.799   6.927  1.3056 -1.0376 -0.6454
   21MOL   C47016110   4.614   0.838   6.412  0.3935 -0.1903 -0.3731
   21MOL   C47116111   4.535   0.960   6.461 -0.3415 -0.3519 -0.3889
   21MOL   C47216112   4.610   1.023   6.571  0.2244  0.0116  0.2948
   21MOL   C47316113   4.530   1.148   6.622 -0.1999  0.1003 -0.4069
   21MOL   O47416114   4.619   1.216   6.712 -0.1279 -0.0667  0.5335
   21MOL   C47516115   4.633   0.913   6.689 -0.3025  0.5444  0.1974
   21MOL   C47616116   4.719   0.797   6.628  0.3946 -0.4376 -0.5415
   21MOL   C47716117   4.649   0.728   6.513  0.1723  0.1020  0.6343
   21MOL   C47816118   4.734   0.616   6.451  0.2701 -0.0584 -0.7252
   21MOL   O47916119   4.678   0.571   6.331  0.3437  0.2437  0.0352
   21MOL   C48016120   4.635   0.443   6.315  0.2031  0.3733  1.0704
   21MOL   O48116121   4.659   0.355   6.399  0.5137 -0.0099  0.1722
   21MOL   C48216122   4.566   0.426   6.192  0.4799  0.6191 -0.1917
   21MOL   C48316123   4.534   0.536   6.110 -0.9365 -0.0396 -0.3716
   21MOL   C48416124   4.477   0.516   5.983  0.7024  0.1119 -0.0369
   21MOL   C48516125   4.444   0.390   5.937 -0.1412  0.7854  0.0757
   21MOL   C48616126   4.399   0.358   5.798  0.0014  0.0368 -0.2252
   21MOL   O48716127   4.380   0.247   5.750 -0.8232 -0.5726  0.5654
   21MOL   O48816128   4.360   0.476   5.733  0.1691  0.5779 -0.9021
   21MOL   C48916129   4.454   0.281   6.030 -0.3716  0.3363  0.3743
   21MOL   C49016130   4.518   0.296   6.156 -0.4519  0.4071  0.5472
   21MOL   H49116131   4.547   0.798   6.336 -1.2012 -0.7814  1.3178
   21MOL   H49216132   4.707   0.855   6.357  0.2624 -0.6866 -0.7564
   21MOL   H49316133   4.513   1.034   6.384 -0.3013 -1.5158 -1.5424
   21MOL   H49416134   4.437   0.934   6.502 -0.6293 -2.3078 -2.1890
   21MOL   H49516135   4.708   1.061   6.543 -0.5843  4.5096  2.9848
   21MOL   H49616136   4.486   1.217   6.549 -1.1332  1.2669  1.2077
   21MOL   H49716137   4.439   1.124   6.678  0.2498 -1.5381 -0.3841
   21MOL   H49816138   4.689   0.951   6.774 -0.4015 -0.8645  0.9056
   21MOL   H49916139   4.538   0.884   6.735 -0.8618 -0.7505 -1.7163
   21MOL   H50016140   4.733   0.719   6.703 -1.3133 -0.2350  0.0042
   21MOL   H50116141   4.816   0.835   6.596  0.1391 -0.8114 -1.7669
   21MOL   H50216142   4.561   0.673   6.545  0.5717 -0.1352  1.3390
   21MOL   H50316143   4.825   0.667   6.419 -1.5304  2.1974 -2.4296
   21MOL   H50416144   4.768   0.544   6.525 -0.6062  1.5317  1.2967
   21MOL   H50516145   4.578   0.632   6.134 -3.5956  1.3470 -0.7730
   21MOL   H50616146   4.466   0.605   5.923  2.3201  1.3387  1.4157
   21MOL   H50716147   4.408   0.186   6.007 -1.2872  1.2322 -1.6365
   21MOL   H50816148   4.523   0.216   6.228 -0.5281 -0.2303 -0.1527
   21MOL   C50916149   4.098   0.548   5.243 -0.3698 -0.3834  0.1157
   21MOL   C51016150   4.148   0.561   5.381 -0.5558  0.0540  0.0285
   21MOL   C51116151   4.109   0.432   5.461 -0.4212 -0.9072  0.1219
   21MOL   C51216152   4.166   0.443   5.604 -1.0989 -0.6473  0.7898
   21MOL   O51316153   4.305   0.462   5.599  0.1031 -1.0895 -0.0875
   21MOL   C51416154   3.955   0.409   5.459  0.2540  0.6787  0.6339
   21MOL   C51516155   3.912   0.391   5.313  0.1723 -0.2132  0.1018
   21MOL   C51616156   3.950   0.517   5.232  0.5320 -0.1690 -0.0611
   21MOL   C51716157   3.911   0.503   5.083 -0.0420  0.4406 -0.2300
   21MOL   O51816158   3.775   0.495   5.069 -0.3000  0.5031 -0.0496
   21MOL   C51916159   3.712   0.525   4.956  0.5840  0.5500 -0.6182
   21MOL   O52016160   3.765   0.572   4.858 -0.5973 -0.4130  0.1622
   21MOL   C52116161   3.571   0.489   4.962  0.0827 -0.3163 -0.9099
   21MOL   C52216162   3.493   0.481   4.847 -0.2685 -0.9708 -0.0649
   21MOL   C52316163   3.363   0.436   4.852 -0.4579  0.4490  0.6572
   21MOL   C52416164   3.298   0.398   4.965 -0.5955  0.5122 -0.3589
   21MOL   C52516165   3.155   0.349   4.959  0.3951  0.3542 -0.5715
   21MOL   O52616166   3.092   0.294   5.047 -0.3476 -0.6870  0.0281
   21MOL   O52716167   3.094   0.374   4.844  0.3763  0.3218  0.3221
   21MOL   C52816168   3.370   0.417   5.084 -0.3539  0.2559  0.7147
   21MOL   C52916169   3.503   0.465   5.084 -0.9073 -0.1002  0.2088
   21MOL   H53016170   4.118   0.631   5.175  1.2190 -1.3252 -0.5958
   21MOL   H53116171   4.156   0.470   5.193  1.4330  1.4344 -0.7213
   21MOL   H53216172   4.257   0.564   5.381 -0.5060 -1.0260  2.0259
   21MOL   H53316173   4.108   0.650   5.429 -0.7962 -0.0013 -0.0714
   21MOL   H53416174   4.158   0.346   5.415  0.0399 -0.4566 -0.2343
   21MOL   H53516175   4.123   0.530   5.654 -1.1796  1.4837 -2.8201
   21MOL   H53616176   4.146   0.353   5.662  1.5455 -1.4724  0.5130
   21MOL   H53716177   3.932   0.326   5.525  0.2293  1.1232  1.1855
   21MOL   H53816178   3.917   0.501   5.502 -1.5195 -0.6635  2.0098
   21MOL   H53916179   3.806   0.368   5.307 -0.3925  2.2624  0.0794
   21MOL   H54016180   3.960   0.300   5.278  2.2034  0.1983  1.6946
   21MOL   H54116181   3.888   0.600   5.265 -0.3791  0.0805 -2.3472
   21MOL   H54216182   3.945   0.592   5.029  0.2598  0.0138 -0.7513
   21MOL   H54316183   3.960   0.420   5.032  2.8459  1.8760  0.1275
   21MOL   H54416184   3.540   0.506   4.753  0.0933  1.5800  0.7742
   21MOL   H54516185   3.329   0.418   4.751  4.0279 -1.3925 -0.6649
   21MOL   H54616186   3.322   0.387   5.175  0.1021  2.5780  1.7435
   21MOL   H54716187   3.559   0.481   5.175  1.2085 -1.5242 -0.8019
   21MOL   C54816188   2.772   7.973   4.658 -0.7100  0.0805  0.5396
   21MOL   C54916189   2.899   0.003   4.715 -0.1690  0.2799 -0.6784
   21MOL   C55016190   2.948   0.113   4.631  0.6992 -0.9267  0.3002
   21MOL   C55116191   3.049   0.200   4.693 -0.7302  0.3336  0.5339
   21MOL   O55216192   2.995   0.268   4.800  0.0523  0.3765 -0.6279
   21MOL   C55316193   2.974   0.082   4.488  0.6457 -0.0308  0.5135
   21MOL   C55416194   2.857   0.016   4.430 -0.5357 -0.2564  0.7887
   21MOL   C55516195   2.804   7.925   4.510  0.0193 -0.4230  0.4444
   21MOL   C55616196   2.677   7.865   4.445 -0.7365 -1.0443 -0.1282
   21MOL   O55716197   2.709   7.815   4.311 -0.3970  0.0024 -0.1065
   21MOL   C55816198   2.681   7.884   4.199 -0.4001 -0.2461 -0.0199
   21MOL   O55916199   2.627   7.997   4.203 -0.1140  0.2891  0.3001
   21MOL   C56016200   2.734   7.818   4.075 -0.2929 -0.5172  0.0226
   21MOL   C56116201   2.732   7.881   3.946  0.0445  0.1488 -0.9299
   21MOL   C56216202   2.790   7.823   3.833  0.0143  0.1272  0.1441
   21MOL   C56316203   2.843   7.695   3.841  1.2714 -0.1779 -0.0838
   21MOL   C56416204   2.910   7.626   3.728  0.2368  0.2374  0.9851
   21MOL   O56516205   2.928   7.499   3.724  0.2913 -0.2440  0.5864
   21MOL   O56616206   2.956   7.710   3.625 -0.2984 -0.1894 -0.1338
   21MOL   C56716207   2.835   7.633   3.965 -0.1770 -0.2998  0.6603
   21MOL   C56816208   2.786   7.691   4.082 -0.0991  0.3591  0.0641
   21MOL   H56916209   2.745   7.886   4.718 -2.3385 -0.6684 -1.2417
   21MOL   H57016210   2.698   0.018   4.657 -0.5101  0.2630 -0.4563
   21MOL   H57116211   2.886   0.045   4.815  1.3839 -0.1577 -0.2790
   21MOL   H57216212   2.984   7.971   4.724  2.3627  3.6281  1.8299
   21MOL   H57316213   2.862   0.181   4.631 -0.4033 -2.2552  3.2574
   21MOL   H57416214   3.137   0.151   4.734 -1.5090  0.1243  1.9834
   21MOL   H57516215   3.095   0.275   4.628 -1.1802 -0.2311 -0.4446
   21MOL   H57616216   3.005   0.173   4.436  0.2570  1.1847  2.3753
   21MOL   H57716217   3.056   0.010   4.486 -0.3389 -1.1658 -2.7271
   21MOL   H57816218   2.871   8.025   4.325 -0.2073 -0.2676  0.8364
   21MOL   H57916219   2.773   0.085   4.431 -2.3522 -2.4045  1.5019
   21MOL   H58016220   2.874   7.842   4.514 -0.9896 -1.2459  1.3735
   21MOL   H58116221   2.642   7.777   4.500  0.0879  0.0260  2.1418
   21MOL   H58216222   2.599   7.941   4.448  1.5095  1.2573  3.5231
   21MOL   H58316223   2.688   7.979   3.932 -0.1357  0.0177 -1.2939
   21MOL   H58416224   2.791   7.874   3.738  1.3137  0.7866  0.4936
   21MOL   H58516225   2.881   7.538   3.987  0.3830 -0.2542 -0.3183
   21MOL   H58616226   2.794   7.639   4.177 -1.4587  0.5552  0.2887
   21MOL   C58716227   3.225   7.259   3.554 -0.0555  0.5844 -0.2493
   21MOL   C58816228   3.152   7.394   3.559 -0.4410  0.3774  0.5212
   21MOL   C58916229   3.183   7.492   3.443 -0.4465  0.1206 -0.5735
   21MOL   C59016230   3.127   7.632   3.475 -0.3008 -0.2549 -0.3309
   21MOL   O59116231   2.991   7.623   3.502  0.6701 -0.2456 -0.4078
   21MOL   C59216232   3.336   7.507   3.422  0.0713 -0.0462  0.0828
   21MOL   C59316233   3.396   7.365   3.403 -0.5947 -0.0144 -0.2408
   21MOL   C59416234   3.374   7.280   3.530  0.0397 -0.2153 -0.0930
   21MOL   C59516235   3.453   7.148   3.524  0.7659 -0.1209  0.1779
   21MOL   O59616236   3.478   7.111   3.651  0.2981  0.2798 -0.1335
   21MOL   C59716237   3.401   7.042   3.727 -0.1366  0.0583 -0.8684
   21MOL   O59816238   3.309   6.974   3.681 -0.5301  0.0539  0.0185
   21MOL   C59916239   3.440   7.046   3.869  0.0144 -0.0489  0.0849
   21MOL   C60016240   3.354   6.976   3.959 -0.4763 -0.2022 -0.5389
   21MOL   C60116241   3.384   6.971   4.094 -0.0011  0.0008  0.2853
   21MOL   C60216242   3.489   7.042   4.144 -0.2253 -0.0801  0.1335
   21MOL   C60316243   3.527   7.031   4.285 -0.0741  0.4345  0.2624
   21MOL   O60416244   3.569   7.125   4.347  0.5748  0.1910 -0.7440
   21MOL   O60516245   3.525   6.904   4.328 -0.3958 -0.0161  0.4501
   21MOL   C60616246   3.565   7.128   4.058 -0.1153  0.2130  0.1800
   21MOL   C60716247   3.547   7.125   3.922  0.7966 -0.1654 -0.4786
   21MOL   H60816248   3.215   7.218   3.654  0.8876 -0.9083 -0.7460
   21MOL   H60916249   3.196   7.199   3.468  1.1827  1.8103 -1.5726
   21MOL   H61016250   3.044   7.376   3.559 -0.3672 -0.1062  1.7477
   21MOL   H61116251   3.181   7.439   3.654  0.5799  0.7847  0.0241
   21MOL   H61216252   3.142   7.460   3.348  0.7027  0.6540 -1.2604
   21MOL   H61316253   3.177   7.658   3.568  0.4957  1.6512 -1.2744
   21MOL   H61416254   3.157   7.709   3.404  1.2063 -0.1415  0.4183
   21MOL   H61516255   3.353   7.558   3.328  0.0273  0.9820  0.6209
   21MOL   H61616256   3.387   7.557   3.505 -1.1346 -1.8468  1.9716
   21MOL   H61716257   3.499   7.375   3.368 -0.9224 -0.9881 -1.5166
   21MOL   H61816258   3.347   7.305   3.327  0.7084 -1.6631  0.1872
   21MOL   H61916259   3.407   7.342   3.613  1.2721  0.2843 -0.9414
   21MOL   H62016260   3.395   7.074   3.469  1.2234  0.8190 -1.5971
   21MOL   H62116261   3.549   7.172   3.479  0.7501  0.0494  0.2337
   21MOL   H62216262   3.274   6.919   3.915  0.5080  0.2223 -2.9420
   21MOL   H62316263   3.328   6.908   4.161  0.3627 -0.3587  0.2472
   21MOL   H62416264   3.652   7.183   4.089 -0.4552  0.0989  1.3603
   21MOL   H62516265   3.617   7.185   3.867  1.2768 -1.5543 -1.4154
   21MOL   C62616266   3.272   6.570   4.497 -0.0065  0.0327 -0.5399
   21MOL   C62716267   3.359   6.694   4.481  0.0691  0.2164 -0.2097
   21MOL   C62816268   3.447   6.734   4.598 -0.1858 -0.1200 -0.3326
   21MOL   C62916269   3.506   6.878   4.572 -1.4235  0.5919 -0.4790
   21MOL   O63016270   3.596   6.878   4.461 -0.5077 -0.2536  0.1193
   21MOL   C63116271   3.373   6.736   4.731 -0.1041 -0.1318 -0.1153
   21MOL   C63216272   3.301   6.603   4.750 -0.0577 -0.0832 -0.0480
   21MOL   C63316273   3.203   6.569   4.629  1.0290 -0.2856 -0.7548
   21MOL   C63416274   3.122   6.438   4.645 -0.1164 -0.7499 -0.2398
   21MOL   O63516275   3.034   6.437   4.535 -0.3351  0.3643  0.2231
   21MOL   C63616276   2.946   6.334   4.522  0.8298  0.4212  0.5791
   21MOL   O63716277   2.918   6.255   4.610  0.3022 -0.2961  0.4159
   21MOL   C63816278   2.882   6.330   4.386 -0.8436  0.2680 -0.6768
   21MOL   C63916279   2.944   6.397   4.278 -0.7257 -0.3103  0.6174
   21MOL   C64016280   2.889   6.390   4.150  0.6848  0.4440 -0.8796
   21MOL   C64116281   2.768   6.330   4.123 -0.2633  0.1623 -0.0871
   21MOL   C64216282   2.705   6.343   3.994  0.5146  0.6934 -0.6059
   21MOL   O64316283   2.760   6.406   3.904 -0.2904 -0.1024  0.7482
   21MOL   O64416284   2.579   6.293   3.992  0.2913 -0.0528 -0.4111
   21MOL   C64516285   2.715   6.251   4.226  0.2854  0.5632 -1.0975
   21MOL   C64616286   2.775   6.245   4.357 -0.0307  0.3126 -0.1529
   21MOL   H64716287   3.200   6.565   4.415 -0.4162  1.1208 -0.2615
   21MOL   H64816288   3.346   6.490   4.493 -0.1980 -0.0880 -2.2186
   21MOL   H64916289   3.416   6.681   4.389 -1.9396  0.0284 -1.4355
   21MOL   H65016290   3.295   6.776   4.450 -0.4577  0.5092  1.5832
   21MOL   H65116291   3.537   6.674   4.597 -0.2468 -0.2998  1.6688
   21MOL   H65216292   3.436   6.961   4.571 -0.3871  1.4802 -0.4476
   21MOL   H65316293   3.570   6.888   4.661 -0.0077  0.7599 -1.4955
   21MOL   H65416294   3.437   6.734   4.819  1.5411  1.4810 -1.2534
   21MOL   H65516295   3.297   6.814   4.736 -0.9237 -0.9901  1.2494
   21MOL   H65616296   3.249   6.599   4.846  0.4451  0.8374  0.2657
   21MOL   H65716297   3.371   6.520   4.760 -0.3689 -0.2906  0.4564
   21MOL   H65816298   3.126   6.646   4.623  1.1254 -0.1766 -0.5844
   21MOL   H65916299   3.190   6.354   4.643  0.6699 -0.1232  0.0625
   21MOL   H66016300   3.064   6.434   4.738 -1.4671  4.7641 -0.6637
   21MOL   H66116301   3.032   6.457   4.290 -0.4418 -0.4689 -0.6165
   21MOL   H66216302   2.950   6.435   4.073 -0.0047 -0.5940 -2.0519
   21MOL   H66316303   2.628   6.192   4.199  0.9632 -2.0981  2.1078
   21MOL   H66416304   2.736   6.190   4.441  3.1601 -0.5076  0.8519
   21MOL   C66516305   2.179   6.223   3.585  0.0063  0.3652 -0.1151
   21MOL   C66616306   2.282   6.228   3.707 -0.4264 -0.1452 -0.7260
   21MOL   C66716307   2.421   6.209   3.651 -0.1072 -0.1081  0.4322
   21MOL   C66816308   2.525   6.204   3.765 -0.1639 -0.2785 -0.4074
   21MOL   O66916309   2.500   6.313   3.860 -0.1381  0.3538 -0.0504
   21MOL   C67016310   2.434   6.072   3.573  1.1554 -0.5330 -0.1859
   21MOL   C67116311   2.319   6.054   3.465 -0.5414 -0.2482  0.6075
   21MOL   C67216312   2.179   6.076   3.532 -0.4761 -0.7487 -0.1030
   21MOL   C67316313   2.063   6.039   3.439 -0.8713  0.3417 -0.0245
   21MOL   O67416314   2.065   5.900   3.427  0.1964 -0.7899 -0.0147
   21MOL   C67516315   1.967   5.848   3.344 -0.0240  0.6498  0.5624
   21MOL   O67616316   1.899   5.910   3.265  0.5700  0.2181  0.0939
   21MOL   C67716317   1.962   5.697   3.350  0.0241 -0.1199  0.2908
   21MOL   C67816318   2.019   5.624   3.458 -0.4524 -0.2790  0.4137
   21MOL   C67916319   2.005   5.485   3.465 -0.9293 -0.4965 -0.4097
   21MOL   C68016320   1.939   5.414   3.364  0.0566  0.3037  0.4395
   21MOL   C68116321   1.928   5.263   3.373 -0.4601 -0.5037  0.2741
   21MOL   O68216322   2.005   5.192   3.443 -0.0979  0.4092  0.4943
   21MOL   O68316323   1.830   5.206   3.299  0.2979 -0.0051  0.3893
   21MOL   C68416324   1.885   5.485   3.254  0.0415  0.3649  0.7256
   21MOL   C68516325   1.896   5.627   3.250  0.1877  0.4297  0.6050
   21MOL   H68616326   2.084   6.250   3.631  0.1260 -2.2639  1.7788
   21MOL   H68716327   2.203   6.299   3.510 -0.0775 -0.9202 -1.4580
   21MOL   H68816328   2.269   6.309   3.779  0.2824 -0.4303 -0.2689
   21MOL   H68916329   2.268   6.146   3.777  1.6248 -0.7969 -1.0418
   21MOL   H69016330   2.445   6.292   3.584 -0.4261 -0.3479  0.0197
   21MOL   H69116331   2.522   6.109   3.819 -0.4571  0.6077  1.1495
   21MOL   H69216332   2.629   6.205   3.731  0.2740 -1.3734  0.8532
   21MOL   H69316333   2.529   6.059   3.522  0.8363 -1.9408 -0.4655
   21MOL   H69416334   2.404   5.989   3.638 -2.6248  0.4129 -0.5622
   21MOL   H69516335   2.330   5.952   3.430  1.9703 -0.3407  1.5930
   21MOL   H69616336   2.330   6.130   3.387 -1.0194 -0.3047  0.4841
   21MOL   H69716337   2.174   6.013   3.620 -1.0411  0.5417  0.8058
   21MOL   H69816338   1.975   6.076   3.492 -1.6219 -0.8929 -0.3930
   21MOL   H69916339   2.080   6.082   3.341  1.8523 -1.4499 -0.4068
   21MOL   H70016340   2.064   5.683   3.537  1.8845  1.6976 -2.3232
   21MOL   H70116341   2.059   5.439   3.547 -0.4934  0.2403 -0.2819
   21MOL   H70216342   1.820   5.440   3.180  0.1545 -0.1591  0.9401
   21MOL   H70316343   1.848   5.687   3.173  1.1415  0.3745 -0.0416
   21MOL   C70416344   1.664   4.666   3.189 -0.6167 -0.0637 -0.0330
   21MOL   C70516345   1.694   4.815   3.190 -0.1854 -0.0187 -0.4007
   21MOL   C70616346   1.843   4.844   3.215 -0.3364  0.0759  0.7653
   21MOL   C70716347   1.868   4.994   3.214 -0.0291 -0.3198 -0.5718
   21MOL   O70816348   1.816   5.057   3.328 -0.4642  0.3328  0.1891
   21MOL   C70916349   1.904   4.772   3.335  0.7710  0.2776 -0.2375
   21MOL   C71016350   1.869   4.621   3.347  0.3531 -0.7457  0.4702
   21MOL   C71116351   1.715   4.593   3.321 -0.3822 -0.1278  0.2717
   21MOL   C71216352   1.702   4.446   3.300 -0.2154  0.4582 -0.0751
   21MOL   O71316353   1.755   4.382   3.411  0.5043 -0.1780 -0.2927
   21MOL   C71416354   1.718   4.256   3.435  0.3598 -0.1400  0.3263
   21MOL   O71516355   1.647   4.196   3.352  0.0127 -0.0961 -0.3533
   21MOL   C71616356   1.770   4.191   3.558  0.8863  1.0533  0.3296
   21MOL   C71716357   1.759   4.050   3.569 -0.7625 -0.0581 -0.1919
   21MOL   C71816358   1.807   3.983   3.695  0.9093 -0.1479  0.4694
   21MOL   C71916359   1.840   4.063   3.801 -0.3813  0.6141  0.7164
   21MOL   C72016360   1.899   4.004   3.918  0.0299  0.2412 -0.2169
   21MOL   O72116361   1.905   4.062   4.030  0.3036 -0.1756  0.1895
   21MOL   O72216362   1.963   3.888   3.898  0.3653 -0.1973  0.1346
   21MOL   C72316363   1.832   4.205   3.795  0.2630 -0.2648  0.8883
   21MOL   C72416364   1.803   4.270   3.672 -0.9274 -0.4244  0.1477
   21MOL   H72516365   1.556   4.657   3.181 -0.8848  2.6000  0.1461
   21MOL   H72616366   1.704   4.621   3.098  2.2901  1.3619  0.4527
   21MOL   H72716367   1.665   4.869   3.100  0.9432  2.4564  0.6436
   21MOL   H72816368   1.632   4.866   3.264  0.3797 -0.4972  0.4204
   21MOL   H72916369   1.901   4.793   3.138  1.0389  0.9009  1.2444
   21MOL   H73016370   1.971   5.017   3.240 -0.0926 -1.5587  0.8294
   21MOL   H73116371   1.846   5.042   3.118 -0.3649 -0.9474 -0.8123
   21MOL   H73216372   2.011   4.786   3.324  1.0293 -1.4345 -0.1694
   21MOL   H73316373   1.877   4.806   3.435  1.5435 -1.3714  0.5551
   21MOL   H73416374   1.905   4.576   3.439  0.1721 -1.7205  0.0752
   21MOL   H73516375   1.918   4.576   3.260 -0.6460 -1.5583  0.3128
   21MOL   H73616376   1.656   4.627   3.406 -4.5135 -2.3064 -1.5175
   21MOL   H73716377   1.595   4.425   3.300 -0.2132  0.2762  3.5430
   21MOL   H73816378   1.755   4.414   3.210  1.9770  0.2675  1.2772
   21MOL   H73916379   1.738   3.987   3.484  1.2586 -0.3064 -0.5273
   21MOL   H74016380   1.802   3.876   3.703 -3.3871 -0.0493  0.6233
   21MOL   H74116381   1.846   4.269   3.881  1.0451  3.1345 -1.6648
   21MOL   H74216382   1.805   4.378   3.669  0.1678 -0.4736 -1.8841
   21MOL   C74316383   2.015   3.602   4.440 -0.5166  0.4892  0.6392
   21MOL   C74416384   1.944   3.617   4.305  0.2688 -0.6253  0.3992
   21MOL   C74516385   1.995   3.735   4.230 -0.9070 -0.1198 -0.5192
   21MOL   C74616386   1.935   3.750   4.088 -0.5635  0.5426 -0.3783
   21MOL   O74716387   2.034   3.825   4.013  0.1288  0.1484 -0.0553
   21MOL   C74816388   2.005   3.872   4.322 -0.5616  0.1528  0.4238
   21MOL   C74916389   2.075   3.849   4.458  0.2659  0.2301  0.1856
   21MOL   C75016390   2.006   3.726   4.531 -0.0902  0.3832  0.1815
   21MOL   C75116391   2.076   3.701   4.664  0.0894 -0.9671  0.7600
   21MOL   O75216392   2.218   3.685   4.652  0.6265 -0.3018  0.0896
   21MOL   C75316393   2.299   3.701   4.756  0.4032 -0.2435  0.8522
   21MOL   O75416394   2.261   3.747   4.865 -0.1968 -0.4914 -0.0092
   21MOL   C75516395   2.442   3.667   4.723 -0.0538  0.3616  0.3587
   21MOL   C75616396   2.540   3.667   4.827  0.1220  0.1704 -0.2719
   21MOL   C75716397   2.672   3.634   4.795 -0.1546  0.3713 -0.6990
   21MOL   C75816398   2.704   3.595   4.666 -0.4421 -0.1998  0.3837
   21MOL   C75916399   2.847   3.557   4.636 -0.2268 -0.0730 -0.0045
   21MOL   O76016400   2.930   3.520   4.721  0.4170  0.1417  0.2114
   21MOL   O76116401   2.870   3.542   4.504 -0.2416 -0.0700  0.5642
   21MOL   C76216402   2.617   3.614   4.563  0.2042  0.0774  0.5127
   21MOL   C76316403   2.479   3.646   4.587 -0.3446  0.6243  0.5288
   21MOL   H76416404   1.985   3.517   4.502 -0.0264  0.1077  0.3538
   21MOL   H76516405   2.121   3.591   4.419 -1.1734 -3.5599 -1.1326
   21MOL   H76616406   1.962   3.527   4.247  3.2272  0.2603 -0.1337
   21MOL   H76716407   1.835   3.617   4.315  0.2132  0.0367 -0.1744
   21MOL   H76816408   2.099   3.710   4.206 -0.6212  0.4806  0.0675
   21MOL   H76916409   1.919   3.652   4.042  1.3748 -0.8204  1.7337
   21MOL   H77016410   1.846   3.812   4.089 -1.8972 -1.3241  0.3690
   21MOL   H77116411   2.056   3.947   4.262 -1.2049  1.3755  1.3875
   21MOL   H77216412   1.908   3.919   4.329 -0.6209  0.2776 -0.9936
   21MOL   H77316413   2.078   3.934   4.527  1.9918 -0.2909  0.7781
   21MOL   H77416414   2.178   3.822   4.435  0.8231  0.0008  2.8419
   21MOL   H77516415   1.905   3.765   4.541 -0.5539 -0.8326  0.3114
   21MOL   H77616416   2.056   3.788   4.726  0.9998 -1.0417  1.1693
   21MOL   H77716417   2.017   3.621   4.709 -0.5144 -0.9992 -0.0691
   21MOL   H77816418   2.515   3.690   4.930 -1.4420  0.0771 -0.6152
   21MOL   H77916419   2.745   3.637   4.874 -1.2491 -3.1255  0.5341
   21MOL   H78016420   2.641   3.592   4.460 -0.8073 -1.6877  0.6464
   21MOL   H78116421   2.416   3.646   4.499  2.9688  1.7076 -1.9696
   21MOL   H78216422   2.914   3.460   4.486 -1.2018 -0.6848  0.9786
   22MOL     C116423   3.905   0.122   3.125 -0.5493  0.7595 -0.3175
   22MOL     C216424   3.771   0.193   3.141 -0.2040 -0.7130 -0.1758
   22MOL     C316425   3.776   0.331   3.076  0.6676 -0.3255 -0.1822
   22MOL     C416426   3.641   0.404   3.086  0.2760  0.6495  0.2004
   22MOL     O516427   3.536   0.345   3.013  0.3968  0.0915 -0.1364
   22MOL     C616428   3.886   0.415   3.141  0.0307  0.3904  0.2215
   22MOL     C716429   4.019   0.339   3.124 -0.3880 -0.1790 -0.5437
   22MOL     C816430   4.023   0.206   3.188 -0.1310 -0.1384  0.0110
   22MOL     C916431   4.158   0.139   3.164 -0.2620  0.4554  0.1434
   22MOL    O1016432   4.191   0.105   3.027 -0.2908  0.2717 -0.0460
   22MOL    C1116433   4.287   0.010   3.002 -0.3037 -0.4594 -0.3099
   22MOL    O1216434   4.343   7.980   3.090  0.2884 -0.3504  0.9621
   22MOL    C1316435   4.317   0.001   2.860  0.3282  0.6767  0.0974
   22MOL    C1416436   4.404   7.933   2.816 -0.0975 -0.6037 -0.7204
   22MOL    C1516437   4.449   7.917   2.686  0.5304 -0.0573 -0.0378
   22MOL    C1616438   4.396   8.010   2.587 -0.3620  0.2849  0.2330
   22MOL    C1716439   4.433   8.002   2.439 -0.0579 -0.1341 -0.1993
   22MOL    O1816440   4.403   0.058   2.358 -0.0876 -0.0299  0.2433
   22MOL    O1916441   4.519   7.899   2.416  0.1872  0.0022 -0.2163
   22MOL    C2016442   4.303   0.078   2.631  0.5439  0.2793 -0.5283
   22MOL    C2116443   4.262   0.087   2.762  0.7269 -0.0284  0.3363
   22MOL    H2216444   3.901   0.026   3.176 -1.3594  1.3566  0.7569
   22MOL    H2316445   3.920   0.092   3.021 -1.1553 -0.8490  0.0462
   22MOL    H2416446   3.690   0.133   3.100 -0.0515 -1.0773  0.0504
   22MOL    H2516447   3.745   0.208   3.246 -1.2063  1.8836 -0.7512
   22MOL    H2616448   3.784   0.322   2.967  0.1570  2.2966 -0.4815
   22MOL    H2716449   3.631   0.404   3.194 -1.0873  1.1789  0.0851
   22MOL    H2816450   3.648   0.508   3.056  1.3988  0.8554  1.1580
   22MOL    H2916451   3.889   0.517   3.102 -0.3602 -0.0916 -1.1101
   22MOL    H3016452   3.875   0.426   3.248  0.1039  0.6571  0.2015
   22MOL    H3116453   4.098   0.397   3.172 -0.4248 -0.3590 -0.2648
   22MOL    H3216454   4.038   0.327   3.018  1.1503 -0.0352 -0.2994
   22MOL    H3316455   4.005   0.213   3.295  1.7782 -0.3757  0.3628
   22MOL    H3416456   4.233   0.213   3.192  0.4510  0.0639 -0.7253
   22MOL    H3516457   4.166   0.052   3.230 -0.0880  0.7301  0.4869
   22MOL    H3616458   4.452   7.870   2.889  0.5854  1.0593  0.2867
   22MOL    H3716459   4.524   7.850   2.647 -0.1854 -0.1897 -1.1992
   22MOL    H3816460   4.254   0.138   2.557 -0.8620 -1.1596 -0.8033
   22MOL    H3916461   4.190   0.159   2.798  0.4684 -1.4910  2.8970
   22MOL    H4016462   3.537   0.255   3.042  4.2229  0.6705  1.8698
   22MOL    C4116463   4.669   7.471   2.247 -0.1672  0.2323  0.0544
   22MOL    C4216464   4.637   7.617   2.207 -0.7208 -0.0683  0.2935
   22MOL    C4316465   4.497   7.656   2.253 -0.0849  0.2310 -0.5736
   22MOL    C4416466   4.474   7.805   2.209  0.2591  0.2550 -0.2321
   22MOL    O4516467   4.569   7.891   2.280  0.6867  0.1776 -0.0351
   22MOL    C4616468   4.388   7.566   2.187 -0.0122  0.1381 -0.8227
   22MOL    C4716469   4.414   7.414   2.206 -0.1508  0.3652  0.2008
   22MOL    C4816470   4.563   7.383   2.174 -0.0145 -0.0335 -0.3990
   22MOL    C4916471   4.581   7.233   2.192  0.1265  0.0013 -0.3044
   22MOL    O5016472   4.711   7.192   2.160  0.1049  0.8175 -0.4208
   22MOL    C5116473   4.763   7.067   2.190  0.5570 -0.9268 -0.2920
   22MOL    O5216474   4.699   6.988   2.260  0.3698  0.0495 -0.2332
   22MOL    C5316475   4.889   7.047   2.124 -0.0402 -0.2541 -0.3695
   22MOL    C5416476   4.968   6.933   2.155 -0.1534 -0.0440 -0.2337
   22MOL    C5516477   5.097   6.920   2.103 -0.0574 -0.1434 -0.5493
   22MOL    C5616478   5.152   7.022   2.018 -0.1687  0.7212  0.1438
   22MOL    C5716479   5.288   7.009   1.968 -0.5796 -0.9315  0.0458
   22MOL    O5816480   5.346   6.900   1.976  0.0389 -0.0036 -0.1608
   22MOL    O5916481   5.341   7.119   1.896  0.9571 -0.3235  0.2332
   22MOL    C6016482   5.071   7.129   1.977  0.0766 -0.0999  0.3263
   22MOL    C6116483   4.943   7.143   2.034  0.4638 -0.8418 -1.1383
   22MOL    H6216484   4.768   7.448   2.209  0.0968  0.7906  0.3991
   22MOL    H6316485   4.657   7.454   2.354  1.7389 -1.2214  0.0436
   22MOL    H6416486   4.711   7.679   2.258  0.1351 -0.1937 -0.7979
   22MOL    H6516487   4.647   7.634   2.100 -0.2818  1.7594  0.5976
   22MOL    H6616488   4.477   7.649   2.360 -0.7131 -0.4404 -0.7285
   22MOL    H6716489   4.500   7.808   2.103 -0.0885 -0.8051 -0.3607
   22MOL    H6816490   4.368   7.831   2.213  0.3535  0.5160  0.7066
   22MOL    H6916491   4.287   7.598   2.212  1.2234  1.4955  2.7417
   22MOL    H7016492   4.411   7.577   2.081  0.2170  0.4963 -0.7327
   22MOL    H7116493   4.349   7.349   2.148  0.3527 -0.1473  0.2098
   22MOL    H7216494   4.389   7.375   2.305 -1.8920  1.0134  0.0368
   22MOL    H7316495   4.585   7.408   2.070  2.3030 -0.2363  0.0134
   22MOL    H7416496   4.569   7.205   2.297 -2.1503  0.2751 -0.4576
   22MOL    H7516497   4.514   7.182   2.122  1.5380 -2.1544 -0.1495
   22MOL    H7616498   4.934   6.858   2.224 -0.4117  1.0399  0.8354
   22MOL    H7716499   5.152   6.834   2.138  0.5783  0.2057 -0.6833
   22MOL    H7816500   5.108   7.206   1.910 -0.1219 -1.1882 -1.0629
   22MOL    H7916501   4.879   7.225   2.005 -0.2524 -1.1237 -0.3820
   22MOL    C8016502   5.423   7.361   1.522 -0.1787 -0.3926  1.3329
   22MOL    C8116503   5.478   7.271   1.624 -0.4906 -0.6506  0.0107
   22MOL    C8216504   5.476   7.335   1.760 -0.1948 -0.2366  0.4938
   22MOL    C8316505   5.536   7.231   1.855  0.4860  0.3057  0.4071
   22MOL    O8416506   5.480   7.103   1.845 -0.2350  0.1946 -0.1356
   22MOL    C8516507   5.549   7.468   1.759 -0.6049 -0.6554 -0.7249
   22MOL    C8616508   5.499   7.563   1.651 -1.1060 -0.9786  0.3450
   22MOL    C8716509   5.492   7.495   1.511 -0.2992  0.0672 -0.6727
   22MOL    C8816510   5.413   7.577   1.410 -0.1987 -0.3438  0.4319
   22MOL    O8916511   5.469   7.701   1.378  0.6024  0.3322 -0.2072
   22MOL    C9016512   5.419   7.817   1.432 -0.3799  0.2904  0.1093
   22MOL    O9116513   5.349   7.817   1.532 -0.1733  0.0368 -0.0507
   22MOL    C9216514   5.472   7.941   1.369  0.3990  0.8256  0.0591
   22MOL    C9316515   5.391   0.024   1.380  0.0205 -0.6840 -0.4787
   22MOL    C9416516   5.433   0.149   1.323 -0.0689  0.0794  0.4319
   22MOL    C9516517   5.548   0.142   1.246  0.2392 -0.6228 -0.1733
   22MOL    C9616518   5.577   0.266   1.172 -0.2819  0.2493  0.1931
   22MOL    O9716519   5.508   0.368   1.185  0.5151 -0.1145 -0.3213
   22MOL    O9816520   5.676   0.256   1.084  0.6132  0.0120  0.4053
   22MOL    C9916521   5.627   0.023   1.224  0.0649  0.4668  0.5402
   22MOL   C10016522   5.585   7.940   1.288  1.0132  0.1826  0.5201
   22MOL   H10116523   5.439   7.313   1.426  0.4073  2.3280  0.0222
   22MOL   H10216524   5.315   7.379   1.519 -0.1662 -0.5638 -1.8111
   22MOL   H10316525   5.424   7.177   1.617  0.4841 -1.3206  1.3567
   22MOL   H10416526   5.581   7.249   1.597 -0.8107 -0.1880 -1.6676
   22MOL   H10516527   5.372   7.360   1.783  0.1696  0.6912  1.1611
   22MOL   H10616528   5.641   7.223   1.826  0.6894  1.2915  0.8195
   22MOL   H10716529   5.536   7.250   1.963  1.6743  0.7859  0.3382
   22MOL   H10816530   5.519   7.517   1.852 -3.1615 -0.4469 -1.6304
   22MOL   H10916531   5.658   7.462   1.764 -0.4964  1.3364 -0.4592
   22MOL   H11016532   5.558   7.654   1.641 -3.8764  0.8753  0.3482
   22MOL   H11116533   5.398   7.592   1.680  0.0114  2.7327  0.8563
   22MOL   H11216534   5.591   7.478   1.468 -1.0355 -0.9333 -1.9982
   22MOL   H11316535   5.405   7.527   1.313 -1.9228  0.4593  0.1644
   22MOL   H11416536   5.311   7.586   1.446 -0.8789 -0.0575 -1.5044
   22MOL   H11516537   5.308   0.025   1.448  0.0762  1.9078 -0.3903
   22MOL   H11616538   5.376   0.241   1.328 -1.0591 -0.2174 -3.6980
   22MOL   H11716539   5.712   0.018   1.157 -0.2711  0.8857  0.0816
   22MOL   H11816540   5.646   7.852   1.276  0.7720  0.3606 -2.2944
   22MOL   C11916541   5.930   0.336   0.632 -0.2010  0.8547  0.3072
   22MOL   C12016542   5.887   0.394   0.767 -0.3569 -0.2480 -0.5937
   22MOL   C12116543   5.739   0.372   0.786  0.0329 -0.1806  0.2572
   22MOL   C12216544   5.676   0.435   0.911 -0.1573 -0.7817  0.1898
   22MOL   O12316545   5.728   0.395   1.035  0.4316 -0.2632 -0.2838
   22MOL   C12416546   5.659   0.433   0.670  0.7132  0.0049  0.4902
   22MOL   C12516547   5.700   0.382   0.528  0.5834 -0.2776 -0.2638
   22MOL   C12616548   5.846   0.391   0.511  0.0547  0.4205  0.7194
   22MOL   C12716549   5.901   0.320   0.374  0.1752  0.0003 -0.2115
   22MOL   O12816550   5.881   0.178   0.371  0.0026  0.4227 -0.0175
   22MOL   C12916551   5.923   0.114   0.253 -0.4231  0.0659  0.1700
   22MOL   O13016552   5.970   0.170   0.155 -0.1893 -0.3104 -0.2616
   22MOL   C13116553   5.891   8.004   0.256  0.1086  0.2750  0.0700
   22MOL   C13216554   5.855   7.934   0.371  0.1360 -0.2397 -0.7234
   22MOL   C13316555   5.827   7.789   0.375  0.6785  0.2421  0.2018
   22MOL   C13416556   5.841   7.723   0.255 -0.0986 -0.2575  0.3239
   22MOL   C13516557   5.838   7.582   0.245  0.5698  0.1560 -0.0728
   22MOL   O13616558   5.844   7.520   0.135 -0.1611 -0.3439 -0.0027
   22MOL   O13716559   5.828   7.527   0.372  0.1178  0.0385  0.5686
   22MOL   C13816560   5.867   7.794   0.139  0.5318  0.3622  0.7486
   22MOL   C13916561   5.886   7.934   0.135  0.5634  0.3829 -0.3855
   22MOL   H14016562   6.038   0.347   0.620  0.4635 -2.7558  2.2797
   22MOL   H14116563   5.920   0.228   0.629  1.9343  0.7003 -2.9678
   22MOL   H14216564   5.940   0.328   0.836 -1.1530  1.0719  1.3209
   22MOL   H14316565   5.921   0.498   0.774  1.1512 -0.8854  2.0512
   22MOL   H14416566   5.720   0.265   0.789 -2.2010  0.1851 -0.1509
   22MOL   H14516567   5.684   0.543   0.897  0.6290 -0.9041 -0.3591
   22MOL   H14616568   5.569   0.414   0.913 -0.2209 -0.4893 -0.1579
   22MOL   H14716569   5.554   0.402   0.679  0.2056  1.5795  0.2330
   22MOL   H14816570   5.678   0.540   0.676  1.7060 -0.1191 -0.3316
   22MOL   H14916571   5.641   0.445   0.461 -0.1065  0.4514  1.0072
   22MOL   H15016572   5.672   0.279   0.502  0.4488 -0.3439  0.1259
   22MOL   H15116573   5.866   0.498   0.505 -0.2921  0.4437 -0.2204
   22MOL   H15216574   5.859   0.360   0.282  2.4085 -0.2377 -1.3470
   22MOL   H15316575   6.005   0.350   0.375  0.2893 -0.3390 -1.8511
   22MOL   H15416576   5.849   7.983   0.468 -1.4694  0.0436 -0.9488
   22MOL   H15516577   5.817   7.740   0.470  2.5935 -0.3041  0.1471
   22MOL   H15616578   5.878   7.748   0.041  0.2865  0.7272  0.5515
   22MOL   H15716579   5.912   7.977   0.039  0.3520  0.6799 -0.3081
   22MOL   C15816580   5.543   7.468   0.685 -0.1435  0.5499 -0.2360
   22MOL   C15916581   5.631   7.465   0.557  0.6922 -0.0780 -0.1618
   22MOL   C16016582   5.626   7.318   0.497 -0.2925 -0.6809  0.3878
   22MOL   C16116583   5.706   7.312   0.372 -0.4948 -0.7799  0.0606
   22MOL   O16216584   5.834   7.375   0.375  0.3526  0.3215 -0.3830
   22MOL   C16316585   5.673   7.220   0.600  0.0812 -0.5674 -0.5407
   22MOL   C16416586   5.591   7.227   0.729 -0.0658 -0.1193  0.2326
   22MOL   C16516587   5.591   7.362   0.790 -0.2896 -0.3605 -0.5428
   22MOL   C16616588   5.501   7.377   0.909  0.0463  0.0634 -0.1315
   22MOL   O16716589   5.556   7.313   1.026 -0.4450 -0.0654  0.1034
   22MOL   C16816590   5.498   7.194   1.069  0.2039 -0.4357  0.0560
   22MOL   O16916591   5.401   7.143   1.018  0.1673  0.6288  0.2690
   22MOL   C17016592   5.564   7.134   1.194  0.2580  0.3203 -0.5064
   22MOL   C17116593   5.701   7.147   1.214  0.3639 -0.6119  0.0559
   22MOL   C17216594   5.761   7.091   1.326  0.5376 -0.7969 -0.1250
   22MOL   C17316595   5.684   7.024   1.429  0.5693 -0.7235  0.3512
   22MOL   C17416596   5.742   6.967   1.551 -0.2326 -0.9175 -0.2246
   22MOL   O17516597   5.867   6.968   1.574  0.0123 -0.1574 -0.3428
   22MOL   O17616598   5.658   6.902   1.631 -0.0326  0.2680  0.1631
   22MOL   C17716599   5.547   7.008   1.399 -0.0599 -0.0475 -0.2662
   22MOL   C17816600   5.488   7.063   1.284  0.5225  0.2498  0.1720
   22MOL   H17916601   5.544   7.566   0.731 -1.1739  0.5703 -0.2388
   22MOL   H18016602   5.440   7.449   0.655  0.2965  0.8144 -1.9632
   22MOL   H18116603   5.597   7.520   0.470 -0.3521 -2.1268 -1.0969
   22MOL   H18216604   5.731   7.501   0.581  1.1679 -1.2215 -0.3722
   22MOL   H18316605   5.521   7.293   0.489 -0.2810 -0.4078 -0.7285
   22MOL   H18416606   5.719   7.208   0.340  1.7546 -1.1453  2.0153
   22MOL   H18516607   5.651   7.359   0.291 -0.0103 -0.5212 -0.1195
   22MOL   H18616608   5.679   7.114   0.574 -2.3511 -1.1003  1.0153
   22MOL   H18716609   5.774   7.240   0.637 -0.1064 -2.4218  1.0755
   22MOL   H18816610   5.614   7.150   0.803 -2.4132 -1.8020 -0.7404
   22MOL   H18916611   5.486   7.207   0.710 -0.9963  3.5704  1.0797
   22MOL   H19016612   5.695   7.382   0.818 -0.6796  0.4421  0.3305
   22MOL   H19116613   5.501   7.480   0.945 -1.4432 -0.1613  0.5634
   22MOL   H19216614   5.393   7.369   0.897 -0.0272 -0.7732  1.0211
   22MOL   H19316615   5.759   7.202   1.141 -2.3389 -0.0088 -1.7494
   22MOL   H19416616   5.867   7.103   1.342  0.2716  0.0805  1.0453
   22MOL   H19516617   5.484   6.958   1.471  1.2882 -0.0181  0.9598
   22MOL   H19616618   5.383   7.046   1.267  0.3085  2.2294 -0.5659
   22MOL   C19716619   5.880   6.730   2.136  0.2738  0.3582 -0.7018
   22MOL   C19816620   5.788   6.753   2.019  0.0431 -0.7871  0.1883
   22MOL   C19916621   5.849   6.722   1.886  0.9336 -0.0020 -0.0900
   22MOL   C20016622   5.739   6.725   1.776  0.0227 -0.1289 -0.0446
   22MOL   O20116623   5.704   6.865   1.771 -0.0182  0.2622 -0.5116
   22MOL   C20216624   5.972   6.812   1.867 -0.1924  0.0420 -0.5990
   22MOL   C20316625   6.081   6.771   1.971 -0.3562  0.2615 -0.5195
   22MOL   C20416626   6.022   6.789   2.119 -0.3122  0.1648  0.5544
   22MOL   C20516627   6.107   6.713   2.223 -0.3935 -0.4270 -0.4083
   22MOL   O20616628   6.229   6.783   2.241  0.3172  0.1098 -0.0671
   22MOL   C20716629   6.292   6.779   2.351 -0.4280 -0.1074  0.0169
   22MOL   O20816630   6.264   6.697   2.442  0.1086 -0.5351  0.1202
   22MOL   C20916631   6.408   6.870   2.340 -0.2252 -0.0361  0.3238
   22MOL   C21016632   6.520   6.832   2.421  0.2413  0.4097  0.3819
   22MOL   C21116633   6.634   6.909   2.405 -0.3297  0.2310  0.7010
   22MOL   C21216634   6.635   7.031   2.332  0.1101  0.2839  0.1560
   22MOL   C21316635   6.759   7.109   2.315  0.3182 -0.4863 -0.3138
   22MOL   O21416636   6.775   7.215   2.247 -0.0743  1.0557 -0.4809
   22MOL   O21516637   6.863   7.056   2.387 -0.3536 -0.0320 -0.2806
   22MOL   C21616638   6.523   7.065   2.259 -0.6202 -0.1145  0.2131
   22MOL   C21716639   6.407   6.986   2.254  0.6785  0.2594 -0.0356
   22MOL   H21816640   5.836   6.760   2.231 -0.0720 -1.1119 -0.3816
   22MOL   H21916641   5.896   6.623   2.144 -0.5756  0.3644  1.3228
   22MOL   H22016642   5.694   6.700   2.034  0.1202 -1.3463 -1.3002
   22MOL   H22116643   5.752   6.856   2.012  2.5815  0.1352  0.1316
   22MOL   H22216644   5.872   6.616   1.896 -0.6361 -0.3878 -0.4299
   22MOL   H22316645   5.751   6.689   1.674 -1.8495  0.1738 -0.4020
   22MOL   H22416646   5.653   6.664   1.805 -1.7713  2.7274  0.9094
   22MOL   H22516647   6.018   6.811   1.769 -0.5213 -1.3063 -0.7439
   22MOL   H22616648   5.939   6.916   1.877 -0.6544 -0.2397  1.0738
   22MOL   H22716649   6.172   6.830   1.973 -0.1534 -0.0631  3.0536
   22MOL   H22816650   6.123   6.672   1.953  0.5206  0.5676 -0.1749
   22MOL   H22916651   6.024   6.896   2.139 -1.3939  0.3713 -0.4247
   22MOL   H23016652   6.045   6.708   2.312 -1.6768  0.6502 -1.2341
   22MOL   H23116653   6.118   6.610   2.188  0.3757 -0.7211  0.6610
   22MOL   H23216654   6.521   6.738   2.475 -0.0414 -0.0832 -0.4662
   22MOL   H23316655   6.724   6.863   2.442 -0.0666 -0.8577 -1.2418
   22MOL   H23416656   6.515   7.163   2.214 -0.5459 -0.7009 -1.0980
   22MOL   H23516657   6.319   7.025   2.205  0.1919  1.7463  1.9187
   22MOL   C23616658   7.304   7.430   2.330 -0.3709  0.3402 -0.5262
   22MOL   C23716659   7.164   7.370   2.347 -0.1875  0.4608 -0.8337
   22MOL   C23816660   7.145   7.296   2.478  0.3211  0.4839 -0.2919
   22MOL   C23916661   7.007   7.225   2.486 -0.7609 -0.2635 -0.0983
   22MOL   O24016662   7.001   7.131   2.375  0.0312  0.4648  0.0026
   22MOL   C24116663   7.257   7.199   2.522 -0.1941  0.3823 -0.1009
   22MOL   C24216664   7.395   7.256   2.489  0.4246  0.2808 -0.6838
   22MOL   C24316665   7.408   7.311   2.349  0.0664  0.2232  0.7782
   22MOL   C24416666   7.550   7.365   2.322  0.6677 -0.1358 -0.1904
   22MOL   O24516667   7.619   7.277   2.217 -0.4790 -0.1715  0.4004
   22MOL   C24616668   7.623   7.318   2.086  0.0783  0.2551 -0.0235
   22MOL   O24716669   7.563   7.418   2.041 -0.1517  0.5286  0.5522
   22MOL   C24816670   7.715   7.230   2.009  0.2834  0.6414 -0.1965
   22MOL   C24916671   7.747   7.252   1.872  0.3903  0.3272  0.4047
   22MOL   C25016672   7.832   7.164   1.801 -0.1233  0.3195 -0.3658
   22MOL   C25116673   7.880   7.046   1.860  0.5728 -1.2260 -0.3256
   22MOL   C25216674   7.973   6.954   1.788  0.5251  0.1513  0.1105
   22MOL   O25316675   8.030   6.862   1.837  0.1291  0.4103 -0.6344
   22MOL   O25416676   7.973   6.972   1.647  0.7371  0.7799 -0.1307
   22MOL   C25516677   7.849   7.022   1.996 -0.3367 -0.3398 -0.5088
   22MOL   C25616678   7.770   7.112   2.066 -0.7840  0.5310 -0.2778
   22MOL   H25716679   7.318   7.470   2.230 -0.2771  2.9959  0.4812
   22MOL   H25816680   7.323   7.503   2.409 -0.0526 -0.7962  0.4622
   22MOL   H25916681   7.092   7.448   2.323  0.0530  1.5550  1.8879
   22MOL   H26016682   7.144   7.302   2.264 -0.5311  2.0825 -2.1228
   22MOL   H26116683   7.143   7.362   2.565  0.4867 -1.1999  1.0181
   22MOL   H26216684   6.988   7.176   2.582  2.4755 -1.6677 -0.0988
   22MOL   H26316685   6.941   7.311   2.486  0.9887  1.1242 -0.2455
   22MOL   H26416686   7.256   7.160   2.624 -0.2350 -0.1842 -0.3126
   22MOL   H26516687   7.250   7.110   2.459 -0.4057 -0.4059  1.0182
   22MOL   H26616688   7.470   7.177   2.496 -0.7110 -0.7066  0.7081
   22MOL   H26716689   7.427   7.334   2.558 -0.2122  0.5566 -0.6976
   22MOL   H26816690   7.383   7.234   2.275  0.3091 -0.5542  1.4915
   22MOL   H26916691   7.552   7.469   2.290  0.2168 -0.3012 -0.7594
   22MOL   H27016692   7.603   7.360   2.417  0.0280 -0.3966  0.1562
   22MOL   H27116693   7.702   7.340   1.829 -0.7923 -0.8261 -0.7760
   22MOL   H27216694   7.868   7.200   1.706 -0.6339  1.1806 -0.2380
   22MOL   H27316695   7.890   6.930   2.036  1.5427  0.4295 -0.6169
   22MOL   H27416696   7.749   7.083   2.168 -1.0512  0.5089 -0.3391
   22MOL   C27516697   0.401   6.597   1.509  0.6509 -0.2215  0.2035
   22MOL   C27616698   0.255   6.639   1.496  0.2419  0.8804  0.4300
   22MOL   C27716699   0.221   6.776   1.545  0.0559 -0.2542 -0.3145
   22MOL   C27816700   0.076   6.809   1.546 -0.3557 -0.8094  0.0419
   22MOL   O27916701   0.069   6.945   1.587 -0.2749  0.1270 -0.6439
   22MOL   C28016702   0.279   6.784   1.683 -0.6027 -0.1888  0.2379
   22MOL   C28116703   0.430   6.753   1.703 -0.3457 -0.0517  0.1018
   22MOL   C28216704   0.453   6.610   1.652 -0.3059 -0.0707  0.7359
   22MOL   C28316705   0.601   6.560   1.673 -0.2850 -0.0488 -0.2448
   22MOL   O28416706   0.693   6.653   1.614 -0.3466  0.7650 -0.2219
   22MOL   C28516707   0.792   6.710   1.678 -0.0073 -0.2416  0.0137
   22MOL   O28616708   0.853   6.672   1.782  0.4507 -0.2726  0.3747
   22MOL   C28716709   0.838   6.834   1.614 -0.0560 -0.3705  0.4058
   22MOL   C28816710   0.770   6.882   1.501 -0.4967  0.4221  0.4411
   22MOL   C28916711   0.813   6.998   1.435  0.2539 -0.0799  0.1534
   22MOL   C29016712   0.929   7.067   1.482 -0.1979  1.0632 -0.3286
   22MOL   C29116713   0.975   7.185   1.399 -0.0944 -0.4428  0.3731
   22MOL   O29216714   0.898   7.243   1.314  0.0717 -0.3396 -0.0015
   22MOL   O29316715   1.096   7.231   1.429  0.4033 -0.0596  0.7608
   22MOL   C29416716   0.995   7.025   1.596 -0.1610  0.0216 -1.2458
   22MOL   C29516717   0.951   6.913   1.674 -0.8284 -0.3132 -0.2382
   22MOL   H29616718   0.422   6.498   1.468 -0.9213 -0.0987 -0.9430
   22MOL   H29716719   0.461   6.660   1.443 -2.1184  0.4451 -1.7781
   22MOL   H29816720   0.234   6.642   1.389 -0.3583  1.3859  0.5544
   22MOL   H29916721   0.188   6.569   1.547  0.0986  0.4290 -0.3739
   22MOL   H30016722   0.262   6.862   1.490 -1.4313  0.4291 -0.3701
   22MOL   H30116723   0.040   6.805   1.443  2.5927 -1.9221 -0.9963
   22MOL   H30216724   0.028   6.744   1.619  0.9950 -1.5311  0.2942
   22MOL   H30316725   0.274   6.887   1.719  2.0749 -0.0957  0.4915
   22MOL   H30416726   0.221   6.726   1.755 -2.1998  1.2471  0.1180
   22MOL   H30516727   0.467   6.757   1.805  1.2517 -0.4611 -0.4492
   22MOL   H30616728   0.484   6.825   1.642 -0.4202  1.5147  1.8317
   22MOL   H30716729   0.403   6.547   1.726 -2.0420 -0.0397 -0.3803
   22MOL   H30816730   0.607   6.545   1.781  0.8467 -0.3992 -0.3508
   22MOL   H30916731   0.613   6.461   1.629  3.5401  0.2889 -0.1237
   22MOL   H31016732   0.677   6.844   1.462 -0.7973  1.0772  0.5149
   22MOL   H31116733   0.753   7.029   1.350 -1.9722  3.2698  2.8164
   22MOL   H31216734   1.080   7.083   1.628 -0.2878  0.4555 -1.6925
   22MOL   H31316735   0.994   6.871   1.764  2.4024  1.6666 -0.7597
   22MOL   C31416736   1.114   7.623   1.003  0.0449  1.1869  0.2613
   22MOL   C31516737   1.104   7.493   1.086  0.1428 -0.2992  0.1597
   22MOL   C31616738   1.232   7.464   1.162  0.0889  0.0173  0.4613
   22MOL   C31716739   1.221   7.336   1.244 -0.0118  0.9943 -0.3882
   22MOL   O31816740   1.134   7.356   1.354 -0.2052  0.2608  0.2757
   22MOL   C31916741   1.363   7.461   1.078  0.4290 -0.4338 -0.4653
   22MOL   C32016742   1.375   7.593   0.998  0.5733 -0.4672  0.5465
   22MOL   C32116743   1.250   7.620   0.918  0.3113 -0.3070  0.1771
   22MOL   C32216744   1.265   7.745   0.833  0.2447  0.0955  0.2086
   22MOL   O32316745   1.142   7.769   0.767 -0.7196  0.3850 -0.0101
   22MOL   C32416746   1.083   7.888   0.771 -0.3646  0.1752  0.5675
   22MOL   O32516747   1.115   7.989   0.842 -0.0159  0.3411 -0.1214
   22MOL   C32616748   0.966   7.884   0.675 -0.9010 -0.6001 -0.0077
   22MOL   C32716749   0.971   7.803   0.552  0.0182  0.0578  0.1201
   22MOL   C32816750   0.860   7.806   0.463 -0.3161 -0.1828 -0.0163
   22MOL   C32916751   0.746   7.886   0.494 -0.2789 -0.3986 -0.5005
   22MOL   C33016752   0.621   7.884   0.415  0.2995 -0.1253  0.3337
   22MOL   O33116753   0.514   7.923   0.457  0.6801  0.3970  0.4291
   22MOL   O33216754   0.646   7.850   0.291 -0.3529  0.0529  1.0655
   22MOL   C33316755   0.753   7.972   0.607  0.3054  0.4102 -0.4366
   22MOL   C33416756   0.866   7.976   0.690  0.6134  0.1221  0.2395
   22MOL   H33516757   1.030   7.641   0.935 -0.6956  1.3091  1.2016
   22MOL   H33616758   1.122   7.705   1.075  0.2887  2.1430 -0.8358
   22MOL   H33716759   1.012   7.504   1.143  0.5004 -0.8266  0.8491
   22MOL   H33816760   1.084   7.414   1.014  0.2495  0.8668 -1.1735
   22MOL   H33916761   1.242   7.552   1.226 -1.8453  0.2594  0.4498
   22MOL   H34016762   1.184   7.247   1.194 -1.1847  0.1410  1.9236
   22MOL   H34116763   1.317   7.304   1.286  0.4082  0.0263 -2.0365
   22MOL   H34216764   1.448   7.456   1.147 -0.2361  0.5802  0.4391
   22MOL   H34316765   1.365   7.370   1.018 -1.4096 -1.3719  0.8387
   22MOL   H34416766   1.458   7.595   0.928  0.9119 -1.3767  0.9148
   22MOL   H34516767   1.393   7.673   1.070 -1.2271  0.8302 -0.3927
   22MOL   H34616768   1.237   7.534   0.852 -2.1095 -0.7155  1.1479
   22MOL   H34716769   1.305   7.825   0.896 -2.4509 -0.1137  2.2980
   22MOL   H34816770   1.341   7.726   0.757 -0.2400  0.2509 -0.3105
   22MOL   H34916771   1.060   7.749   0.523 -0.4228  0.6068 -2.3812
   22MOL   H35016772   0.858   7.747   0.372  0.6423  0.1987 -0.2874
   22MOL   H35116773   0.672   0.006   0.628 -0.3272 -0.8005  1.2633
   22MOL   H35216774   0.868   0.015   0.768  0.4223  1.5299 -1.0816
   22MOL   C35316775   0.268   0.146   7.944  0.0868 -0.4074  0.4721
   22MOL   C35416776   0.387   0.120   8.030 -0.4805 -0.7575  0.3871
   22MOL   C35516777   0.379   8.023   0.071  0.2205 -0.2907  0.3849
   22MOL   C35616778   0.514   7.994   0.147 -0.2126 -0.2836 -0.2894
   22MOL   O35716779   0.527   7.860   0.197  0.1337 -0.2008  0.0627
   22MOL   C35816780   0.245   8.018   0.155 -0.2926  0.0797 -0.0440
   22MOL   C35916781   0.114   0.015   0.072 -0.2052  0.2600 -0.3178
   22MOL   C36016782   0.133   0.145   8.022 -0.1611 -0.4093 -0.2569
   22MOL   C36116783   0.020   0.198   7.924 -0.8029 -0.0439 -0.3990
   22MOL   O36216784   0.040   0.332   7.883 -0.1114 -0.2877 -0.2100
   22MOL   C36316785   8.006   0.368   7.778 -0.1153  0.1050 -0.0079
   22MOL   O36416786   7.909   0.311   7.731 -0.0543 -0.2561  0.1054
   22MOL   C36516787   0.010   0.505   7.720  0.1885  0.4701  0.3203
   22MOL   C36616788   0.136   0.565   7.748  0.6043 -0.1554 -0.0528
   22MOL   C36716789   0.167   0.693   7.697  0.5641  0.0367 -0.3908
   22MOL   C36816790   0.076   0.763   7.621 -0.1738  0.1317  0.1640
   22MOL   C36916791   0.112   0.905   7.575  0.8432 -0.3972 -0.3740
   22MOL   O37016792   0.049   0.971   7.500 -0.3028 -0.6745  0.3625
   22MOL   O37116793   0.226   0.949   7.629  0.4994  0.3494 -0.5403
   22MOL   C37216794   7.990   0.711   7.586 -0.1006  0.4187 -0.8517
   22MOL   C37316795   7.951   0.579   7.639  0.0512  0.5211 -0.2406
   22MOL   H37416796   0.285   0.247   7.906  0.5009 -1.0366 -1.0668
   22MOL   H37516797   0.256   0.072   7.865  1.4305 -0.1597  0.0253
   22MOL   H37616798   0.477   0.110   7.970  1.0461  1.8284  2.1852
   22MOL   H37716799   0.398   0.205   0.061  1.0395  0.0021 -0.8261
   22MOL   H37816800   0.375   7.955   8.021  1.6534  0.0218  0.0624
   22MOL   H37916801   0.599   8.000   0.078  1.1706 -5.1285  0.7912
   22MOL   H38016802   0.522   0.036   0.222 -3.9883 -2.2145  2.2437
   22MOL   H38116803   0.220   7.917   0.188 -0.8977  0.6869  1.4261
   22MOL   H38216804   0.258   0.043   0.245 -1.7673  0.4192 -0.0393
   22MOL   H38316805   0.032   0.000   0.142  0.3786 -2.1083 -0.1024
   22MOL   H38416806   0.112   7.968   0.001  1.1807  0.5550 -0.7213
   22MOL   H38516807   0.120   0.229   0.055 -1.8739  0.1637 -1.2453
   22MOL   H38616808   0.009   0.122   7.847  0.9030 -1.6258  0.8935
   22MOL   H38716809   7.966   0.197   7.987 -0.0496 -2.0352  0.6560
   22MOL   H38816810   0.212   0.513   7.805 -1.6541 -1.3976  1.8838
   22MOL   H38916811   0.269   0.724   7.715  0.5428  0.3307 -0.7824
   22MOL   H39016812   7.918   0.763   7.524 -0.9695 -2.8042 -2.6593
   22MOL   H39116813   7.849   0.553   7.615  0.4678 -0.8081 -0.6143
   22MOL   C39216814   0.312   1.418   7.322 -0.2046 -0.7046  0.4892
   22MOL   C39316815   0.289   1.284   7.385  0.4288  0.3599 -0.0567
   22MOL   C39416816   0.397   1.245   7.477  0.0282  0.2015  0.2037
   22MOL   C39516817   0.378   1.097   7.528  0.0651  0.3018  0.1900
   22MOL   O39616818   0.255   1.096   7.596  0.5242  0.0760  0.6328
   22MOL   C39716819   0.541   1.273   7.427 -0.4597 -0.0893  0.0090
   22MOL   C39816820   0.557   1.414   7.360 -0.0849  0.3951 -0.3000
   22MOL   C39916821   0.447   1.437   7.256  0.3505  0.0552 -0.1708
   22MOL   C40016822   0.446   1.578   7.197 -0.5919  0.0125 -0.4207
   22MOL   O40116823   0.443   1.676   7.307 -0.1470 -0.5401  0.4646
   22MOL   C40216824   0.455   1.810   7.281  0.5691  1.0212  0.5189
   22MOL   O40316825   0.478   1.843   7.170  0.0947 -0.1135  0.1272
   22MOL   C40416826   0.436   1.898   7.394  0.1542 -0.6544  0.2513
   22MOL   C40516827   0.414   1.860   7.529 -0.4689 -0.1239 -0.2479
   22MOL   C40616828   0.395   1.956   7.630 -0.5829  0.2444 -0.0495
   22MOL   C40716829   0.421   2.095   7.606 -0.2857  1.1709  0.2926
   22MOL   C40816830   0.421   2.189   7.720  0.4777 -0.9057  0.4329
   22MOL   O40916831   0.509   2.272   7.729 -0.1152  0.8103 -0.1688
   22MOL   O41016832   0.303   2.197   7.778 -0.9303 -0.5382 -0.0858
   22MOL   C41116833   0.464   2.137   7.476  0.3400 -0.0041 -0.7113
   22MOL   C41216834   0.465   2.038   7.374 -0.0217 -0.1881 -0.0821
   22MOL   H41316835   0.235   1.441   7.249 -0.6974  2.0007  1.7712
   22MOL   H41416836   0.295   1.492   7.401 -0.6650  1.1924 -1.3662
   22MOL   H41516837   0.188   1.274   7.426  1.6260 -2.7800  2.2286
   22MOL   H41616838   0.280   1.214   7.302  2.4189  0.4233 -0.3505
   22MOL   H41716839   0.387   1.321   7.555  0.1102  0.3492  0.0700
   22MOL   H41816840   0.386   1.027   7.445 -2.6640  0.5926 -0.3738
   22MOL   H41916841   0.457   1.069   7.598  0.8027 -3.7307 -2.1079
   22MOL   H42016842   0.599   1.248   7.515 -0.9898 -0.1391  0.3453
   22MOL   H42116843   0.584   1.195   7.364  0.6002  1.0964 -0.7409
   22MOL   H42216844   0.657   1.426   7.320 -0.8610  0.3140 -2.3216
   22MOL   H42316845   0.553   1.480   7.447  2.5227 -0.2397  0.3496
   22MOL   H42416846   0.466   1.377   7.167 -0.4047 -1.6124  0.7648
   22MOL   H42516847   0.541   1.604   7.151  0.6082  1.2552  2.6499
   22MOL   H42616848   0.369   1.594   7.120 -0.4575 -1.1537 -0.8013
   22MOL   H42716849   0.409   1.753   7.546 -1.3613  0.1381  1.1555
   22MOL   H42816850   0.356   1.931   7.727  1.8051 -2.1911  0.3278
   22MOL   H42916851   0.482   2.243   7.459 -0.1424  0.5667  2.0251
   22MOL   H43016852   0.480   2.069   7.272  0.2116 -3.2222 -0.9964
   22MOL   C43116853   7.902   2.509   7.936  0.0203 -0.6941 -0.7500
   22MOL   C43216854   0.016   2.514   7.929 -0.1874 -0.7420  0.0870
   22MOL   C43316855   0.058   2.412   7.825  0.2532 -0.4053  0.5263
   22MOL   C43416856   0.210   2.420   7.789 -0.2775 -0.6810  0.8829
   22MOL   O43516857   0.292   2.326   7.859 -0.2238 -0.3448 -0.2935
   22MOL   C43616858   8.031   2.268   7.830 -0.3033 -0.5831 -0.3544
   22MOL   C43716859   7.885   2.268   7.859 -0.4728  0.2895  0.4055
   22MOL   C43816860   7.843   2.373   7.965 -0.4087  0.0233  0.2585
   22MOL   C43916861   7.691   2.372   7.968 -0.5920 -0.0275 -0.4861
   22MOL   O44016862   7.653   2.464   0.032 -0.4383  0.1944  0.0911
   22MOL   C44116863   7.532   2.446   0.096  0.0104  1.3832 -0.5969
   22MOL   O44216864   7.440   2.365   0.071 -0.8605 -0.2944 -0.2188
   22MOL   C44316865   7.510   2.538   0.210 -0.0139 -0.4080 -0.1429
   22MOL   C44416866   7.581   2.659   0.222 -0.0643 -0.5247 -0.0667
   22MOL   C44516867   7.585   2.741   0.334 -0.7914 -1.2522 -0.5893
   22MOL   C44616868   7.505   2.711   0.445  0.5584 -0.6160  0.4288
   22MOL   C44716869   7.502   2.796   0.572 -0.3640 -0.2189  0.3746
   22MOL   O44816870   7.425   2.781   0.666  0.2015  0.1658 -0.3045
   22MOL   O44916871   7.587   2.899   0.551 -0.0675  0.0933  0.4752
   22MOL   C45016872   7.427   2.593   0.434 -0.5534  0.3102  0.3970
   22MOL   C45116873   7.427   2.507   0.323  0.3013  0.0510 -0.0988
   22MOL   H45216874   7.877   2.580   8.016  0.4165  1.2422 -2.3082
   22MOL   H45316875   7.859   2.556   7.847 -0.0122  0.8314  0.0417
   22MOL   H45416876   0.060   2.613   7.925 -0.0738 -0.8341 -0.9731
   22MOL   H45516877   0.039   2.483   8.031  2.0854 -1.5601 -0.6535
   22MOL   H45616878   0.025   2.462   7.734 -0.3574  1.4226  1.7255
   22MOL   H45716879   0.229   2.409   7.682  0.4341  0.4933  0.8799
   22MOL   H45816880   0.253   2.519   7.805 -1.9450  0.0728  0.7785
   22MOL   H45916881   0.013   2.210   7.740 -1.9429  1.4515 -2.0288
   22MOL   H46016882   0.044   2.220   7.915  0.0944 -0.3945 -0.4756
   22MOL   H46116883   7.841   2.173   7.890 -1.2295  1.2838  2.5352
   22MOL   H46216884   7.844   2.291   7.761  3.2345  0.8031 -1.1140
   22MOL   H46316885   7.884   2.327   0.019  2.3676  2.8076  0.4878
   22MOL   H46416886   7.653   2.386   7.867  0.3357 -4.2438 -1.5389
   22MOL   H46516887   7.663   2.271   7.999 -2.4762  1.2209  2.0161
   22MOL   H46616888   7.649   2.693   0.145  0.3315  0.1851  0.5929
   22MOL   H46716889   7.644   2.831   0.334 -0.2190 -1.6196 -0.1618
   22MOL   H46816890   7.364   2.567   0.518  1.5133 -0.7307  1.6621
   22MOL   H46916891   7.376   2.412   0.328  1.6173 -0.5971  1.7637
   22MOL   C47016892   7.757   3.320   0.408  0.2817  0.0371  0.3016
   22MOL   C47116893   7.700   3.240   0.522  0.6622  0.2922  0.4963
   22MOL   C47216894   7.560   3.181   0.476  0.3146  0.1809  0.2224
   22MOL   C47316895   7.490   3.101   0.588 -0.2294 -0.2312 -0.8813
   22MOL   O47416896   7.575   3.007   0.650 -0.1039 -0.5295  0.4555
   22MOL   C47516897   7.468   3.299   0.428 -0.1607  0.5340 -0.8664
   22MOL   C47616898   7.533   3.384   0.321 -0.7542  0.2209  0.5976
   22MOL   C47716899   7.669   3.440   0.365  0.0319  0.3031  0.6481
   22MOL   C47816900   7.724   3.539   0.266  0.7754  0.3536  0.2466
   22MOL   O47916901   7.850   3.585   0.308  0.2266 -0.0087  0.8537
   22MOL   C48016902   7.952   3.604   0.218  0.0217 -0.1480 -0.7494
   22MOL   O48116903   7.930   3.598   0.100  0.0320 -0.1678  0.6512
   22MOL   C48216904   0.050   3.626   0.273  0.7501 -0.0236 -0.2448
   22MOL   C48316905   0.160   3.601   0.187 -0.0864  0.0404  0.1664
   22MOL   C48416906   0.290   3.609   0.237 -0.5692 -0.0594 -0.0687
   22MOL   C48516907   0.322   3.627   0.374 -0.0251  0.1814  0.9073
   22MOL   C48616908   0.462   3.623   0.428 -0.3383 -0.1167  0.0795
   22MOL   O48716909   0.494   3.646   0.540  0.5186 -0.3956  0.4413
   22MOL   O48816910   0.560   3.600   0.327 -0.3295 -0.0031 -0.3317
   22MOL   C48916911   0.214   3.655   0.458 -0.2337 -0.3964  0.0618
   22MOL   C49016912   0.078   3.640   0.409 -0.8558  0.2912 -0.1734
   22MOL   H49116913   7.859   3.343   0.438  0.7237 -1.4998  0.0275
   22MOL   H49216914   7.765   3.246   0.328  0.4558 -1.2514  1.4934
   22MOL   H49316915   7.775   3.164   0.544  1.4547 -0.1320 -3.3508
   22MOL   H49416916   7.701   3.290   0.619 -0.6603  1.0253  0.1512
   22MOL   H49516917   7.584   3.110   0.397  2.7654 -0.5671  1.5830
   22MOL   H49616918   7.445   3.166   0.662  1.0337 -1.6322  1.1602
   22MOL   H49716919   7.410   3.049   0.535 -1.6021 -1.3433  2.1818
   22MOL   H49816920   7.371   3.267   0.392 -2.0734  1.9335  2.8377
   22MOL   H49916921   7.440   3.359   0.514  2.8906  0.7326  0.0694
   22MOL   H50016922   7.465   3.465   0.297 -0.0269  0.8986  0.8028
   22MOL   H50116923   7.540   3.321   0.231  0.0967  1.9141 -0.5442
   22MOL   H50216924   7.651   3.506   0.450 -0.0623  4.1265 -2.2171
   22MOL   H50316925   7.729   3.497   0.166 -0.5830 -0.7379  0.6091
   22MOL   H50416926   7.658   3.621   0.242 -0.2484 -0.5964 -0.2367
   22MOL   H50516927   0.142   3.598   0.080 -1.2831  1.0240  0.3284
   22MOL   H50616928   0.371   3.593   0.166  0.7883  0.6009  1.2986
   22MOL   H50716929   0.218   3.658   0.566 -2.6656  2.8981  0.1256
   22MOL   H50816930   0.002   3.642   0.487 -0.9687 -2.3646 -0.1479
   22MOL   C50916931   1.057   3.714   0.150  0.0672  0.2077 -0.8123
   22MOL   C51016932   0.978   3.647   0.265  0.0042  0.3840 -0.3112
   22MOL   C51116933   0.875   3.541   0.216 -0.3865  0.1689 -0.9618
   22MOL   C51216934   0.775   3.500   0.327  0.6330  0.0029  0.6678
   22MOL   O51316935   0.703   3.603   0.380 -0.1200  0.2736 -0.4637
   22MOL   C51416936   0.803   3.592   0.097  0.2027 -0.1719  0.0428
   22MOL   C51516937   0.901   3.628   8.018  0.3776 -0.0780 -0.4281
   22MOL   C51616938   0.982   3.748   0.024  0.5057 -0.6317  0.2161
   22MOL   C51716939   1.088   3.781   7.949  0.7022  0.8604 -0.5839
   22MOL   O51816940   1.125   3.914   7.961  0.0518  0.0662 -0.1634
   22MOL   C51916941   1.200   3.966   7.866 -0.1136 -0.2744  0.4860
   22MOL   O52016942   1.255   3.908   7.773  0.2214 -0.5475 -0.1748
   22MOL   C52116943   1.213   4.116   7.883  0.2985  0.2329 -0.4383
   22MOL   C52216944   1.276   4.196   7.787  0.5966 -0.0675 -0.0196
   22MOL   C52316945   1.286   4.335   7.803 -0.0721 -0.7627 -0.0377
   22MOL   C52416946   1.248   4.398   7.923 -0.1147  0.1357  0.6817
   22MOL   C52516947   1.264   4.542   7.945  0.1672  0.4351  0.3503
   22MOL   O52616948   1.305   4.628   7.860  0.1262  0.2023 -0.5611
   22MOL   O52716949   1.202   4.581   0.026  0.1514  0.7604  0.2280
   22MOL   C52816950   1.192   4.316   8.023  0.7954 -0.4640 -0.5985
   22MOL   C52916951   1.178   4.175   8.008 -0.7074 -0.3352  0.3140
   22MOL   H53016952   1.110   3.805   0.179 -0.4728 -0.0499  0.9969
   22MOL   H53116953   1.135   3.642   0.126 -0.0487 -0.4714  0.8526
   22MOL   H53216954   1.040   3.591   0.335  1.6344  2.4515 -0.0442
   22MOL   H53316955   0.921   3.727   0.313 -0.1612 -0.2934  0.6298
   22MOL   H53416956   0.923   3.446   0.192 -2.8050 -1.3419  0.0553
   22MOL   H53516957   0.704   3.429   0.284  0.4821  0.2929  0.4368
   22MOL   H53616958   0.830   3.445   0.404  1.0371 -0.9350 -0.2883
   22MOL   H53716959   0.734   3.515   0.065  0.5590 -0.4521 -0.0536
   22MOL   H53816960   0.739   3.676   0.123 -1.3987 -1.7856  1.3786
   22MOL   H53916961   0.839   3.634   7.928  1.0008 -0.5926 -0.8957
   22MOL   H54016962   0.965   3.543   7.994  0.6579  0.1750 -0.5763
   22MOL   H54116963   0.918   3.836   0.032 -1.9878 -2.2530 -1.3830
   22MOL   H54216964   1.163   3.702   7.952 -1.3493 -1.2109 -1.8698
   22MOL   H54316965   1.045   3.756   7.852 -0.1842 -1.0770  0.2566
   22MOL   H54416966   1.308   4.143   7.699  1.2614  1.0145 -0.4334
   22MOL   H54516967   1.319   4.400   7.723 -6.3286  1.3945 -1.1307
   22MOL   H54616968   1.154   4.350   0.083  2.8787 -0.4859  0.2646
   22MOL   H54716969   1.135   4.114   0.050  0.4194  1.9776  2.8755
   22MOL   C54816970   1.100   5.115   0.240 -0.0387  0.1604 -0.3094
   22MOL   C54916971   1.112   4.968   0.232  0.1754  0.1583 -0.3603
   22MOL   C55016972   1.050   4.918   0.097  0.3246  0.1018 -0.2364
   22MOL   C55116973   1.061   4.759   0.072  0.3045  0.1093  0.5283
   22MOL   O55216974   1.196   4.727   0.056 -0.2982  0.5412 -0.3352
   22MOL   C55316975   0.908   4.967   0.085  1.0039 -0.2076  0.1970
   22MOL   C55416976   0.903   5.121   0.081  0.2465  0.0548 -0.0125
   22MOL   C55516977   0.955   5.168   0.215  0.1224 -0.0502 -0.5572
   22MOL   C55616978   0.945   5.318   0.240  0.5449  1.0917  0.2350
   22MOL   O55716979   0.805   5.357   0.232 -0.7294 -0.8597  0.3396
   22MOL   C55816980   0.771   5.486   0.272 -0.1248 -0.1688  0.9656
   22MOL   O55916981   0.859   5.565   0.305  0.2370 -0.6441 -0.4071
   22MOL   C56016982   0.626   5.518   0.259 -0.0822  0.0619  0.5579
   22MOL   C56116983   0.534   5.414   0.225 -0.7390 -0.0901  0.2686
   22MOL   C56216984   0.397   5.435   0.228 -0.4971 -0.2221 -0.3348
   22MOL   C56316985   0.349   5.559   0.266 -0.3500 -0.2745  0.5423
   22MOL   C56416986   0.200   5.569   0.267  0.0970 -0.7889  0.1009
   22MOL   O56516987   0.126   5.490   0.204 -0.3747  0.4102 -0.0688
   22MOL   O56616988   0.152   5.677   0.355 -0.1323  0.5683 -0.9425
   22MOL   C56716989   0.439   5.666   0.298  0.3908  0.3602  0.5612
   22MOL   C56816990   0.582   5.644   0.301  0.8932 -0.2757  0.0510
   22MOL   H56916991   1.136   5.156   0.334 -0.9109 -0.6433  0.3759
   22MOL   H57016992   1.162   5.169   0.168 -0.3559 -0.6778 -1.2240
   22MOL   H57116993   1.215   4.937   0.252 -0.0641  0.1332  0.8714
   22MOL   H57216994   1.063   4.926   0.319 -1.7320  2.5952 -0.2270
   22MOL   H57316995   1.108   4.957   0.014  0.7083 -1.5424 -0.7444
   22MOL   H57416996   1.050   4.710   0.169  1.7855  1.2942  1.3145
   22MOL   H57516997   0.988   4.727   8.033 -0.9184  0.1115  1.6981
   22MOL   H57616998   0.862   4.929   8.029  0.5777 -0.5976  0.5732
   22MOL   H57716999   0.842   4.934   0.165  2.6694 -0.2339  1.6111
   22MOL   H57817000   0.799   5.152   0.068 -0.3669 -2.0582 -0.3798
   22MOL   H57917001   0.958   5.161   8.031  1.4407 -1.2325  0.1250
   22MOL   H58017002   0.886   5.129   0.290 -0.9244 -0.1287 -1.5391
   22MOL   H58117003   0.992   5.338   0.336  0.9240  1.9631 -0.1309
   22MOL   H58217004   1.007   5.367   0.165 -0.3629  0.8457 -0.6840
   22MOL   H58317005   0.567   5.317   0.190  1.5162  1.4302 -1.9555
   22MOL   H58417006   0.333   5.350   0.212 -0.5910  0.2545 -2.6446
   22MOL   H58517007   0.404   5.768   0.301  1.5725  0.7443  1.2715
   22MOL   H58617008   0.643   5.729   0.325  0.5840  0.4917 -1.7764
   22MOL   C58717009   7.662   5.902   0.460  0.0145  0.4937 -0.0938
   22MOL   C58817010   7.803   5.858   0.437 -0.1897  0.4372  0.4358
   22MOL   C58917011   7.819   5.700   0.445  0.3772 -0.3408  0.2069
   22MOL   C59017012   7.972   5.651   0.440 -0.3539 -0.9560 -0.8043
   22MOL   O59117013   0.015   5.706   0.335  0.2924 -0.4747 -0.2606
   22MOL   C59217014   7.759   5.642   0.570 -0.2880  1.0941  0.0487
   22MOL   C59317015   7.618   5.690   0.581 -0.2164  0.3523  0.2475
   22MOL   C59417016   7.603   5.845   0.592  0.1145 -0.3760  0.0452
   22MOL   C59517017   7.450   5.879   0.594  0.5651 -0.1578 -0.4193
   22MOL   O59617018   7.378   5.849   0.707 -0.1646 -0.5110  0.6571
   22MOL   C59717019   7.296   5.742   0.698 -0.8286  1.1452  0.0827
   22MOL   O59817020   7.304   5.653   0.610  0.0519 -0.8215 -0.2037
   22MOL   C59917021   7.184   5.745   0.796  0.4892  0.5160  0.7356
   22MOL   C60017022   7.177   5.838   0.908  0.3055 -1.4335 -0.6659
   22MOL   C60117023   7.068   5.841   0.996  0.1927  0.1003  0.4095
   22MOL   C60217024   6.969   5.736   0.993  0.4785 -0.1262  0.6154
   22MOL   C60317025   6.851   5.739   1.088  0.3538 -0.4113 -0.4216
   22MOL   O60417026   6.845   5.820   1.178  0.1093  0.4082 -0.0800
   22MOL   O60517027   6.765   5.643   1.072 -0.6893  0.5379 -0.3309
   22MOL   C60617028   6.990   5.633   0.900 -0.1471  0.7707  0.2877
   22MOL   C60717029   7.084   5.645   0.798  0.0464  0.6939  0.0997
   22MOL   H60817030   7.658   6.010   0.468  1.4352  0.3986  2.4447
   22MOL   H60917031   7.605   5.882   0.370  1.8383  0.4743 -1.2841
   22MOL   H61017032   7.831   5.884   0.335  1.1261 -4.3572 -0.5666
   22MOL   H61117033   7.866   5.914   0.506 -0.3704  0.9599  0.1736
   22MOL   H61217034   7.782   5.654   0.353 -2.0768 -1.1663  1.5644
   22MOL   H61317035   8.014   5.679   0.536 -2.3690  0.3596 -0.2940
   22MOL   H61417036   7.972   5.544   0.416  0.1483 -0.8976 -1.0809
   22MOL   H61517037   7.758   5.534   0.564 -3.5255  1.1311 -0.8257
   22MOL   H61617038   7.814   5.666   0.662  0.0418 -0.9360  0.3957
   22MOL   H61717039   7.566   5.656   0.671  0.2423  1.9922  1.1690
   22MOL   H61817040   7.558   5.660   0.496 -0.4080  0.4844  0.3346
   22MOL   H61917041   7.652   5.890   0.677  0.6273 -0.4062 -0.2324
   22MOL   H62017042   7.442   5.988   0.593 -1.0417 -0.1717  2.9831
   22MOL   H62117043   7.396   5.855   0.502 -0.7250 -1.6127  0.7101
   22MOL   H62217044   7.244   5.922   0.915  1.1877 -2.2075  0.3576
   22MOL   H62317045   7.079   5.901   1.084  2.1417 -2.4970  1.9957
   22MOL   H62417046   6.918   5.553   0.891  1.4534 -1.1303  3.2239
   22MOL   H62517047   7.101   5.560   0.734  0.5158 -1.3753  2.8483
   22MOL   C62617048   6.471   6.004   0.860  0.1937  0.4586  0.5447
   22MOL   C62717049   6.451   5.902   0.969  0.4719  1.1666 -0.1459
   22MOL   C62817050   6.541   5.783   0.938 -0.1839  1.1379  0.1736
   22MOL   C62917051   6.532   5.668   1.043 -0.1292 -0.3028  0.3060
   22MOL   O63017052   6.635   5.677   1.145  0.0096  0.8394  0.8565
   22MOL   C63117053   6.514   5.724   0.796 -0.0094 -0.1849  0.0181
   22MOL   C63217054   6.526   5.828   0.679  0.7137 -0.6377  0.0451
   22MOL   C63317055   6.440   5.955   0.717 -0.1525  0.1033 -0.4284
   22MOL   C63417056   6.467   6.074   0.620  0.0920 -0.7133  0.5157
   22MOL   O63517057   6.464   6.032   0.491 -0.0052 -0.0213  0.0295
   22MOL   C63617058   6.348   6.028   0.419  0.3671 -0.0831 -0.1560
   22MOL   O63717059   6.244   6.083   0.464 -0.3418 -0.2725 -0.6628
   22MOL   C63817060   6.352   5.944   0.295  0.0506  0.2214 -0.3255
   22MOL   C63917061   6.475   5.896   0.243 -0.8965 -0.1762 -0.0649
   22MOL   C64017062   6.472   5.806   0.130 -0.1310  0.5467 -0.1367
   22MOL   C64117063   6.348   5.774   0.068  0.0829 -0.1458 -0.6311
   22MOL   C64217064   6.345   5.670   7.993  0.9019  0.4216 -0.2551
   22MOL   O64317065   6.443   5.620   7.947  0.1103  0.1449 -0.4778
   22MOL   O64417066   6.226   5.648   7.944 -0.2043  0.1703 -0.2175
   22MOL   C64517067   6.229   5.827   0.117  0.4360 -0.1942  0.1208
   22MOL   C64617068   6.233   5.919   0.226  0.7059  0.6378 -0.3502
   22MOL   H64717069   6.396   6.081   0.876  0.0235  0.3578  0.2459
   22MOL   H64817070   6.574   6.039   0.871  0.7251 -0.6894 -0.5532
   22MOL   H64917071   6.488   5.936   1.066  1.9645 -1.9726  0.4345
   22MOL   H65017072   6.349   5.864   0.977 -0.0426  1.8993 -2.7858
   22MOL   H65117073   6.644   5.816   0.923 -0.2656  2.8501  2.9646
   22MOL   H65217074   6.435   5.665   1.092  0.7583  3.0990  2.5035
   22MOL   H65317075   6.544   5.569   1.000  3.3227 -0.0060  0.4306
   22MOL   H65417076   6.591   5.652   0.768 -0.1269 -0.2876 -0.0408
   22MOL   H65517077   6.418   5.674   0.788  0.6124 -1.5924  1.0033
   22MOL   H65617078   6.484   5.775   0.593 -1.7559  0.3773  0.5759
   22MOL   H65717079   6.632   5.841   0.658  0.5108 -1.5345 -1.5618
   22MOL   H65817080   6.334   5.929   0.719 -0.1053 -0.0124  2.3479
   22MOL   H65917081   6.391   6.149   0.640 -0.3674 -0.7944 -0.8749
   22MOL   H66017082   6.563   6.125   0.630 -0.7905  1.2066 -0.6004
   22MOL   H66117083   6.569   5.933   0.282 -0.3868 -0.8469 -0.6390
   22MOL   H66217084   6.566   5.762   0.098 -2.0980 -3.6048 -0.6211
   22MOL   H66317085   6.132   5.806   0.075  1.4270 -2.3481 -1.1659
   22MOL   H66417086   6.145   5.966   0.268  0.3087  0.2230 -0.7208
   22MOL   C66517087   6.265   5.785   7.419 -0.6463 -0.0793 -0.7517
   22MOL   C66617088   6.183   5.696   7.511 -0.6011 -0.0832 -0.0627
   22MOL   C66717089   6.252   5.657   7.642 -0.0809  0.3857  0.2290
   22MOL   C66817090   6.155   5.578   7.727 -0.1823 -0.6832 -0.1646
   22MOL   O66917091   6.214   5.530   7.848  0.1673 -0.5330  0.1473
   22MOL   C67017092   6.387   5.590   7.606  0.8411  0.4440 -0.2212
   22MOL   C67117093   6.467   5.682   7.519 -0.1296  0.4652 -0.2190
   22MOL   C67217094   6.404   5.726   7.387 -0.1990 -0.4565  0.4506
   22MOL   C67317095   6.486   5.833   7.315  0.1822  0.3222 -0.7449
   22MOL   O67417096   6.600   5.765   7.256  0.7020  0.3077 -0.7303
   22MOL   C67517097   6.648   5.801   7.140 -0.3644 -0.1543 -0.1590
   22MOL   O67617098   6.603   5.891   7.078 -0.0757 -0.2390  0.3633
   22MOL   C67717099   6.767   5.718   7.097  0.5352 -0.2750 -0.0338
   22MOL   C67817100   6.794   5.598   7.169 -0.0610  0.7408  0.0897
   22MOL   C67917101   6.897   5.512   7.126  0.2751  0.5122  0.3235
   22MOL   C68017102   6.977   5.547   7.016 -0.3990 -0.5254  0.1506
   22MOL   C68117103   7.089   5.458   6.968  0.5474 -0.1473 -0.3810
   22MOL   O68217104   7.109   5.346   7.011  0.1923  0.5746 -0.1497
   22MOL   O68317105   7.163   5.523   6.875  0.0245  0.0990  0.2776
   22MOL   C68417106   6.948   5.668   6.942 -0.2113  0.5673 -0.0773
   22MOL   C68517107   6.845   5.751   6.986 -0.1665  0.2512  0.1826
   22MOL   H68617108   6.205   5.806   7.330 -2.5697 -0.4228  0.4316
   22MOL   H68717109   6.274   5.877   7.476 -0.4693 -0.5603  0.0024
   22MOL   H68817110   6.103   5.761   7.547  1.2984  0.2451  3.7454
   22MOL   H68917111   6.136   5.618   7.451 -1.6066 -0.4892  1.2179
   22MOL   H69017112   6.282   5.741   7.704  2.0445  1.8620 -2.6679
   22MOL   H69117113   6.068   5.639   7.750  0.4725  0.1101  0.2243
   22MOL   H69217114   6.115   5.492   7.673  0.9532 -3.1529  2.7745
   22MOL   H69317115   6.432   5.567   7.703 -0.5788  0.5479  0.4677
   22MOL   H69417116   6.365   5.494   7.559 -1.1608 -0.4719  2.4653
   22MOL   H69517117   6.565   5.636   7.505 -2.1389 -3.7222 -1.3541
   22MOL   H69617118   6.490   5.768   7.582  2.6929 -0.9615  0.7915
   22MOL   H69717119   6.393   5.641   7.319 -3.3274 -0.2029  0.5824
   22MOL   H69817120   6.422   5.885   7.244 -1.6659  1.1800  1.4721
   22MOL   H69917121   6.524   5.906   7.387 -1.4980  0.8125 -0.3401
   22MOL   H70017122   6.745   5.580   7.264  1.7063  0.1288  0.9070
   22MOL   H70117123   6.930   5.431   7.189  0.8818 -0.2650 -0.9769
   22MOL   H70217124   7.006   5.700   6.857  0.8756 -0.4845  0.2449
   22MOL   H70317125   6.826   5.841   6.929  0.4552  1.2509  1.5291
   22MOL   C70417126   7.750   5.487   6.810 -0.2635  0.7457  0.3671
   22MOL   C70517127   7.639   5.481   6.917 -0.5992 -0.2584 -0.0150
   22MOL   C70617128   7.510   5.491   6.838  0.0567  0.1751 -0.5487
   22MOL   C70717129   7.390   5.464   6.918 -0.2798 -0.8839  0.1310
   22MOL   O70817130   7.284   5.446   6.828  0.5068  0.0767 -0.2202
   22MOL   C70917131   7.503   5.616   6.754 -0.3050  0.0493 -0.3510
   22MOL   C71017132   7.612   5.612   6.642  0.8188  0.2586  0.4866
   22MOL   C71117133   7.750   5.607   6.711  0.2514 -0.1773 -0.1176
   22MOL   C71217134   7.861   5.596   6.610  0.5592  0.3035 -0.2559
   22MOL   O71317135   7.936   5.716   6.582  0.1056 -0.2358  0.6241
   22MOL   C71417136   8.016   5.755   6.683  0.2947  0.1380  0.5806
   22MOL   O71517137   8.027   5.694   6.790  0.6267  0.5975 -0.1622
   22MOL   C71617138   0.077   5.854   6.633 -0.5847 -0.0773  0.3287
   22MOL   C71717139   0.202   5.867   6.697 -0.2885 -0.0198  0.6444
   22MOL   C71817140   0.308   5.941   6.641 -0.6190 -0.2030  0.4525
   22MOL   C71917141   0.286   6.005   6.512 -0.0207  0.1447  0.3420
   22MOL   C72017142   0.396   6.078   6.442 -0.8359 -0.5933 -0.2559
   22MOL   O72117143   0.401   6.099   6.315  0.0143  0.3441  0.1395
   22MOL   O72217144   0.495   6.109   6.524 -0.5962  0.1962 -0.5050
   22MOL   C72317145   0.155   5.997   6.452  0.0776 -0.5382 -0.6204
   22MOL   C72417146   0.049   5.927   6.511  0.1473  0.1085 -0.6464
   22MOL   H72517147   7.849   5.492   6.855  0.2973 -0.3512 -0.7334
   22MOL   H72617148   7.751   5.398   6.748 -2.6742  0.6507  0.4137
   22MOL   H72717149   7.654   5.391   6.975 -0.2645 -0.0046  0.2994
   22MOL   H72817150   7.641   5.567   6.984  0.3313 -1.1299  1.0992
   22MOL   H72917151   7.521   5.402   6.776 -2.3801 -0.3307 -0.3073
   22MOL   H73017152   7.402   5.377   6.983 -0.1873 -1.4101 -0.5899
   22MOL   H73117153   7.359   5.546   6.984  1.7872  0.6319 -0.7430
   22MOL   H73217154   7.400   5.632   6.720 -0.2007  0.5943 -0.4135
   22MOL   H73317155   7.512   5.703   6.820  2.2027 -0.4910  0.0692
   22MOL   H73417156   7.602   5.699   6.578 -0.6044 -1.2803 -1.4540
   22MOL   H73517157   7.589   5.524   6.582 -1.5737  0.4645  1.0379
   22MOL   H73617158   7.760   5.700   6.767  0.7800 -0.7547  0.7724
   22MOL   H73717159   7.934   5.522   6.643  1.2245  1.0712  0.0226
   22MOL   H73817160   7.818   5.549   6.521 -0.1766  0.0516  0.2280
   22MOL   H73917161   0.226   5.821   6.792  2.3397  0.5081  0.2652
   22MOL   H74017162   0.405   5.944   6.689  0.3329  3.0730 -1.4538
   22MOL   H74117163   0.145   6.039   6.353  0.5825  1.7012  0.2265
   22MOL   H74217164   7.987   5.907   6.467  0.6643 -0.0022 -1.7665
   22MOL   C74317165   1.054   5.930   6.296  0.2466  0.5411  0.4064
   22MOL   C74417166   0.929   5.920   6.383 -0.5905 -0.4001  0.3436
   22MOL   C74517167   0.838   6.043   6.378  0.2730  0.3594  0.4186
   22MOL   C74617168   0.705   6.025   6.462  0.6737  0.9844  0.7148
   22MOL   O74717169   0.626   6.142   6.455 -0.5245 -0.1112  0.0063
   22MOL   C74817170   0.918   6.167   6.416  0.0450  0.3364  0.8663
   22MOL   C74917171   1.021   6.193   6.311  0.3629 -0.5957  0.1063
   22MOL   C75017172   1.120   6.065   6.314 -0.0749 -0.3438  0.1899
   22MOL   C75117173   1.245   6.097   6.223 -0.8142 -0.2334 -0.7074
   22MOL   O75217174   1.314   6.206   6.284 -0.1142 -0.2027 -0.2982
   22MOL   C75317175   1.444   6.207   6.278  0.5528 -0.7052  0.4605
   22MOL   O75417176   1.510   6.129   6.215  0.1064  0.2955 -0.0103
   22MOL   C75517177   1.498   6.311   6.370  0.8708 -0.3334 -0.7062
   22MOL   C75617178   1.633   6.351   6.360 -0.4810  0.0626  0.2014
   22MOL   C75717179   1.688   6.438   6.459  0.0151  0.4432  0.0308
   22MOL   C75817180   1.612   6.484   6.564  0.4223  0.6012 -0.5444
   22MOL   C75917181   1.670   6.568   6.678  0.1720  0.0973  0.1449
   22MOL   O76017182   1.601   6.599   6.773  0.0110 -0.4311  0.4526
   22MOL   O76117183   1.802   6.605   6.671 -0.0825 -0.3345  0.5718
   22MOL   C76217184   1.471   6.453   6.565 -0.0814 -0.6709 -0.5375
   22MOL   C76317185   1.416   6.369   6.470 -0.1115 -0.4457  0.3015
   22MOL   H76417186   1.123   5.848   6.314  0.6239  1.0287  1.2039
   22MOL   H76517187   1.031   5.926   6.190  0.7312  1.0768  0.2773
   22MOL   H76617188   0.871   5.829   6.365  1.0891 -1.4587  0.1398
   22MOL   H76717189   0.953   5.913   6.489  1.4659  0.9858 -0.0014
   22MOL   H76817190   0.795   6.051   6.278  1.0324  4.7003  0.3659
   22MOL   H76917191   0.658   5.936   6.421  1.9786  1.0280 -0.9115
   22MOL   H77017192   0.723   6.001   6.567 -0.0009  0.2271  0.6574
   22MOL   H77117193   0.861   6.259   6.432  1.5818  1.2684  1.2332
   22MOL   H77217194   0.965   6.141   6.511 -2.3088  1.5632  2.4133
   22MOL   H77317195   1.074   6.285   6.337 -0.2901 -0.0149 -0.5937
   22MOL   H77417196   0.978   6.204   6.211  4.8589  0.6327 -1.8693
   22MOL   H77517197   1.158   6.057   6.416 -1.4433 -2.2519  0.5651
   22MOL   H77617198   1.310   6.009   6.229 -0.0078  0.4332  0.4894
   22MOL   H77717199   1.212   6.121   6.121 -0.1323  1.7407 -0.4893
   22MOL   H77817200   1.692   6.314   6.277  0.1944 -2.3349  1.7239
   22MOL   H77917201   1.792   6.466   6.458  0.0220  0.6209  2.6273
   22MOL   H78017202   1.411   6.490   6.647  0.2068 -3.0274  0.7736
   22MOL   H78117203   1.313   6.338   6.486 -0.4041  0.4170  0.0768
   22MOL   H78217204   1.827   6.643   6.754  1.5693  0.9684 -0.4943
   23MOL     C117205   6.388   0.479   1.322 -0.3381 -0.1007  0.1927
   23MOL     C217206   6.541   0.480   1.287 -0.3568  0.1447 -0.6878
   23MOL     C317207   6.628   0.415   1.402 -0.3577 -0.1684  0.2501
   23MOL     C417208   6.781   0.418   1.369 -0.2591  0.5847  0.3743
   23MOL     O517209   6.819   0.358   1.245  0.0685  0.2402 -0.2973
   23MOL     C617210   6.591   0.484   1.532  0.5979 -0.3066 -0.0913
   23MOL     C717211   6.442   0.486   1.566  0.3347  0.6980  0.0937
   23MOL     C817212   6.358   0.548   1.453 -0.2246 -0.2904 -0.2584
   23MOL     C917213   6.207   0.545   1.482  0.3579 -0.1762 -0.1102
   23MOL    O1017214   6.175   0.582   1.616 -0.1153 -0.1468  0.5692
   23MOL    C1117215   6.124   0.698   1.640 -0.0118 -0.0807  0.2799
   23MOL    O1217216   6.116   0.790   1.552 -0.0858 -0.1220 -0.0543
   23MOL    C1317217   6.093   0.709   1.786  0.4236 -0.3407 -0.9596
   23MOL    C1417218   6.091   0.835   1.837 -0.4588  0.0517 -0.0210
   23MOL    C1517219   6.071   0.852   1.977  0.8921 -0.5969  0.4893
   23MOL    C1617220   6.047   0.739   2.064  0.1118 -0.0879  0.2225
   23MOL    C1717221   6.015   0.774   2.209  0.6367  0.3123 -0.3457
   23MOL    O1817222   5.994   0.890   2.247  0.8434 -0.1446 -0.0153
   23MOL    O1917223   5.997   0.663   2.292 -0.2404 -0.3365 -0.1922
   23MOL    C2017224   6.055   0.611   2.008  0.4381  0.2260  0.2406
   23MOL    C2117225   6.078   0.593   1.871 -0.2828 -0.3041 -0.6125
   23MOL    H2217226   6.339   0.521   1.234  1.6192 -0.0408 -0.9177
   23MOL    H2317227   6.356   0.375   1.326 -0.5513 -0.1216 -1.5659
   23MOL    H2417228   6.543   0.425   1.193 -2.3858  0.3814 -0.8956
   23MOL    H2517229   6.573   0.581   1.259  0.5795 -0.0395 -0.3061
   23MOL    H2617230   6.586   0.316   1.418  0.5445 -0.4222  1.0814
   23MOL    H2717231   6.825   0.517   1.374  1.9246 -0.4927  3.8246
   23MOL    H2817232   6.827   0.361   1.450 -0.4567 -0.2627 -0.0937
   23MOL    H2917233   6.638   0.429   1.613  0.0479  0.2466  0.6046
   23MOL    H3017234   6.639   0.582   1.529 -1.3977  0.7660  1.7643
   23MOL    H3117235   6.432   0.540   1.660  1.4513  1.1457 -0.0473
   23MOL    H3217236   6.409   0.387   1.597  0.2799  0.6868 -0.0017
   23MOL    H3317237   6.385   0.654   1.448 -1.5820  0.0979  0.2204
   23MOL    H3417238   6.141   0.590   1.408  0.9043 -2.2775 -1.9422
   23MOL    H3517239   6.180   0.439   1.474  0.7228 -0.2911  0.1465
   23MOL    H3617240   6.096   0.916   1.766  0.6148  0.0160  0.0164
   23MOL    H3717241   6.066   0.951   2.021 -0.1423 -0.8715  0.9973
   23MOL    H3817242   6.042   0.524   2.069  0.7276 -0.1549 -0.2384
   23MOL    H3917243   6.076   0.496   1.824 -0.7676 -0.4474 -0.3009
   23MOL    H4017244   6.776   0.409   1.178 -2.9345 -1.8887 -0.1070
   23MOL    C4117245   5.953   0.867   2.832 -0.0735 -0.2804  0.5861
   23MOL    C4217246   5.983   0.837   2.679 -0.0681 -0.0341  0.7372
   23MOL    C4317247   6.087   0.726   2.644 -0.0180  0.0665  0.0416
   23MOL    C4417248   6.110   0.718   2.494 -0.6762 -0.1374 -0.1685
   23MOL    O4517249   5.978   0.700   2.433 -0.5542 -0.0072  0.0068
   23MOL    C4617250   6.218   0.743   2.735  0.0463 -1.0774  0.3367
   23MOL    C4717251   6.181   0.760   2.884 -0.7685 -0.0275 -0.0009
   23MOL    C4817252   6.093   0.883   2.907  0.2094  0.2383  0.0557
   23MOL    C4917253   6.063   0.918   3.054  0.8197  0.0149 -0.5989
   23MOL    O5017254   6.023   0.811   3.130 -0.2677  0.5793  0.0060
   23MOL    C5117255   5.895   0.783   3.170  0.2804 -0.2604 -0.0815
   23MOL    O5217256   5.793   0.855   3.150  0.3212 -0.2114  0.0642
   23MOL    C5317257   5.878   0.641   3.214  0.0494  0.4629  0.4949
   23MOL    C5417258   5.765   0.604   3.295 -0.2479  0.5975 -0.4715
   23MOL    C5517259   5.740   0.473   3.336  0.1275 -0.0407  0.1273
   23MOL    C5617260   5.832   0.371   3.305  0.3679 -0.2004 -0.1625
   23MOL    C5717261   5.811   0.233   3.357  0.1063  0.1945 -0.2968
   23MOL    O5817262   5.893   0.138   3.341  0.1653 -0.1626  0.2448
   23MOL    O5917263   5.700   0.222   3.437 -0.1659  0.4349  0.4821
   23MOL    C6017264   5.943   0.403   3.226 -0.5250 -0.7891  0.1757
   23MOL    C6117265   5.964   0.539   3.186 -0.2090  0.0325 -0.7402
   23MOL    H6217266   5.894   0.959   2.838 -1.3954 -0.9370 -1.7384
   23MOL    H6317267   5.902   0.784   2.879  0.1109  1.2716  3.6425
   23MOL    H6417268   5.888   0.818   2.631 -0.7261 -0.5613  2.2220
   23MOL    H6517269   6.018   0.935   2.644 -0.5753  0.3913  1.4023
   23MOL    H6617270   6.036   0.638   2.683  3.1268 -0.6716  2.7074
   23MOL    H6717271   6.166   0.805   2.459 -0.9147 -0.4188 -1.2928
   23MOL    H6817272   6.178   0.634   2.483 -1.6768 -1.1819  1.4702
   23MOL    H6917273   6.293   0.665   2.732 -1.2248 -2.3698  1.6641
   23MOL    H7017274   6.260   0.841   2.708  0.7722 -1.0962  1.3638
   23MOL    H7117275   6.279   0.761   2.931 -0.6961 -2.1648 -0.0634
   23MOL    H7217276   6.124   0.669   2.904  0.4391 -1.1439 -1.5445
   23MOL    H7317277   6.141   0.973   2.868  2.1376 -1.0187 -0.5334
   23MOL    H7417278   6.148   0.958   3.108  1.6170 -1.3982 -0.7739
   23MOL    H7517279   5.984   0.993   3.056  1.5190  0.7080  1.7104
   23MOL    H7617280   5.691   0.678   3.323 -2.8024 -1.6319 -1.1011
   23MOL    H7717281   5.658   0.452   3.403 -0.0409  0.4296  0.0687
   23MOL    H7817282   6.017   0.331   3.194  0.7426  1.0802 -1.2307
   23MOL    H7917283   6.055   0.567   3.133  0.3724 -2.0056 -0.8908
   23MOL    C8017284   5.478   7.972   3.869  0.2103 -0.2196 -0.0447
   23MOL    C8117285   5.539   0.039   3.774  0.4868  0.1930 -0.6430
   23MOL    C8217286   5.668   8.015   3.709  0.3055  0.2094 -1.0647
   23MOL    C8317287   5.728   0.092   3.619 -0.2703  0.1574  0.0888
   23MOL    O8417288   5.672   0.096   3.491 -0.0221 -0.1279 -0.4609
   23MOL    C8517289   5.768   7.979   3.816  0.3026 -0.0637  0.1227
   23MOL    C8617290   5.708   7.890   3.921  0.3765  0.6910 -0.1084
   23MOL    C8717291   5.581   7.946   3.983 -0.1387  0.1748  0.3781
   23MOL    C8817292   5.521   7.843   4.084 -0.6059 -0.2976 -0.3945
   23MOL    O8917293   5.622   7.830   4.174  0.1263 -0.3080 -0.5951
   23MOL    C9017294   5.612   7.767   4.289 -0.2666  0.3445  0.2704
   23MOL    O9117295   5.498   7.739   4.332  0.2248 -0.6213  0.1467
   23MOL    C9217296   5.746   7.754   4.350  0.0491  0.1958  0.1288
   23MOL    C9317297   5.746   7.687   4.473  0.3372 -0.4321 -0.4787
   23MOL    C9417298   5.865   7.656   4.534  0.1636 -0.1052 -1.2132
   23MOL    C9517299   5.984   7.678   4.469  0.1380  0.0762 -0.0168
   23MOL    C9617300   6.117   7.629   4.531  0.0458  0.0550  0.1719
   23MOL    O9717301   6.125   7.573   4.641  0.4682  0.0807  0.7457
   23MOL    O9817302   6.229   7.666   4.471  0.2356  0.6264 -0.2123
   23MOL    C9917303   5.991   7.734   4.339 -0.3285 -0.0050  0.1910
   23MOL   C10017304   5.872   7.782   4.285  0.6483  0.0332 -0.3633
   23MOL   H10117305   5.379   7.996   3.908  1.7074  3.7598  1.4964
   23MOL   H10217306   5.458   7.879   3.816  0.3770 -0.2618 -0.0324
   23MOL   H10317307   5.455   0.064   3.710 -0.9721 -1.0532  0.7260
   23MOL   H10417308   5.572   0.124   3.834  0.2852 -0.8950  1.0664
   23MOL   H10517309   5.664   7.923   3.651  0.0818 -1.1239  1.0291
   23MOL   H10617310   5.730   0.189   3.668 -2.2396 -0.4446  1.4098
   23MOL   H10717311   5.834   0.064   3.619  0.7570  3.8265  0.1993
   23MOL   H10817312   5.855   7.923   3.780  0.1758  0.6409 -1.3248
   23MOL   H10917313   5.813   0.029   3.865  0.0157 -1.2678  2.5463
   23MOL   H11017314   5.790   7.881   3.993 -0.2276  1.3345  0.6733
   23MOL   H11117315   5.687   7.796   3.871  2.0748  0.7073 -0.8840
   23MOL   H11217316   5.601   0.010   4.022 -1.3936  0.6052 -0.0275
   23MOL   H11317317   5.420   7.864   4.120 -0.5799  2.6368 -1.8907
   23MOL   H11417318   5.511   7.755   4.020  1.9028  0.7160 -2.2836
   23MOL   H11517319   5.655   7.671   4.529  0.3962 -0.3241 -0.3520
   23MOL   H11617320   5.861   7.613   4.634  1.1271 -0.8860 -1.4997
   23MOL   H11717321   6.085   7.742   4.287 -0.5366 -1.1488 -0.3823
   23MOL   H11817322   5.880   7.826   4.186 -0.8652 -1.6060 -1.2401
   23MOL   C11917323   6.737   7.481   4.742  0.2457 -0.7828 -0.6780
   23MOL   C12017324   6.589   7.515   4.702  0.5586  0.0891 -0.5810
   23MOL   C12117325   6.566   7.650   4.645 -0.1450  0.5011 -0.2809
   23MOL   C12217326   6.419   7.680   4.621  0.1155  0.3840 -0.4491
   23MOL   O12317327   6.358   7.599   4.517  0.4432 -0.2966  0.1859
   23MOL   C12417328   6.633   7.763   4.719  0.1032 -0.5303  0.1767
   23MOL   C12517329   6.773   7.734   4.755 -0.2066 -0.1578 -0.3601
   23MOL   C12617330   6.800   7.595   4.826 -0.9132  0.6960 -0.2585
   23MOL   C12717331   6.942   7.568   4.856  0.7822 -0.0796 -0.0836
   23MOL   O12817332   6.997   7.645   4.956  0.5136  0.6156  0.5594
   23MOL   C12917333   7.133   7.666   4.972  0.4446  0.0900  0.0409
   23MOL   O13017334   7.221   7.620   4.892 -0.1577 -0.1757 -0.0093
   23MOL   C13117335   7.159   7.767   5.080 -0.3071 -0.2661 -0.3311
   23MOL   C13217336   7.058   7.845   5.144  0.5949  0.8077 -0.5759
   23MOL   C13317337   7.100   7.940   5.238  0.0073 -0.4329  0.1882
   23MOL   C13417338   7.238   7.964   5.257  0.4716 -0.1232 -0.1282
   23MOL   C13517339   7.295   0.038   5.340  0.8533 -0.7613 -0.4522
   23MOL   O13617340   7.235   0.148   5.360 -0.0067 -0.2618  1.0483
   23MOL   O13717341   7.413   0.010   5.395 -0.4072 -0.3471  0.1050
   23MOL   C13817342   7.329   7.886   5.182 -0.0153  0.0238  0.2616
   23MOL   C13917343   7.293   7.776   5.106  0.3719 -0.5801 -0.4433
   23MOL   H14017344   6.741   7.397   4.811  1.0007 -0.3324 -0.1710
   23MOL   H14117345   6.800   7.467   4.655  0.3755  1.8963 -1.0550
   23MOL   H14217346   6.564   7.439   4.628  0.5628 -0.6939  0.2194
   23MOL   H14317347   6.532   7.503   4.794  1.8828  0.3214  0.2767
   23MOL   H14417348   6.611   7.648   4.545 -1.2730 -1.8546 -0.7758
   23MOL   H14517349   6.364   7.678   4.715  0.0926  1.7230 -0.4263
   23MOL   H14617350   6.428   7.781   4.581  2.7844  0.5751  0.5085
   23MOL   H14717351   6.623   7.856   4.663 -1.8570 -0.1718  1.0746
   23MOL   H14817352   6.569   7.777   4.806 -1.3137 -0.6812 -0.8244
   23MOL   H14917353   6.822   7.806   4.820  0.5384 -0.0028 -1.0861
   23MOL   H15017354   6.832   7.744   4.663 -0.6853 -1.4022 -0.8160
   23MOL   H15117355   6.743   7.617   4.916  1.5725  2.4676  0.9230
   23MOL   H15217356   6.948   7.465   4.891 -1.0680  0.0492  0.6639
   23MOL   H15317357   7.003   7.587   4.768 -0.7034 -1.3874 -1.4306
   23MOL   H15417358   6.953   7.835   5.122  0.2483 -0.1668  1.4663
   23MOL   H15517359   7.028   8.004   5.287  1.4956 -0.1503  2.0402
   23MOL   H15617360   7.434   7.912   5.192 -0.4011  1.6509  0.1198
   23MOL   H15717361   7.373   7.714   5.069  0.7135 -0.1607 -0.4155
   23MOL   C15817362   7.887   0.009   5.315  0.0133 -0.2258  0.5259
   23MOL   C15917363   7.770   0.070   5.392  0.2000  0.3820 -0.6210
   23MOL   C16017364   7.652   0.125   5.307 -0.3419  0.6306  0.3682
   23MOL   C16117365   7.547   0.205   5.384 -0.0201 -0.3083 -0.4863
   23MOL   O16217366   7.480   0.119   5.478  0.5887  0.1090 -0.3771
   23MOL   C16317367   7.703   0.202   5.181 -0.7107 -0.2971 -0.7354
   23MOL   C16417368   7.818   0.136   5.113  0.6783 -0.8309 -0.7818
   23MOL   C16517369   7.934   0.100   5.210  0.1814  0.1824 -0.1661
   23MOL   C16617370   0.033   0.054   5.148  0.2173 -0.3511 -0.2818
   23MOL   O16717371   0.058   0.150   5.045  0.0881 -0.9047 -0.0055
   23MOL   C16817372   0.150   0.124   4.958 -0.5322 -0.4259  0.3975
   23MOL   O16917373   0.226   0.030   4.969  0.1248  0.8473  0.0122
   23MOL   C17017374   0.135   0.217   4.844 -0.0627 -0.5422  0.0145
   23MOL   C17117375   0.037   0.315   4.834  0.7601 -0.2349  0.5917
   23MOL   C17217376   0.027   0.401   4.718 -0.0861 -0.2198 -0.4914
   23MOL   C17317377   0.110   0.378   4.609 -0.0846  0.3112  0.0986
   23MOL   C17417378   0.090   0.464   4.491  0.6145 -0.0123  0.1983
   23MOL   O17517379   0.013   0.561   4.483 -0.3326 -0.3974 -0.7058
   23MOL   O17617380   0.155   0.419   4.383  0.3222 -0.0162  0.0171
   23MOL   C17717381   0.211   0.280   4.614 -0.3645 -0.4021 -0.0415
   23MOL   C17817382   0.227   0.201   4.732 -0.4310  0.6066 -0.0081
   23MOL   H17917383   7.968   8.026   5.385  1.3399 -0.1475 -0.9617
   23MOL   H18017384   7.863   7.947   5.272  1.9206 -1.7813  2.8564
   23MOL   H18117385   7.716   0.004   5.460  0.7858 -0.8935 -1.3586
   23MOL   H18217386   7.805   0.141   5.466  0.4158 -1.1981  0.8215
   23MOL   H18317387   7.601   0.041   5.260 -0.7966  0.8803  0.4079
   23MOL   H18417388   7.591   0.290   5.436 -1.1091  0.0176 -0.0827
   23MOL   H18517389   7.473   0.250   5.319 -0.0237  0.8538  0.3059
   23MOL   H18617390   7.619   0.212   5.112 -0.8991 -2.1574 -0.7991
   23MOL   H18717391   7.729   0.306   5.201  1.3203 -0.9061 -0.0693
   23MOL   H18817392   7.865   0.206   5.043 -0.0453 -1.1389 -1.5954
   23MOL   H18917393   7.784   0.047   5.060  1.1747 -1.3183 -0.2848
   23MOL   H19017394   7.960   0.192   5.262  1.5331  0.1418 -0.7584
   23MOL   H19117395   0.112   0.048   5.223 -2.3098 -0.3418  2.4731
   23MOL   H19217396   0.024   7.985   5.120 -2.2843  0.1863 -1.5843
   23MOL   H19317397   7.997   0.342   4.906  1.3421  0.8290  0.8125
   23MOL   H19417398   7.995   0.485   4.724  3.2010  2.5877 -0.8382
   23MOL   H19517399   0.278   0.265   4.531  1.7772 -1.1552  1.7555
   23MOL   H19617400   0.309   0.131   4.739 -1.0061  0.0477  1.4660
   23MOL   C19717401   8.028   0.690   3.897 -0.6469 -0.2553 -0.8897
   23MOL   C19817402   0.021   0.618   4.035 -0.2414 -0.3822 -0.3124
   23MOL   C19917403   0.001   0.464   4.037 -0.7097 -0.5981  0.2090
   23MOL   C20017404   0.023   0.411   4.181 -0.0452 -0.3542 -0.0319
   23MOL   O20117405   0.122   0.490   4.251  0.5679  0.4248  0.4934
   23MOL   C20217406   7.909   0.417   3.967  0.4694  0.1619  0.1204
   23MOL   C20317407   7.883   0.490   3.829 -0.3882 -0.4449  0.2280
   23MOL   C20417408   7.892   0.645   3.841  0.2982 -0.6363  0.3465
   23MOL   C20517409   7.865   0.714   3.710 -0.5921 -0.2908 -0.2426
   23MOL   O20617410   7.732   0.765   3.704  0.3201 -0.1580  0.3753
   23MOL   C20717411   7.631   0.702   3.635  0.0296 -0.6133 -0.0944
   23MOL   O20817412   7.649   0.603   3.561 -0.0389  0.3228 -0.2799
   23MOL   C20917413   7.500   0.777   3.649  0.3141  0.2940  0.5167
   23MOL   C21017414   7.487   0.888   3.726 -0.3939 -0.5469  0.0925
   23MOL   C21117415   7.368   0.969   3.726 -0.2608  1.1110 -0.1822
   23MOL   C21217416   7.257   0.935   3.645  0.2637  0.7535  0.0162
   23MOL   C21317417   7.133   1.020   3.652  0.4085  0.6348 -0.3263
   23MOL   O21417418   7.103   1.100   3.744 -0.0554 -0.0483 -0.7536
   23MOL   O21517419   7.058   0.998   3.547  0.5088 -0.3460  0.3444
   23MOL   C21617420   7.268   0.819   3.566  0.3243 -0.4183  0.2467
   23MOL   C21717421   7.391   0.745   3.565 -0.0497  0.2066  0.1826
   23MOL   H21817422   8.029   0.797   3.917  0.2442 -0.4734  0.2869
   23MOL   H21917423   0.073   0.673   3.826 -0.1049  2.3800 -0.9558
   23MOL   H22017424   0.120   0.646   4.069 -0.0675  0.3870 -1.4271
   23MOL   H22117425   7.998   0.652   4.120 -0.2317 -0.4348 -0.2848
   23MOL   H22217426   0.074   0.418   3.970  1.4026  2.1643  0.5539
   23MOL   H22317427   7.971   0.392   4.243 -0.8549 -0.0923 -1.0783
   23MOL   H22417428   0.054   0.307   4.167  1.3908 -0.0231  0.6611
   23MOL   H22517429   7.896   0.310   3.948 -0.0382 -0.1630  2.2522
   23MOL   H22617430   7.825   0.443   4.031  1.1933  3.1352 -0.0943
   23MOL   H22717431   7.785   0.466   3.786 -0.1960 -0.7611 -0.0378
   23MOL   H22817432   7.965   0.462   3.764  0.1063  1.9167 -0.2034
   23MOL   H22917433   7.825   0.683   3.918  0.6929  0.5707  0.1017
   23MOL   H23017434   7.940   0.792   3.695 -0.8431  0.2359  1.2100
   23MOL   H23117435   7.889   0.635   3.639 -0.4097 -1.1181  0.7309
   23MOL   H23217436   7.567   0.926   3.788 -0.0863  0.6442 -1.0085
   23MOL   H23317437   7.364   1.061   3.783 -0.8154 -0.1906  1.9699
   23MOL   H23417438   7.179   0.783   3.518 -1.3118 -0.5322  3.2586
   23MOL   H23517439   7.403   0.675   3.484 -0.4836  0.2957  0.0384
   23MOL   C23617440   6.552   1.323   3.722  0.1426  0.5715  0.2767
   23MOL   C23717441   6.625   1.199   3.670  0.1649  0.1799  0.2897
   23MOL   C23817442   6.774   1.219   3.654  0.0560 -0.1847 -0.0224
   23MOL   C23917443   6.836   1.082   3.600 -0.2161 -0.6267 -0.2573
   23MOL   O24017444   6.954   1.108   3.526 -0.5309  0.0079 -0.0904
   23MOL   C24117445   6.802   1.338   3.563  0.4194 -0.3454  0.2460
   23MOL   C24217446   6.726   1.468   3.610 -0.5665 -0.3256  0.3246
   23MOL   C24317447   6.580   1.451   3.641  0.3193  0.7301 -0.3089
   23MOL   C24417448   6.532   1.577   3.714 -0.5091  0.4154 -0.0742
   23MOL   O24517449   6.394   1.594   3.697  0.6288 -0.0456 -0.2344
   23MOL   C24617450   6.332   1.703   3.743 -0.2829  0.1478  0.2394
   23MOL   O24717451   6.392   1.789   3.809  0.0002  0.1633 -0.3554
   23MOL   C24817452   6.190   1.720   3.699  0.2137  0.0422  0.5811
   23MOL   C24917453   6.129   1.612   3.626 -0.1370  0.8577  0.4475
   23MOL   C25017454   5.997   1.626   3.589  0.6793  0.0514  0.6769
   23MOL   C25117455   5.922   1.743   3.616 -0.8435 -0.0995  0.4543
   23MOL   C25217456   5.779   1.748   3.566  0.7906 -0.3143  0.6028
   23MOL   O25317457   5.690   1.824   3.613 -0.4716 -0.5401 -0.2599
   23MOL   O25417458   5.751   1.655   3.464  0.5009  0.4593 -0.5899
   23MOL   C25517459   5.985   1.856   3.673  0.4765  0.3280 -0.0718
   23MOL   C25617460   6.120   1.838   3.721  0.7597  0.5469 -0.5358
   23MOL   H25717461   6.445   1.303   3.724  0.2761 -0.2378 -0.3550
   23MOL   H25817462   6.587   1.324   3.825  2.7644  1.1085 -0.5930
   23MOL   H25917463   6.597   1.114   3.732  1.2421 -1.9733 -2.0715
   23MOL   H26017464   6.585   1.168   3.573  2.1462  2.0557 -1.1783
   23MOL   H26117465   6.829   1.229   3.747 -0.2591  1.4956  0.0010
   23MOL   H26217466   6.838   1.000   3.672  0.3944  0.3737  0.8863
   23MOL   H26317467   6.758   1.037   3.539 -0.2400 -1.2955  0.2537
   23MOL   H26417468   6.907   1.366   3.566  0.0234  1.0692  1.1648
   23MOL   H26517469   6.769   1.326   3.460 -0.7040 -1.5088  0.7167
   23MOL   H26617470   6.738   1.540   3.530  1.0281 -1.1128 -0.1607
   23MOL   H26717471   6.778   1.504   3.699  2.2894 -1.6713 -0.7490
   23MOL   H26817472   6.521   1.437   3.551 -1.4194  1.4304  0.6871
   23MOL   H26917473   6.564   1.571   3.818  0.5281 -0.9813 -0.4458
   23MOL   H27017474   6.581   1.658   3.660  2.2385  0.0294  1.6997
   23MOL   H27117475   6.177   1.516   3.610 -2.0006 -0.2209  1.1276
   23MOL   H27217476   5.945   1.539   3.551  0.6129  0.9355 -1.3269
   23MOL   H27317477   5.937   1.950   3.694 -1.6401 -0.7508  0.0154
   23MOL   H27417478   6.170   1.922   3.768  1.0412  0.4222 -0.6141
   23MOL   C27517479   5.514   1.150   3.564  0.8547  0.3831  0.2548
   23MOL   C27617480   5.487   1.305   3.573  0.2752  0.5215  0.4392
   23MOL   C27717481   5.572   1.393   3.473 -0.4021  0.3454 -0.5785
   23MOL   C27817482   5.549   1.539   3.512  0.2396  0.0533 -0.4211
   23MOL   O27917483   5.600   1.638   3.429 -0.4002  0.3630  0.0458
   23MOL   C28017484   5.720   1.349   3.477 -0.3566 -0.3309  0.2452
   23MOL   C28117485   5.742   1.201   3.470  0.5396  0.9625  0.2532
   23MOL   C28217486   5.667   1.129   3.580 -0.4112 -0.6860 -0.3297
   23MOL   C28317487   5.693   0.977   3.579 -0.6113  0.0512  0.2096
   23MOL   O28417488   5.828   0.955   3.621 -0.0379 -0.1045 -0.4736
   23MOL   C28517489   5.869   0.824   3.628  0.0041  0.7747  0.5278
   23MOL   O28617490   5.795   0.726   3.603  0.4172  0.2640  0.5640
   23MOL   C28717491   6.005   0.815   3.680  0.6518  0.3407  0.0863
   23MOL   C28817492   6.082   0.699   3.654  0.0916  0.3847 -0.5653
   23MOL   C28917493   6.213   0.685   3.705 -0.2384  0.0461 -0.4609
   23MOL   C29017494   6.266   0.787   3.785  0.0041 -0.6076  0.0347
   23MOL   C29117495   6.404   0.776   3.842 -0.0617 -0.8562 -0.8223
   23MOL   O29217496   6.486   0.695   3.803  0.1057 -0.0118 -0.0643
   23MOL   O29317497   6.422   0.862   3.943 -0.1717 -0.7207  0.7563
   23MOL   C29417498   6.189   0.903   3.815 -0.1811 -0.4262  0.7990
   23MOL   C29517499   6.064   0.918   3.760 -0.2389 -0.1824  0.5167
   23MOL   H29617500   5.457   1.084   3.629  2.6237 -1.9414 -0.4899
   23MOL   H29717501   5.489   1.115   3.464  1.4035 -2.5651  1.1136
   23MOL   H29817502   5.381   1.299   3.545 -0.1027  0.4993  1.8603
   23MOL   H29917503   5.496   1.326   3.679  0.7945 -2.0000  0.9231
   23MOL   H30017504   5.536   1.393   3.370 -2.0655  0.2424  0.0008
   23MOL   H30117505   5.441   1.558   3.510 -0.7585 -4.8034  0.9182
   23MOL   H30217506   5.575   1.549   3.617  1.0075  2.7445 -0.8271
   23MOL   H30317507   5.777   1.385   3.391 -0.2397 -0.5389  0.2354
   23MOL   H30417508   5.753   1.397   3.569 -1.1877 -0.2713  0.5168
   23MOL   H30517509   5.844   1.165   3.463 -0.4585 -2.3381  1.7499
   23MOL   H30617510   5.705   1.160   3.376  2.0148  0.2676 -0.0434
   23MOL   H30717511   5.688   1.183   3.672  0.2078 -0.9056 -0.3397
   23MOL   H30817512   5.625   0.931   3.652  0.3166 -1.8486 -0.1126
   23MOL   H30917513   5.679   0.930   3.482  2.1297  0.3708 -0.3643
   23MOL   H31017514   6.040   0.617   3.598  2.2948 -0.5509 -0.8923
   23MOL   H31117515   6.274   0.598   3.684 -2.7220 -1.8235 -0.2513
   23MOL   H31217516   6.222   0.978   3.885  0.2297  0.6596 -0.5393
   23MOL   H31317517   6.014   1.011   3.783  0.4203  0.4252 -0.4725
   23MOL   C31417518   6.959   1.139   4.073 -0.5987  0.3903 -0.0313
   23MOL   C31517519   6.847   1.087   3.983  1.0192  0.4594  0.3703
   23MOL   C31617520   6.748   0.995   4.060  0.3510  0.1884  0.1084
   23MOL   C31717521   6.634   0.951   3.967  1.2485 -0.3057  0.3224
   23MOL   O31817522   6.549   0.846   4.015 -0.3631 -0.3991 -0.4849
   23MOL   C31917523   6.829   0.883   4.103  0.1874 -0.2886 -0.2768
   23MOL   C32017524   6.945   0.922   4.194 -0.7179 -0.2165  0.2712
   23MOL   C32117525   7.044   1.023   4.127 -0.0495  1.1684 -0.3453
   23MOL   C32217526   7.155   1.052   4.226  0.8544 -0.7813  0.3232
   23MOL   O32317527   7.277   1.068   4.161 -0.1707  0.0334 -0.3457
   23MOL   C32417528   7.320   1.187   4.120 -0.2815  1.0572  0.7148
   23MOL   O32517529   7.264   1.296   4.138 -0.1683 -0.0579 -0.6318
   23MOL   C32617530   7.448   1.178   4.042 -0.6273 -0.2097 -0.4994
   23MOL   C32717531   7.536   1.076   4.074  0.0707 -0.3997  0.1364
   23MOL   C32817532   7.656   1.060   4.011 -0.0431 -0.1718  0.1798
   23MOL   C32917533   7.686   1.143   3.898 -0.1066 -0.3109  0.2278
   23MOL   C33017534   7.814   1.130   3.819 -0.3839  0.1813  0.8875
   23MOL   O33117535   7.841   1.191   3.716  0.0513  0.0188 -0.4791
   23MOL   O33217536   7.902   1.037   3.856  0.2728  0.0731  0.2120
   23MOL   C33317537   7.601   1.252   3.871 -0.9069  0.5697  0.4997
   23MOL   C33417538   7.481   1.277   3.943 -0.2836  0.0876 -0.0665
   23MOL   H33517539   7.024   1.211   4.024  3.6942 -1.7371  2.3314
   23MOL   H33617540   6.922   1.194   4.160  1.2708  1.7905 -0.0839
   23MOL   H33717541   6.781   1.171   3.960 -0.1505 -0.6707 -0.4169
   23MOL   H33817542   6.882   1.039   3.892 -3.1078 -2.0533 -0.0049
   23MOL   H33917543   6.703   1.044   4.147  0.6570  3.0311 -1.2631
   23MOL   H34017544   6.575   1.040   3.946  1.7907 -0.4368 -1.8941
   23MOL   H34117545   6.672   0.907   3.875 -1.7133  0.4568 -1.3037
   23MOL   H34217546   6.760   0.817   4.156  0.5624  0.1889  0.8130
   23MOL   H34317547   6.871   0.831   4.017  0.5030 -2.0449  0.9286
   23MOL   H34417548   7.000   0.832   4.221  0.4066  0.1823 -0.6545
   23MOL   H34517549   6.908   0.954   4.291 -0.0491 -0.3688  0.5749
   23MOL   H34617550   7.086   0.987   4.033 -0.4452  1.5856 -0.6856
   23MOL   H34717551   7.125   1.130   4.296 -0.3628 -2.5807  1.8967
   23MOL   H34817552   7.165   0.961   4.286 -1.0207 -0.7720  0.6906
   23MOL   H34917553   7.510   1.009   4.155  2.6759 -1.4283  0.1978
   23MOL   H35017554   7.728   0.987   4.046 -0.4603 -0.2766  0.8519
   23MOL   H35117555   7.632   1.330   3.803 -2.1404  1.3086  0.7636
   23MOL   H35217556   7.429   1.369   3.921  0.6472  0.1203 -2.2061
   23MOL   C35317557   0.428   0.970   3.766 -0.6268 -0.2376 -0.0852
   23MOL   C35417558   0.287   0.978   3.830  0.2921 -0.2349  0.4929
   23MOL   C35517559   0.229   1.119   3.803 -0.2256  0.4450 -0.0596
   23MOL   C35617560   0.080   1.131   3.835  0.2528  0.3535 -0.2568
   23MOL   O35717561   0.004   1.023   3.783  1.0925 -0.3405  0.1364
   23MOL   C35817562   0.329   1.212   3.884  0.2910  0.2538 -0.4595
   23MOL   C35917563   0.465   1.200   3.825 -0.5053 -0.1376 -0.3068
   23MOL   C36017564   0.521   1.064   3.838 -0.0196 -1.1824 -0.4306
   23MOL   C36117565   0.672   1.047   3.807 -0.7489 -0.4237 -1.1975
   23MOL   O36217566   0.710   0.903   3.815 -0.1950  0.5899 -0.4184
   23MOL   C36317567   0.790   0.860   3.713 -0.5744  0.2653 -0.8003
   23MOL   O36417568   0.838   0.934   3.627 -0.8280 -0.3125  0.6193
   23MOL   C36517569   0.818   0.709   3.722 -0.2164  0.0812  0.0007
   23MOL   C36617570   0.926   0.655   3.649 -0.1452  0.1475 -0.4721
   23MOL   C36717571   0.957   0.514   3.667  0.5704  0.7917 -0.2445
   23MOL   C36817572   0.876   0.433   3.747 -0.2132  0.4832 -0.4772
   23MOL   C36917573   0.902   0.285   3.766  0.2503 -0.2550  0.0946
   23MOL   O37017574   0.962   0.210   3.688 -0.4502  0.1507 -0.2932
   23MOL   O37117575   0.845   0.242   3.875 -0.1890 -0.7162 -0.3951
   23MOL   C37217576   0.775   0.495   3.824  0.2504 -0.0757  1.1260
   23MOL   C37317577   0.741   0.630   3.806  0.0158 -0.0702  0.6352
   23MOL   H37417578   0.462   0.867   3.775  0.6032  0.1332 -0.2490
   23MOL   H37517579   0.434   0.985   3.658 -0.8233 -2.2459 -0.3970
   23MOL   H37617580   0.224   0.896   3.797  2.3148 -1.5323 -0.2713
   23MOL   H37717581   0.302   0.968   3.937 -0.8314 -0.0664  0.6664
   23MOL   H37817582   0.242   1.136   3.696  1.8628 -0.3582  0.0406
   23MOL   H37917583   0.069   1.141   3.943 -0.9189  0.0322 -0.3416
   23MOL   H38017584   0.050   1.229   3.798 -1.0217 -0.5598 -1.7083
   23MOL   H38117585   0.286   1.312   3.884  0.3074  0.2978  2.0898
   23MOL   H38217586   0.326   1.173   3.986 -0.1639 -0.1886 -0.6450
   23MOL   H38317587   0.526   1.267   3.885 -1.5566 -0.6503  1.3586
   23MOL   H38417588   0.467   1.233   3.721 -0.4330  0.2988 -0.1690
   23MOL   H38517589   0.515   1.040   3.944  1.9568  0.7151  0.1306
   23MOL   H38617590   0.708   1.088   3.712  2.7767  0.4600  0.4428
   23MOL   H38717591   0.725   1.100   3.886 -2.1701  0.5136 -0.8660
   23MOL   H38817592   0.985   0.700   3.572 -2.1592 -0.1312 -2.2314
   23MOL   H38917593   1.044   0.479   3.614 -0.3281 -0.3416 -0.9880
   23MOL   H39017594   0.715   0.436   3.892 -1.0372  1.7169  1.5611
   23MOL   H39117595   0.659   0.672   3.863 -1.4495 -2.8934  0.6683
   23MOL   C39217596   1.212   7.874   4.174 -0.2018  0.4508  0.2438
   23MOL   C39317597   1.131   8.002   4.160  0.0654  0.6552 -0.5533
   23MOL   C39417598   1.033   8.010   4.042  0.7608 -0.0792  0.3796
   23MOL   C39517599   0.973   0.113   4.031 -0.6163  0.3709  1.1355
   23MOL   O39617600   0.891   0.107   3.916 -0.3191  0.6371  0.7710
   23MOL   C39717601   1.106   7.964   3.911 -0.5733  0.6304  0.0352
   23MOL   C39817602   1.194   7.837   3.931  0.4051 -0.8850  0.2041
   23MOL   C39917603   1.294   7.854   4.047 -0.5065  0.5062  0.1001
   23MOL   C40017604   1.400   7.742   4.048 -0.1836 -0.6563 -0.2777
   23MOL   O40117605   1.489   7.750   4.157  0.1840 -0.2624 -0.1135
   23MOL   C40217606   1.596   7.833   4.150  0.0216 -0.3191  0.5960
   23MOL   O40317607   1.624   7.893   4.043 -0.4108 -0.2917 -0.3165
   23MOL   C40417608   1.665   7.850   4.282 -0.3268  0.0850 -0.2172
   23MOL   C40517609   1.638   7.766   4.391 -0.0242 -0.3155 -0.1394
   23MOL   C40617610   1.695   7.790   4.522  0.3271  0.3165 -0.8123
   23MOL   C40717611   1.777   7.905   4.538 -0.3520 -0.1737  0.5705
   23MOL   C40817612   1.830   7.949   4.668 -0.3908  0.0985 -0.2400
   23MOL   O40917613   1.802   7.890   4.773  0.5765  0.0312  0.3936
   23MOL   O41017614   1.923   0.011   4.666 -0.3973  0.5213 -0.0829
   23MOL   C41117615   1.802   7.988   4.424 -0.2649  0.6283  0.4195
   23MOL   C41217616   1.747   7.961   4.300 -0.3288 -0.4102 -0.4094
   23MOL   H41317617   1.270   7.873   4.267  1.4271  1.4665 -0.7232
   23MOL   H41417618   1.145   7.789   4.175  0.6338 -0.2391 -1.2292
   23MOL   H41517619   1.080   8.008   4.257  2.5117  2.8234  0.6662
   23MOL   H41617620   1.199   0.052   4.164 -1.2560  1.6585  1.1911
   23MOL   H41717621   0.956   7.941   4.077 -0.9854  0.6899 -1.8636
   23MOL   H41817622   0.912   0.151   4.113 -2.0027 -0.4396  0.4784
   23MOL   H41917623   1.046   0.192   4.009 -1.3061  0.6386 -0.2170
   23MOL   H42017624   1.036   7.956   3.828 -0.6636  0.8851  0.0882
   23MOL   H42117625   1.176   0.008   3.886 -1.4240  1.2655 -0.3565
   23MOL   H42217626   1.247   7.813   3.839  0.0217 -1.9294  0.2424
   23MOL   H42317627   1.134   7.746   3.939  0.0655 -0.7333 -0.5183
   23MOL   H42417628   1.346   7.948   4.029  1.0440  0.3442  3.3421
   23MOL   H42517629   1.360   7.641   4.055  0.1547 -0.9002 -1.7435
   23MOL   H42617630   1.458   7.757   3.957  1.6234 -0.8947  0.7985
   23MOL   H42717631   1.574   7.681   4.371 -1.3276  0.1489  1.9184
   23MOL   H42817632   1.668   7.728   4.607  0.5160  1.9659  0.4820
   23MOL   H42917633   1.864   0.041   4.419  1.5301 -0.5313  1.4771
   23MOL   H43017634   1.765   8.024   4.214  0.5827 -0.5873 -0.3460
   23MOL   C43117635   2.092   0.468   4.655  0.3199  0.2961 -0.4731
   23MOL   C43217636   2.064   0.358   4.748 -0.2162 -0.1258  0.9884
   23MOL   C43317637   1.919   0.303   4.734  0.1578  1.0895  0.2303
   23MOL   C43417638   1.898   0.184   4.835  0.0533 -0.9247 -0.5089
   23MOL   O43517639   1.966   0.060   4.806  0.0896  0.0737  0.2620
   23MOL   C43617640   1.828   0.425   4.750 -0.0977 -0.8790 -0.1979
   23MOL   C43717641   1.861   0.539   4.647  0.2667 -0.1819 -0.1416
   23MOL   C43817642   1.998   0.587   4.671 -0.0805 -0.0252  0.4792
   23MOL   C43917643   2.048   0.697   4.589  0.6631  0.1112 -0.2349
   23MOL   O44017644   1.975   0.819   4.616  0.1128 -0.1777  0.0226
   23MOL   C44117645   2.012   0.898   4.720  0.2272  0.3829  0.4912
   23MOL   O44217646   2.098   0.872   4.806  0.2687  0.0197  0.1095
   23MOL   C44317647   1.951   1.030   4.703 -0.0058  1.0069 -1.1031
   23MOL   C44417648   1.974   1.118   4.808 -0.7530 -0.0803 -0.7594
   23MOL   C44517649   1.928   1.252   4.808  0.5837  0.1347  0.9731
   23MOL   C44617650   1.845   1.299   4.705  0.1191  0.2014 -0.1172
   23MOL   C44717651   1.788   1.435   4.709 -0.0363 -0.4285  0.3053
   23MOL   O44817652   1.816   1.519   4.796  0.4771  0.4764 -0.3268
   23MOL   O44917653   1.701   1.454   4.614 -0.2525 -0.5860  0.0176
   23MOL   C45017654   1.818   1.209   4.595 -0.8974 -0.0755 -0.0500
   23MOL   C45117655   1.873   1.078   4.595 -0.5602  0.6354  0.0666
   23MOL   H45217656   2.195   0.502   4.665  0.6459  0.1284 -2.8625
   23MOL   H45317657   2.094   0.426   4.554  0.5853  0.0946 -0.3867
   23MOL   H45417658   2.132   0.274   4.736  1.9936  1.8620 -0.9923
   23MOL   H45517659   2.081   0.380   4.853  0.8549  2.3404  0.3219
   23MOL   H45617660   1.904   0.260   4.635  1.3033  0.1863  0.4414
   23MOL   H45717661   1.940   0.222   4.929 -0.3631  0.9794 -1.0680
   23MOL   H45817662   1.796   0.167   4.869  0.2318  2.1684  1.8404
   23MOL   H45917663   1.725   0.394   4.731 -0.6837  1.9407 -1.9290
   23MOL   H46017664   1.838   0.456   4.854 -5.3911  0.8603 -0.0081
   23MOL   H46117665   1.801   0.628   4.664  1.2676  0.2156  1.4568
   23MOL   H46217666   1.852   0.513   4.541  2.3997 -1.5909 -0.0118
   23MOL   H46317667   2.016   0.622   4.772  2.7209  0.7494 -0.2371
   23MOL   H46417668   2.156   0.708   4.605  0.5851  0.3525  0.1292
   23MOL   H46517669   2.041   0.686   4.481  0.7515  1.6994 -0.4193
   23MOL   H46617670   2.034   1.079   4.889  1.6698  2.8341 -1.0921
   23MOL   H46717671   1.956   1.315   4.891  3.8270 -0.2862  0.2423
   23MOL   H46817672   1.773   1.235   4.501  1.5417 -1.5180 -1.6694
   23MOL   H46917673   1.862   1.009   4.512 -2.2445 -1.2953  1.8435
   23MOL   C47017674   1.413   1.829   4.977 -1.1763 -0.0600 -0.1154
   23MOL   C47117675   1.395   1.714   4.875  0.7443 -0.5186 -0.1084
   23MOL   C47217676   1.514   1.699   4.786 -0.5336 -0.1167 -0.4635
   23MOL   C47317677   1.510   1.579   4.691 -0.3041 -0.1333  0.0450
   23MOL   O47417678   1.635   1.588   4.619  0.0733  0.4656 -0.0978
   23MOL   C47517679   1.555   1.831   4.718  0.0105 -0.3684  0.2328
   23MOL   C47617680   1.559   1.951   4.823 -0.2958  0.1233  1.0961
   23MOL   C47717681   1.432   1.968   4.909 -0.1356  0.2750  0.9817
   23MOL   C47817682   1.427   2.084   5.003 -0.9570 -0.4606 -0.6132
   23MOL   O47917683   1.557   2.087   5.068  0.6834  0.5415 -0.0393
   23MOL   C48017684   1.589   2.187   5.151  0.2698 -0.1992 -0.1124
   23MOL   O48117685   1.527   2.291   5.164  0.1134  0.9883  0.3439
   23MOL   C48217686   1.707   2.159   5.237  0.2996 -0.3874 -0.2755
   23MOL   C48317687   1.769   2.264   5.309 -0.3781 -0.0589 -0.6578
   23MOL   C48417688   1.861   2.234   5.414 -0.7472  0.7481 -0.2607
   23MOL   C48517689   1.892   2.097   5.442 -0.3604 -0.4478 -0.9980
   23MOL   C48617690   1.995   2.074   5.540 -0.2560  0.2008  0.2148
   23MOL   O48717691   2.064   2.162   5.584 -0.1710 -0.3093 -0.1524
   23MOL   O48817692   1.997   1.940   5.586  0.6840  0.4135  0.2569
   23MOL   C48917693   1.842   1.997   5.360  0.0700  0.7927  0.0180
   23MOL   C49017694   1.746   2.026   5.265 -0.6199 -0.1142 -0.1418
   23MOL   H49117695   1.328   1.846   5.042 -1.5738  0.4560 -0.7658
   23MOL   H49217696   1.495   1.800   5.043 -0.1603  3.0060  0.0649
   23MOL   H49317697   1.368   1.625   4.931  0.0502 -1.1134 -1.3843
   23MOL   H49417698   1.311   1.733   4.808  0.1884  2.4090  1.3522
   23MOL   H49517699   1.602   1.679   4.846  0.1589  0.7673 -1.1655
   23MOL   H49617700   1.499   1.478   4.730 -0.0822 -0.6413 -1.1800
   23MOL   H49717701   1.426   1.594   4.622  0.8679 -0.2408 -1.4429
   23MOL   H49817702   1.655   1.827   4.674  0.5759  2.6927  1.1004
   23MOL   H49917703   1.483   1.854   4.640  0.6100 -0.0559 -0.2323
   23MOL   H50017704   1.581   2.043   4.770 -1.6971 -0.3397 -0.3561
   23MOL   H50117705   1.651   1.952   4.880 -0.2057  2.3041  0.9324
   23MOL   H50217706   1.343   1.977   4.847 -1.0025 -1.5303  1.9199
   23MOL   H50317707   1.414   2.182   4.958  0.8296  0.6564  1.2088
   23MOL   H50417708   1.343   2.075   5.073 -1.8195 -1.5416 -1.7565
   23MOL   H50517709   1.741   2.364   5.279 -0.3407 -0.0841 -0.7793
   23MOL   H50617710   1.904   2.316   5.471  0.8812  0.7303 -1.4251
   23MOL   H50717711   1.875   1.894   5.365  2.2728  1.3171 -2.6175
   23MOL   H50817712   1.704   1.944   5.209  0.3117 -1.1217  0.6073
   23MOL   C50917713   2.490   2.016   5.869  0.8277 -0.3941 -0.0257
   23MOL   C51017714   2.367   2.012   5.781 -0.2833  0.7492 -0.8997
   23MOL   C51117715   2.347   1.872   5.713  0.3493  0.5082  0.3042
   23MOL   C51217716   2.223   1.886   5.615 -0.8453  0.5385  0.4992
   23MOL   O51317717   2.103   1.917   5.685  0.1300  0.7365  0.3010
   23MOL   C51417718   2.476   1.831   5.635 -0.2410 -0.2389 -0.6515
   23MOL   C51517719   2.590   1.826   5.731 -0.1696 -0.2859  0.1924
   23MOL   C51617720   2.617   1.955   5.798  0.0210 -0.0516  0.1187
   23MOL   C51717721   2.735   1.954   5.898  0.0851 -0.4068 -0.6136
   23MOL   O51817722   2.747   2.081   5.960 -0.2538  0.3030 -0.0328
   23MOL   C51917723   2.810   2.096   6.080 -0.4212 -0.1299  0.0605
   23MOL   O52017724   2.871   2.006   6.142 -0.3699 -0.4634  0.8019
   23MOL   C52117725   2.795   2.241   6.122  0.1380  0.2434 -0.5141
   23MOL   C52217726   2.905   2.301   6.185 -0.4011  0.6064  0.2877
   23MOL   C52317727   2.896   2.438   6.219 -0.1506 -0.0830 -0.9775
   23MOL   C52417728   2.775   2.510   6.203  0.2908  0.2721 -0.9995
   23MOL   C52517729   2.742   2.636   6.274  0.2039 -0.2184 -0.2300
   23MOL   O52617730   2.636   2.694   6.290 -0.2083  0.0304 -0.7364
   23MOL   O52717731   2.855   2.681   6.330 -0.6996 -0.2050 -0.3083
   23MOL   C52817732   2.676   2.455   6.120  0.0699  0.9188 -0.0168
   23MOL   C52917733   2.684   2.320   6.079 -0.5824  0.4007  0.1379
   23MOL   H53017734   2.510   2.119   5.898 -0.3142 -0.4312  0.9134
   23MOL   H53117735   2.470   1.948   5.952 -1.8320 -0.1095 -0.3734
   23MOL   H53217736   2.285   2.049   5.843  1.3508  1.1072  1.0949
   23MOL   H53317737   2.371   2.087   5.702  1.2992  1.1329 -0.4705
   23MOL   H53417738   2.319   1.802   5.791 -0.9523 -0.8817 -1.3923
   23MOL   H53517739   2.244   1.965   5.543 -0.0437 -2.0259 -2.1736
   23MOL   H53617740   2.205   1.793   5.561 -2.4387  0.5457  0.9904
   23MOL   H53717741   2.467   1.734   5.586 -2.4227 -1.1620  1.4336
   23MOL   H53817742   2.481   1.892   5.545 -2.8033  1.6510  0.4312
   23MOL   H53917743   2.681   1.793   5.681  0.6881 -2.1309  2.8593
   23MOL   H54017744   2.559   1.750   5.803 -2.0395  1.4976  1.3529
   23MOL   H54117745   2.641   2.022   5.716  0.8219 -0.8698 -0.3244
   23MOL   H54217746   2.709   1.883   5.977 -0.8977  0.0684 -0.5077
   23MOL   H54317747   2.834   1.923   5.864  0.9123  2.3857 -0.8456
   23MOL   H54417748   2.993   2.250   6.222 -0.2460 -1.4012 -2.6982
   23MOL   H54517749   2.977   2.487   6.271 -0.3707  1.6895 -2.2695
   23MOL   H54617750   2.590   2.513   6.090  0.2278  0.2230 -1.8954
   23MOL   H54717751   2.604   2.278   6.020 -0.7910  1.5247 -0.3938
   23MOL   C54817752   2.840   3.033   6.831  0.4633 -0.1129 -0.3643
   23MOL   C54917753   2.839   2.895   6.763  0.2594  0.3939  0.0573
   23MOL   C55017754   2.815   2.900   6.612 -0.5889  0.2944 -0.3004
   23MOL   C55117755   2.834   2.764   6.546  0.3549 -0.1170  0.6255
   23MOL   O55217756   2.835   2.804   6.416  0.5125 -0.3513  0.7591
   23MOL   C55317757   2.680   2.960   6.587  0.3858  0.1060  0.3499
   23MOL   C55417758   2.662   3.099   6.644  0.4869 -0.0302  0.0733
   23MOL   C55517759   2.711   3.109   6.795  0.1331 -0.6052  0.1009
   23MOL   C55617760   2.712   3.253   6.844  0.7448 -0.1345  0.5498
   23MOL   O55717761   2.585   3.314   6.834  0.6844  0.2945  0.0878
   23MOL   C55817762   2.560   3.449   6.850  0.8386 -0.5778  0.3743
   23MOL   O55917763   2.656   3.525   6.867 -0.4377 -0.3325 -0.5480
   23MOL   C56017764   2.418   3.489   6.846 -0.4564 -0.1499  0.3661
   23MOL   C56117765   2.314   3.397   6.860 -0.1617 -0.1634  0.3986
   23MOL   C56217766   2.176   3.430   6.836  0.1866  0.0342  0.3330
   23MOL   C56317767   2.135   3.561   6.818 -0.1496 -0.1388 -0.4859
   23MOL   C56417768   1.997   3.610   6.793 -0.4507 -0.4229 -0.4481
   23MOL   O56517769   1.968   3.728   6.759 -0.1013  0.4935  0.1362
   23MOL   O56617770   1.906   3.523   6.838  0.1905 -0.0761  0.0963
   23MOL   C56717771   2.237   3.659   6.832 -0.1878 -0.3009  0.3535
   23MOL   C56817772   2.374   3.623   6.837  0.2871 -0.4380 -0.1847
   23MOL   H56917773   2.847   3.031   6.939 -2.4028 -1.7748 -0.1704
   23MOL   H57017774   2.929   3.087   6.798 -0.5381  1.1681 -1.0366
   23MOL   H57117775   2.939   2.859   6.786 -0.6753 -0.7118  2.6454
   23MOL   H57217776   2.776   2.817   6.806  0.6877  0.6428  1.1665
   23MOL   H57317777   2.888   2.976   6.582  0.3432 -0.7992 -0.8405
   23MOL   H57417778   2.922   2.708   6.579 -0.2577 -0.9062  0.9468
   23MOL   H57517779   2.752   2.696   6.571  0.4928 -0.3415  0.4652
   23MOL   H57617780   2.663   2.960   6.479  1.8305 -1.4097  0.1028
   23MOL   H57717781   2.596   2.905   6.629  0.1990 -0.3850 -0.6284
   23MOL   H57817782   2.557   3.130   6.641  0.5071 -0.0502 -0.8801
   23MOL   H57917783   2.723   3.169   6.588 -0.6969  1.7920  1.0068
   23MOL   H58017784   2.633   3.061   6.854 -1.3167 -1.2616 -2.2747
   23MOL   H58117785   2.738   3.267   6.949  0.5277  1.3567  0.4166
   23MOL   H58217786   2.781   3.315   6.787 -0.6832  0.2291 -0.8179
   23MOL   H58317787   2.338   3.292   6.869  2.4229  0.3856  0.4059
   23MOL   H58417788   2.098   3.355   6.830  0.7438 -0.3862 -2.3677
   23MOL   H58517789   2.225   3.762   6.800  0.6417 -1.5908 -4.4585
   23MOL   H58617790   2.448   3.701   6.831 -0.6028  0.7029  2.6766
   23MOL   C58717791   1.337   3.437   6.832 -0.1628 -0.2843  0.4845
   23MOL   C58817792   1.497   3.434   6.824 -0.3239  0.4278  0.5073
   23MOL   C58917793   1.558   3.527   6.723  0.6986 -0.7644 -0.6555
   23MOL   C59017794   1.706   3.499   6.712  0.3915 -0.7852 -0.7125
   23MOL   O59117795   1.765   3.571   6.820  0.1754  0.4399  0.2253
   23MOL   C59217796   1.495   3.488   6.583 -0.0413 -0.5927 -0.3980
   23MOL   C59317797   1.342   3.512   6.584 -0.0793  0.5082 -0.4333
   23MOL   C59417798   1.282   3.416   6.689  0.2112  0.8809 -1.2078
   23MOL   C59517799   1.131   3.419   6.690 -0.1765  0.1911 -0.4414
   23MOL   O59617800   1.082   3.298   6.746  0.0407  0.0094 -0.0721
   23MOL   C59717801   0.950   3.297   6.772 -0.2906  0.3516  0.2673
   23MOL   O59817802   0.870   3.386   6.736  0.5488 -0.2018  0.1094
   23MOL   C59917803   0.898   3.170   6.836 -0.6303  0.1419 -0.0357
   23MOL   C60017804   0.760   3.153   6.855 -0.1446  0.0987 -0.3589
   23MOL   C60117805   0.708   3.041   6.926 -0.0691 -0.2365  0.2694
   23MOL   C60217806   0.797   2.941   6.971 -0.4789  0.1214  0.0986
   23MOL   C60317807   0.763   2.816   7.042  0.0761 -0.2919 -0.2812
   23MOL   O60417808   0.832   2.715   7.067  0.1825 -0.3621 -0.0676
   23MOL   O60517809   0.635   2.824   7.089 -0.1410  0.3516  0.4144
   23MOL   C60617810   0.935   2.956   6.941  0.2254 -0.2574  0.0324
   23MOL   C60717811   0.984   3.067   6.876 -0.3495  0.1412 -0.3382
   23MOL   H60817812   1.301   3.361   6.902 -1.6951 -1.0542 -1.0983
   23MOL   H60917813   1.320   3.537   6.870  1.4979  0.1854  0.0385
   23MOL   H61017814   1.523   3.457   6.927 -0.0815 -1.1326  0.7929
   23MOL   H61117815   1.535   3.337   6.793 -2.5553 -0.1417 -0.5972
   23MOL   H61217816   1.539   3.631   6.748  1.3770 -0.8163  0.1158
   23MOL   H61317817   1.727   3.394   6.729 -0.6496 -0.9494 -0.4074
   23MOL   H61417818   1.754   3.519   6.616  0.6508 -1.6102 -0.7606
   23MOL   H61517819   1.537   3.551   6.504 -2.3229  0.8698 -0.4910
   23MOL   H61617820   1.516   3.385   6.555  2.0446 -0.8258  1.9060
   23MOL   H61717821   1.298   3.485   6.488  0.4112  1.8203 -1.0425
   23MOL   H61817822   1.313   3.617   6.591  1.0100  0.7994 -0.3106
   23MOL   H61917823   1.306   3.317   6.651  1.5946 -0.2918  2.5238
   23MOL   H62017824   1.104   3.509   6.746  1.7470  0.0652  0.7421
   23MOL   H62117825   1.088   3.438   6.592 -0.0148  1.1854 -0.3228
   23MOL   H62217826   0.687   3.226   6.823 -1.4504 -1.8389 -1.8626
   23MOL   H62317827   0.602   3.041   6.944 -0.2387 -0.2533 -0.7195
   23MOL   H62417828   0.998   2.872   6.966  0.1058  0.0490  1.4184
   23MOL   H62517829   1.089   3.076   6.854  0.3660 -0.8864  2.5414
   23MOL   C62617830   0.270   2.347   7.221  0.0390 -0.1276 -0.4696
   23MOL   C62717831   0.364   2.432   7.141 -1.0403 -0.5817 -0.6800
   23MOL   C62817832   0.461   2.516   7.223 -0.4524 -0.2608 -0.1670
   23MOL   C62917833   0.531   2.607   7.125  0.1005 -0.3993 -0.2179
   23MOL   O63017834   0.606   2.711   7.183  0.3982  0.4906 -0.3716
   23MOL   C63117835   0.380   2.598   7.326 -0.6805 -0.2626  0.1130
   23MOL   C63217836   0.276   2.514   7.404  0.4592  0.0121 -0.1394
   23MOL   C63317837   0.187   2.437   7.312 -0.0338 -0.3631 -0.2005
   23MOL   C63417838   0.083   2.362   7.393  0.5808  0.0312 -0.2514
   23MOL   O63517839   0.010   2.451   7.476 -0.6205  0.8820 -0.4839
   23MOL   C63617840   7.910   2.469   7.443  0.1275 -0.1130  0.0858
   23MOL   O63717841   7.851   2.398   7.367  0.2098  0.1600  0.1739
   23MOL   C63817842   7.846   2.565   7.542  0.0405  0.6848  0.6430
   23MOL   C63917843   7.714   2.537   7.586 -0.1144 -0.1775  0.4723
   23MOL   C64017844   7.652   2.622   7.670  0.2068 -0.3661 -0.4148
   23MOL   C64117845   7.716   2.742   7.720 -0.5969  0.1698 -0.2517
   23MOL   C64217846   7.669   2.809   7.842  0.3246 -0.0666 -0.3610
   23MOL   O64317847   7.588   2.758   7.916 -0.2463 -0.3438 -0.3399
   23MOL   O64417848   7.734   2.917   7.866  0.0407  0.7442  0.4873
   23MOL   C64517849   7.841   2.775   7.665  0.3572  0.0251  0.2663
   23MOL   C64617850   7.914   2.683   7.580 -0.1313 -0.3699  0.4962
   23MOL   H64717851   0.200   2.303   7.150  0.7956  0.7082 -1.7378
   23MOL   H64817852   0.332   2.275   7.274 -1.0838  0.0797  1.1682
   23MOL   H64917853   0.416   2.371   7.068 -0.1486  1.8610 -2.1408
   23MOL   H65017854   0.315   2.507   7.079  0.6664  0.2977 -0.9887
   23MOL   H65117855   0.527   2.456   7.285 -0.8901 -1.3923 -0.7931
   23MOL   H65217856   0.607   2.549   7.072  0.2882  0.8034 -1.3121
   23MOL   H65317857   0.457   2.665   7.070  0.6704  1.9242  1.4047
   23MOL   H65417858   0.433   2.649   7.407  2.7249  0.2031 -2.2933
   23MOL   H65517859   0.322   2.680   7.285 -0.7832  0.2264  1.2213
   23MOL   H65617860   0.220   2.585   7.464  1.1778 -0.9352  1.6984
   23MOL   H65717861   0.328   2.450   7.476  1.3796 -0.9792 -1.6482
   23MOL   H65817862   0.129   2.503   7.247 -0.9449  2.9634  3.7644
   23MOL   H65917863   0.018   2.300   7.330 -0.7865  2.1315 -0.9784
   23MOL   H66017864   0.129   2.284   7.453 -0.9345 -1.1126 -0.5271
   23MOL   H66117865   7.671   2.452   7.536  0.4856  0.7536 -1.6605
   23MOL   H66217866   7.559   2.578   7.704 -0.6744  2.2615  0.8111
   23MOL   H66317867   7.897   2.859   7.702  1.5526  0.8323 -3.1772
   23MOL   H66417868   8.008   2.716   7.538  0.2080 -1.8125  0.0752
   23MOL   C66517869   7.711   3.409   7.916 -0.6873  0.7307 -0.4694
   23MOL   C66617870   7.708   3.271   7.983  0.1650  0.6532 -0.3956
   23MOL   C66717871   7.589   3.181   7.932  0.8257 -0.4524  0.9243
   23MOL   C66817872   7.575   3.046   8.000  0.2800 -0.6684  0.3195
   23MOL   O66917873   7.701   2.978   8.003 -0.4056 -0.5201 -0.4078
   23MOL   C67017874   7.457   3.261   7.952 -0.0210  0.2845 -0.3807
   23MOL   C67117875   7.458   3.397   7.874  0.4729 -0.0875  0.0729
   23MOL   C67217876   7.575   3.483   7.921 -0.4678 -0.5413  0.0854
   23MOL   C67317877   7.579   3.610   7.840 -0.3751 -0.1781  0.1526
   23MOL   O67417878   7.630   3.602   7.708 -0.2595 -0.2177 -0.3950
   23MOL   C67517879   7.634   3.715   7.634 -0.5532 -0.0061 -0.0183
   23MOL   O67617880   7.585   3.826   7.673  0.2327 -0.2284  0.1882
   23MOL   C67717881   7.694   3.698   7.498  0.3640  0.5589  0.4973
   23MOL   C67817882   7.680   3.802   7.399  0.1362  0.5709 -0.5551
   23MOL   C67917883   7.719   3.783   7.265  0.7074  0.6046  0.1064
   23MOL   C68017884   7.784   3.666   7.228 -0.4555 -0.1531  0.0947
   23MOL   C68117885   7.839   3.642   7.087 -0.1219  0.6976  0.3533
   23MOL   O68217886   7.939   3.579   7.064 -0.3812 -0.1210  0.0880
   23MOL   O68317887   7.780   3.722   6.998 -0.4804 -0.4740 -0.7207
   23MOL   C68417888   7.814   3.569   7.329 -0.6496 -0.1281  0.1590
   23MOL   C68517889   7.775   3.591   7.465  0.2803  0.1825  0.5051
   23MOL   H68617890   7.789   3.470   7.962  1.1661 -1.8326 -0.1540
   23MOL   H68717891   7.736   3.389   7.812 -1.5242 -1.0468 -0.3406
   23MOL   H68817892   7.804   3.223   7.965 -0.5613 -0.6394 -0.8819
   23MOL   H68917893   7.698   3.288   0.055 -0.4434  1.6946 -0.6057
   23MOL   H69017894   7.607   3.163   7.826 -1.7001 -1.3558  0.6306
   23MOL   H69117895   7.543   3.073   0.065 -0.7990  0.5928 -0.3436
   23MOL   H69217896   7.496   2.983   7.959 -0.5938  0.8859 -0.4226
   23MOL   H69317897   7.385   3.186   7.920  1.1399 -1.4893  1.0296
   23MOL   H69417898   7.436   3.269   0.023  0.5895  2.2659 -0.3876
   23MOL   H69517899   7.362   3.448   7.886 -0.9417 -3.0466  1.7769
   23MOL   H69617900   7.477   3.377   7.769  0.4140  0.8041 -0.1123
   23MOL   H69717901   7.554   3.509   8.025 -3.3639 -0.6838 -0.4311
   23MOL   H69817902   7.474   3.641   7.843  0.0377  1.1605  1.3346
   23MOL   H69917903   7.638   3.683   7.896 -3.3444  3.0231 -0.6752
   23MOL   H70017904   7.630   3.896   7.416  1.8543  1.0613  2.1707
   23MOL   H70117905   7.704   3.867   7.199  2.5084  0.3946 -0.5949
   23MOL   H70217906   7.863   3.476   7.306  2.3429  1.2779  0.5841
   23MOL   H70317907   7.786   3.517   7.543  2.4825 -0.3570 -0.2741
   23MOL   C70417908   0.064   3.890   6.527 -0.5326 -0.5739  0.3921
   23MOL   C70517909   0.019   3.807   6.654  0.0167 -0.3687  0.3611
   23MOL   C70617910   7.897   3.776   6.657 -0.3549  0.1079 -0.7268
   23MOL   C70717911   7.855   3.698   6.777  0.5927 -0.2512 -0.2715
   23MOL   O70817912   7.882   3.771   6.895 -0.5050 -0.5304  0.2267
   23MOL   C70917913   7.814   3.903   6.624  0.4203 -0.5366  0.0282
   23MOL   C71017914   7.855   3.961   6.493  0.0253 -0.0160 -0.2168
   23MOL   C71117915   8.002   4.004   6.491 -0.5238  0.0262  0.1286
   23MOL   C71217916   0.006   4.076   6.356  0.8847  0.6132  0.2814
   23MOL   O71317917   0.142   4.125   6.352  0.2133 -0.5743 -0.0196
   23MOL   C71417918   0.233   4.045   6.299  0.3532  0.5223 -0.2424
   23MOL   O71517919   0.218   3.929   6.270  0.3615  0.1095 -0.0060
   23MOL   C71617920   0.358   4.110   6.276 -0.9490  0.7150  0.0405
   23MOL   C71717921   0.457   4.050   6.189  0.1123  0.1505  0.2496
   23MOL   C71817922   0.585   4.114   6.163  0.4122 -0.3844  0.1104
   23MOL   C71917923   0.613   4.241   6.221  0.4704  0.4957  0.0542
   23MOL   C72017924   0.737   4.312   6.184  0.3033  0.3513 -0.3061
   23MOL   O72117925   0.790   4.402   6.248 -0.0548  0.3772  0.2163
   23MOL   O72217926   0.801   4.254   6.078 -0.1379 -0.5419  0.2004
   23MOL   C72317927   0.516   4.305   6.303 -0.2165  0.3923  0.2427
   23MOL   C72417928   0.395   4.239   6.331  0.0904 -0.5413 -0.1391
   23MOL   H72517929   0.163   3.936   6.534  0.5644 -2.4944 -1.6770
   23MOL   H72617930   0.061   3.809   6.454 -3.8270  0.0734 -0.2666
   23MOL   H72717931   0.084   3.722   6.673 -0.2770 -1.3925 -2.9418
   23MOL   H72817932   0.039   3.872   6.739 -0.3362 -0.2370  0.3449
   23MOL   H72917933   7.879   3.704   6.577  2.3201 -1.5938  0.1273
   23MOL   H73017934   7.751   3.673   6.761  1.1189 -1.3142 -2.2573
   23MOL   H73117935   7.912   3.605   6.785  1.4354  0.1607 -1.2940
   23MOL   H73217936   7.706   3.884   6.625  0.4638 -0.8065 -0.2158
   23MOL   H73317937   7.847   3.972   6.701 -0.5158  0.6554 -0.6271
   23MOL   H73417938   7.795   4.052   6.482  0.4979  0.3169 -0.0982
   23MOL   H73517939   7.852   3.895   6.407  1.1231 -2.2275  1.4055
   23MOL   H73617940   8.014   4.077   6.572 -2.2704  1.2242 -0.6613
   23MOL   H73717941   8.020   4.003   6.278  2.5144  0.6573 -0.2206
   23MOL   H73817942   7.962   4.151   6.350 -0.9553 -1.3278 -0.0942
   23MOL   H73917943   0.427   3.956   6.145 -0.2505  0.0703  0.6680
   23MOL   H74017944   0.654   4.062   6.100 -0.0737 -1.1155  0.1744
   23MOL   H74117945   0.535   4.406   6.336  0.3849  1.7939 -4.0861
   23MOL   H74217946   0.322   4.296   6.387  2.2035  2.4580 -0.3372
   23MOL   C74317947   1.365   4.288   5.921  0.0015  0.2044 -0.9399
   23MOL   C74417948   1.214   4.254   5.947  0.1983  0.5317  0.5243
   23MOL   C74517949   1.170   4.252   6.096 -0.1886 -0.2667  0.2287
   23MOL   C74617950   1.022   4.202   6.112  0.0615  0.1587 -0.7620
   23MOL   O74717951   0.936   4.301   6.063  0.2228 -0.4962 -0.3302
   23MOL   C74817952   1.277   4.173   6.182 -0.5708  0.7693 -0.1455
   23MOL   C74917953   1.420   4.211   6.151 -0.0759 -0.2300 -0.0926
   23MOL   C75017954   1.451   4.195   6.004  0.0494 -0.7306  0.3862
   23MOL   C75117955   1.604   4.189   5.968 -0.9774 -0.2894  0.2298
   23MOL   O75217956   1.627   4.161   5.825 -0.4955  0.2511  0.2706
   23MOL   C75317957   1.743   4.189   5.771  0.0472 -0.7491  0.4653
   23MOL   O75417958   1.836   4.232   5.840  0.3161  0.1515  0.6634
   23MOL   C75517959   1.750   4.171   5.623 -0.3609  0.2157  0.1646
   23MOL   C75617960   1.862   4.229   5.554  0.7520 -0.2217  0.0902
   23MOL   C75717961   1.862   4.219   5.413 -0.7230 -0.5200 -0.6153
   23MOL   C75817962   1.760   4.153   5.343 -0.2555  0.7240 -0.8173
   23MOL   C75917963   1.766   4.131   5.199  0.3809 -0.4559  0.6747
   23MOL   O76017964   1.695   4.060   5.132  0.0319  0.5112 -0.3858
   23MOL   O76117965   1.853   4.227   5.139  0.4561 -0.0283 -0.0503
   23MOL   C76217966   1.652   4.095   5.413 -0.2486 -0.0689  0.8058
   23MOL   C76317967   1.648   4.098   5.555  0.2595 -0.1393 -0.3252
   23MOL   H76417968   1.380   4.274   5.814  0.1397 -0.5688 -0.8274
   23MOL   H76517969   1.384   4.391   5.949 -0.0584 -0.3294  1.1554
   23MOL   H76617970   1.154   4.321   5.886  0.0143 -1.0694 -1.1002
   23MOL   H76717971   1.193   4.154   5.908 -0.8683  1.2006 -0.6622
   23MOL   H76817972   1.174   4.353   6.137  1.6635  0.6492 -2.1249
   23MOL   H76917973   1.005   4.110   6.055 -0.6997  0.3247 -0.8145
   23MOL   H77017974   1.013   4.177   6.217  2.6079 -2.5893 -1.1178
   23MOL   H77117975   1.261   4.167   6.290  1.0115 -1.2497  0.0045
   23MOL   H77217976   1.251   4.070   6.159 -0.6059  0.0190  3.0403
   23MOL   H77317977   1.483   4.136   6.199 -0.7827  0.4111  1.9200
   23MOL   H77417978   1.441   4.300   6.210  1.1461 -1.5563  1.5327
   23MOL   H77517979   1.414   4.097   5.973 -0.7837 -0.7529  1.3887
   23MOL   H77617980   1.643   4.290   5.977  1.7914 -1.3366  0.4242
   23MOL   H77717981   1.664   4.132   6.039 -2.0245 -0.5047  0.9656
   23MOL   H77817982   1.929   4.285   5.617 -0.4071  1.0376  0.2183
   23MOL   H77917983   1.943   4.265   5.359  0.9542 -1.9909  0.5846
   23MOL   H78017984   1.567   4.049   5.366 -0.4228  0.1814  0.8753
   23MOL   H78117985   1.569   4.043   5.604  1.2807 -2.8869 -1.6959
   23MOL   H78217986   1.839   4.220   5.046 -1.0913  3.8477 -0.2014
   24MOL     C117987   6.703   2.068   4.537  0.0294 -0.3615 -0.2507
   24MOL     C217988   6.828   2.079   4.444 -0.4308  0.3883 -1.0519
   24MOL     C317989   6.895   2.217   4.449 -1.1232  0.4256 -0.4428
   24MOL     C417990   7.015   2.227   4.354 -0.1138  0.2345  0.6956
   24MOL     O517991   7.116   2.318   4.397  0.7864  0.6127 -0.3551
   24MOL     C617992   6.788   2.324   4.411 -0.4097  0.0057  0.6197
   24MOL     C717993   6.669   2.321   4.514 -0.3054  0.2155 -0.8555
   24MOL     C817994   6.608   2.178   4.499  0.0756 -0.4072 -0.1163
   24MOL     C917995   6.476   2.158   4.574 -0.6519 -0.3247  0.2885
   24MOL    O1017996   6.389   2.243   4.511  0.5874  0.2630 -0.2119
   24MOL    C1117997   6.263   2.253   4.559 -0.5162  0.2748 -1.0479
   24MOL    O1217998   6.227   2.197   4.668 -0.4495 -0.5759 -0.0956
   24MOL    C1317999   6.174   2.351   4.490  0.9645  0.2326 -0.2147
   24MOL    C1418000   6.233   2.425   4.383 -0.1540  0.0734  0.1420
   24MOL    C1518001   6.155   2.522   4.317 -0.1606  0.1522 -0.1221
   24MOL    C1618002   6.029   2.554   4.368 -0.1959 -0.4458 -0.3793
   24MOL    C1718003   5.952   2.672   4.322  0.2716  0.7092 -0.4741
   24MOL    O1818004   5.839   2.699   4.373 -0.4090 -0.4802  0.2982
   24MOL    O1918005   6.010   2.746   4.229 -0.7056  0.2647 -0.7892
   24MOL    C2018006   5.975   2.479   4.477  0.2590  0.7541  0.0132
   24MOL    C2118007   6.042   2.373   4.532 -0.3521  0.2228 -0.0081
   24MOL    H2218008   6.649   1.974   4.527 -0.3171 -0.1714 -0.1668
   24MOL    H2318009   6.733   2.085   4.641  0.4728  2.3553 -0.7700
   24MOL    H2418010   6.908   2.009   4.465 -0.8021  0.0287 -0.8301
   24MOL    H2518011   6.797   2.052   4.343 -0.8523  2.7784 -1.6011
   24MOL    H2618012   6.922   2.243   4.551 -1.4216 -0.8181 -0.0287
   24MOL    H2718013   7.054   2.126   4.337  0.2596  0.7828 -1.8069
   24MOL    H2818014   6.975   2.253   4.256  1.1076  1.8110  0.5915
   24MOL    H2918015   6.840   2.419   4.419  1.4816 -0.8987 -0.6787
   24MOL    H3018016   6.749   2.316   4.310 -1.3598  0.5344  0.9371
   24MOL    H3118017   6.587   2.384   4.481 -1.1334 -0.5429 -0.2585
   24MOL    H3218018   6.697   2.341   4.617 -0.4731 -0.5081 -0.6656
   24MOL    H3318019   6.596   2.161   4.392  0.7263  0.0150 -0.2629
   24MOL    H3418020   6.444   2.054   4.571 -0.4727 -0.3282 -2.3210
   24MOL    H3518021   6.500   2.192   4.675  1.3606  0.3929 -0.4214
   24MOL    H3618022   6.335   2.410   4.352 -0.3511 -0.0407 -0.4654
   24MOL    H3718023   6.208   2.573   4.237 -2.7236 -0.4798 -2.2942
   24MOL    H3818024   5.885   2.511   4.528 -0.2237 -1.1299  0.3528
   24MOL    H3918025   6.001   2.321   4.617 -0.3592 -1.2056 -0.8534
   24MOL    H4018026   7.137   2.385   4.334 -0.7107  1.0063 -0.4690
   24MOL    C4118027   5.676   3.076   3.818 -0.2396 -0.0548  0.3915
   24MOL    C4218028   5.718   2.945   3.881 -0.6265  0.2853  0.1330
   24MOL    C4318029   5.811   2.973   4.006  0.3714  0.3610 -0.0109
   24MOL    C4418030   5.869   2.842   4.065 -0.8937 -0.4670 -0.3173
   24MOL    O4518031   5.937   2.864   4.188  0.0486  0.0894 -0.4012
   24MOL    C4618032   5.928   3.072   3.966 -0.5391  0.8298 -0.0637
   24MOL    C4718033   5.884   3.194   3.896  0.5172  0.0013 -0.3293
   24MOL    C4818034   5.797   3.160   3.766 -0.6504  0.0772 -0.6416
   24MOL    C4918035   5.746   3.283   3.689 -0.5670 -0.7523  0.3029
   24MOL    O5018036   5.694   3.382   3.773  0.1447 -0.0379  0.3556
   24MOL    C5118037   5.692   3.511   3.738 -0.4870  0.1892 -0.0458
   24MOL    O5218038   5.738   3.559   3.634 -0.4361 -0.4694 -0.4422
   24MOL    C5318039   5.622   3.593   3.841  0.5983 -0.4942  0.6882
   24MOL    C5418040   5.604   3.735   3.813  0.3070  0.1040  0.0559
   24MOL    C5518041   5.569   3.824   3.917  0.6349 -0.5055  0.4108
   24MOL    C5618042   5.547   3.776   4.050  0.0460 -0.0033  0.0424
   24MOL    C5718043   5.522   3.875   4.156 -0.0295 -1.0154 -0.0514
   24MOL    O5818044   5.513   3.994   4.128  0.0745  0.0493 -0.1072
   24MOL    O5918045   5.500   3.827   4.280  0.2232  0.0770  0.4629
   24MOL    C6018046   5.549   3.640   4.072  0.5081  0.0917  0.5371
   24MOL    C6118047   5.584   3.545   3.972 -0.3576  0.9075 -0.1791
   24MOL    H6218048   5.599   3.068   3.741 -0.4964  0.8394  0.5558
   24MOL    H6318049   5.628   3.144   3.888  1.0074 -0.5724  1.7540
   24MOL    H6418050   5.630   2.894   3.920  0.4568 -0.2886  1.8762
   24MOL    H6518051   5.764   2.877   3.810  0.4023 -0.2239  1.2720
   24MOL    H6618052   5.749   3.024   4.081 -0.8384 -1.4774  0.2810
   24MOL    H6718053   5.785   2.782   4.100 -0.7022  0.0418  1.0504
   24MOL    H6818054   5.920   2.778   3.994  1.0183  2.4635 -1.6872
   24MOL    H6918055   5.985   3.097   4.055  0.1028  0.8154 -0.4710
   24MOL    H7018056   6.000   3.030   3.897 -0.1517 -1.4137  1.6481
   24MOL    H7118057   5.972   3.253   3.870  1.4204 -1.8271 -1.5717
   24MOL    H7218058   5.815   3.239   3.967  1.3662 -0.5394  0.8482
   24MOL    H7318059   5.850   3.093   3.698 -1.4519 -2.4677  1.1511
   24MOL    H7418060   5.826   3.324   3.627 -1.2017 -0.3550 -0.2489
   24MOL    H7518061   5.671   3.253   3.617 -0.3231  1.6430 -0.9754
   24MOL    H7618062   5.630   3.775   3.716 -0.3554 -0.1660 -0.2311
   24MOL    H7718063   5.565   3.930   3.895 -1.8334 -0.6844 -0.1957
   24MOL    H7818064   5.541   3.605   4.174  0.3421 -0.7480  0.2442
   24MOL    H7918065   5.600   3.443   4.005  2.2243  1.7546  1.4187
   24MOL    C8018066   5.265   3.755   4.786 -0.0328  0.2307 -0.2491
   24MOL    C8118067   5.267   3.840   4.654 -0.1733 -0.2073 -0.0122
   24MOL    C8218068   5.392   3.816   4.567 -0.3660 -0.4027  0.2311
   24MOL    C8318069   5.389   3.931   4.458  0.2024  0.0819  0.9473
   24MOL    O8418070   5.514   3.921   4.393 -0.3534  0.4086  0.1887
   24MOL    C8518071   5.522   3.814   4.647  0.0749  0.0735  0.2173
   24MOL    C8618072   5.512   3.735   4.772 -0.3634 -0.0325  0.0311
   24MOL    C8718073   5.394   3.775   4.870  0.3910  0.0288  0.5017
   24MOL    C8818074   5.402   3.695   4.996 -0.0833  0.1299  0.3440
   24MOL    O8918075   5.309   3.753   5.099 -0.1952  0.0581  0.5414
   24MOL    C9018076   5.332   3.879   5.150  0.6694 -0.3140 -0.4679
   24MOL    O9118077   5.424   3.951   5.113 -0.6950  0.0636 -0.1668
   24MOL    C9218078   5.224   3.918   5.249  0.2918  0.5973  0.5276
   24MOL    C9318079   5.231   4.045   5.305  0.6009 -0.6427  0.4526
   24MOL    C9418080   5.149   4.094   5.409 -0.8328  0.2125 -0.4227
   24MOL    C9518081   5.033   4.018   5.444 -0.1090 -0.0702 -0.2819
   24MOL    C9618082   4.930   4.065   5.547  0.4733 -0.6010 -0.3442
   24MOL    O9718083   4.818   4.014   5.551 -0.2153 -0.2717  0.0724
   24MOL    O9818084   4.973   4.168   5.612  0.2587  0.0670  0.2275
   24MOL    C9918085   5.015   3.890   5.380 -0.0909 -0.0262 -0.6612
   24MOL   C10018086   5.108   3.847   5.283  0.1761  0.1249  0.8041
   24MOL   H10118087   5.184   3.770   4.857 -0.6952 -2.6831 -0.3027
   24MOL   H10218088   5.264   3.647   4.771 -1.3499  0.0623  0.9173
   24MOL   H10318089   5.173   3.823   4.602 -0.4636  2.6816 -0.5115
   24MOL   H10418090   5.271   3.944   4.687 -2.1494  0.1772 -0.9459
   24MOL   H10518091   5.386   3.720   4.517  3.2373 -0.2700 -0.6304
   24MOL   H10618092   5.301   3.922   4.396  0.9323 -1.6681  0.1427
   24MOL   H10718093   5.397   4.035   4.492  0.1477  0.8045 -1.1928
   24MOL   H10818094   5.610   3.781   4.592 -1.0185 -0.2160 -1.3839
   24MOL   H10918095   5.541   3.915   4.683 -0.7542  0.5280 -0.6079
   24MOL   H11018096   5.608   3.736   4.823 -0.3468 -0.7673  0.0205
   24MOL   H11118097   5.506   3.633   4.734 -0.4099 -0.3362  0.8371
   24MOL   H11218098   5.408   3.882   4.888 -1.1995  0.2245  0.6744
   24MOL   H11318099   5.365   3.594   4.977  1.5045 -0.5188  0.5692
   24MOL   H11418100   5.504   3.694   5.035  0.8679  2.1654 -1.9841
   24MOL   H11518101   5.314   4.111   5.284  1.1235 -1.7364 -1.0115
   24MOL   H11618102   5.158   4.192   5.454 -1.1536 -0.2896  0.7357
   24MOL   H11718103   4.940   3.819   5.410  1.5247 -1.0261  1.1046
   24MOL   H11818104   5.092   3.757   5.226 -1.8159  1.2968 -0.5152
   24MOL   C11918105   4.486   4.494   5.849  0.2113 -0.1284 -0.5585
   24MOL   C12018106   4.571   4.423   5.739  0.3585  0.0053  0.2439
   24MOL   C12118107   4.692   4.354   5.791  0.7552 -0.4100 -0.0747
   24MOL   C12218108   4.764   4.284   5.677 -0.2431 -0.2068 -0.3222
   24MOL   O12318109   4.882   4.208   5.733  0.5983 -0.1293  0.4258
   24MOL   C12418110   4.777   4.452   5.870 -0.2869 -0.9198  0.1060
   24MOL   C12518111   4.702   4.510   5.990  0.2150 -0.3876  0.4838
   24MOL   C12618112   4.580   4.589   5.934 -0.1086 -1.0750  0.0708
   24MOL   C12718113   4.515   4.679   6.048 -0.8249  0.8759 -0.2156
   24MOL   O12818114   4.379   4.717   6.018  0.1543  0.1824 -0.8160
   24MOL   C12918115   4.300   4.726   6.126  0.6382 -0.1418  0.1122
   24MOL   O13018116   4.331   4.712   6.240 -0.8857  0.1527 -0.4330
   24MOL   C13118117   4.158   4.759   6.081 -0.2835 -0.2682 -0.6664
   24MOL   C13218118   4.059   4.758   6.179 -0.3511 -0.5072 -0.4887
   24MOL   C13318119   3.924   4.783   6.156 -0.1495 -0.0577 -0.0216
   24MOL   C13418120   3.884   4.811   6.022 -0.4768 -0.0117 -0.3727
   24MOL   C13518121   3.733   4.821   6.002  0.3130 -0.2476  0.1088
   24MOL   O13618122   3.655   4.819   6.095 -0.2430  0.2281 -0.2075
   24MOL   O13718123   3.705   4.864   5.879  0.3931  0.4012  0.4670
   24MOL   C13818124   3.978   4.830   5.922  0.1896  0.1615  0.0221
   24MOL   C13918125   4.112   4.791   5.948 -0.9610  0.1510  0.1232
   24MOL   H14018126   4.409   4.550   5.795 -0.6558  0.6458  1.4211
   24MOL   H14118127   4.446   4.423   5.922  0.3750 -1.9793 -2.2178
   24MOL   H14218128   4.511   4.357   5.677  0.4134  0.2660 -0.0842
   24MOL   H14318129   4.607   4.510   5.684  0.6656 -1.5710 -2.0888
   24MOL   H14418130   4.654   4.278   5.859  2.1703  0.3084  1.5612
   24MOL   H14518131   4.699   4.220   5.618  2.0796 -0.3681 -2.8373
   24MOL   H14618132   4.805   4.366   5.618 -1.0595  1.1709  0.9956
   24MOL   H14718133   4.861   4.390   5.901 -1.5581 -1.8281  1.8506
   24MOL   H14818134   4.819   4.532   5.809  1.5975 -1.8075  0.2003
   24MOL   H14918135   4.767   4.567   6.057 -0.8451  1.1190  0.2482
   24MOL   H15018136   4.666   4.437   6.063 -1.0276  1.3963  1.6959
   24MOL   H15118137   4.610   4.654   5.852  1.0941 -2.3352 -0.5177
   24MOL   H15218138   4.536   4.643   6.149  0.2808  1.3804 -0.2640
   24MOL   H15318139   4.575   4.769   6.038  0.9924 -0.0391  2.1599
   24MOL   H15418140   4.078   4.733   6.282 -1.1936  0.1928 -0.1521
   24MOL   H15518141   3.851   4.755   6.231 -0.9934 -1.1557 -1.2290
   24MOL   H15618142   3.942   4.852   5.823  1.4064 -0.6880 -0.6281
   24MOL   H15718143   4.188   4.798   5.872 -0.7473 -1.5375  0.1488
   24MOL   C15818144   3.258   5.179   5.699  0.0863 -0.4361 -0.0895
   24MOL   C15918145   3.391   5.101   5.716  0.3276 -0.5516  0.4351
   24MOL   C16018146   3.453   5.123   5.860  0.5545 -0.2823  0.5273
   24MOL   C16118147   3.586   5.054   5.885 -0.1345 -0.2293 -0.7527
   24MOL   O16218148   3.574   4.919   5.867  0.0865 -0.1062  0.1706
   24MOL   C16318149   3.469   5.273   5.883  0.1644  0.3228  0.4249
   24MOL   C16418150   3.337   5.343   5.878  0.2248 -0.2221  0.3460
   24MOL   C16518151   3.271   5.328   5.738 -0.2806  0.7894  0.2669
   24MOL   C16618152   3.129   5.399   5.736  0.5630  0.0885  0.0338
   24MOL   O16718153   3.086   5.421   5.603  0.1840 -0.0940  0.1855
   24MOL   C16818154   2.954   5.424   5.575  0.7285  0.5415  0.5207
   24MOL   O16918155   2.868   5.439   5.661 -0.1264  0.4994 -0.4318
   24MOL   C17018156   2.921   5.412   5.434  0.1639  0.1394  0.2272
   24MOL   C17118157   3.015   5.404   5.336 -0.2170  0.5223  0.1953
   24MOL   C17218158   2.988   5.397   5.193 -0.3100 -0.0596  0.1500
   24MOL   C17318159   2.855   5.396   5.151  0.6023  0.1698 -0.0287
   24MOL   C17418160   2.825   5.381   5.006 -0.1559 -0.3587  0.0153
   24MOL   O17518161   2.912   5.336   4.929 -0.5374 -0.3534 -0.3142
   24MOL   O17618162   2.698   5.411   4.969 -0.4746 -0.0546 -0.9267
   24MOL   C17718163   2.756   5.403   5.250  0.0544 -0.4540 -0.1565
   24MOL   C17818164   2.784   5.408   5.390 -0.1733 -0.2849  0.1671
   24MOL   H17918165   3.221   5.179   5.597 -0.7824 -0.1758  0.2239
   24MOL   H18018166   3.188   5.131   5.767  0.0576  0.2923  0.4049
   24MOL   H18118167   3.381   4.993   5.700 -1.3178 -0.0088 -2.4287
   24MOL   H18218168   3.453   5.140   5.635 -0.8122  0.1224 -0.1200
   24MOL   H18318169   3.390   5.070   5.931  0.0399 -0.0361  0.2574
   24MOL   H18418170   3.667   5.099   5.828  1.4651 -0.7446  1.0783
   24MOL   H18518171   3.624   5.067   5.986 -1.0585 -2.9925 -0.0074
   24MOL   H18618172   3.517   5.286   5.979 -2.2455 -1.1027  1.8672
   24MOL   H18718173   3.543   5.315   5.815  0.1271  2.5875  1.7399
   24MOL   H18818174   3.347   5.450   5.897 -1.6743  0.4566 -2.2105
   24MOL   H18918175   3.265   5.302   5.948  0.4279  0.4552  0.9513
   24MOL   H19018176   3.335   5.378   5.665  0.7603  0.1269  0.7170
   24MOL   H19118177   3.051   5.349   5.794  0.3008  2.8399  2.1569
   24MOL   H19218178   3.142   5.499   5.776 -0.6570 -0.1451  1.0572
   24MOL   H19318179   3.118   5.411   5.367  0.1884  0.3253 -1.0688
   24MOL   H19418180   3.070   5.405   5.123 -0.4938  0.9823  0.0408
   24MOL   H19518181   2.655   5.384   5.218  1.1594 -2.5472 -2.6351
   24MOL   H19618182   2.711   5.412   5.469 -0.0491 -2.2372  0.4152
   24MOL   C19718183   2.591   5.160   4.463  0.1258 -0.0857  0.0076
   24MOL   C19818184   2.643   5.195   4.602  0.3339  0.5452  0.7452
   24MOL   C19918185   2.530   5.204   4.705 -0.0227  0.2397 -0.1881
   24MOL   C20018186   2.593   5.241   4.845  0.4176 -0.6257 -0.6889
   24MOL   O20118187   2.657   5.371   4.832  0.3966  0.3455 -0.1727
   24MOL   C20218188   2.409   5.293   4.657  0.3627 -0.0103  0.3699
   24MOL   C20318189   2.361   5.246   4.514 -0.8780 -0.0655 -0.0149
   24MOL   C20418190   2.479   5.254   4.415  0.3765 -0.1332  0.8006
   24MOL   C20518191   2.428   5.215   4.277  0.3131  0.3905 -0.6313
   24MOL   O20618192   2.511   5.260   4.175 -0.6686 -0.0631  0.1888
   24MOL   C20718193   2.546   5.174   4.071  0.0569  0.0285  0.7375
   24MOL   O20818194   2.482   5.077   4.039  0.0284  0.2766  0.1877
   24MOL   C20918195   2.661   5.226   4.000 -0.3721  0.6613 -0.4776
   24MOL   C21018196   2.662   5.232   3.859 -0.1182 -0.0242 -0.9635
   24MOL   C21118197   2.774   5.277   3.792  0.3932 -0.5294 -0.0692
   24MOL   C21218198   2.886   5.333   3.869 -0.2440  0.2497 -0.1275
   24MOL   C21318199   2.992   5.408   3.797  0.2074 -0.6866 -0.2503
   24MOL   O21418200   3.004   5.413   3.676 -0.9209 -0.5335  0.2140
   24MOL   O21518201   3.092   5.449   3.876  0.1471  0.0069 -0.2094
   24MOL   C21618202   2.885   5.325   4.012 -0.3897 -0.6617  0.2758
   24MOL   C21718203   2.770   5.276   4.075  0.6722  0.1638 -0.1140
   24MOL   H21818204   2.682   5.162   4.403 -1.0243  0.7946 -1.7815
   24MOL   H21918205   2.565   5.054   4.460 -0.9455  0.0086  3.4716
   24MOL   H22018206   2.718   5.120   4.629  0.0974  0.2345  0.5302
   24MOL   H22118207   2.695   5.291   4.595 -0.8363  0.9995 -2.1071
   24MOL   H22218208   2.502   5.099   4.712  0.9408 -0.1386 -1.7468
   24MOL   H22318209   2.520   5.246   4.925  0.1686  2.7815 -1.0279
   24MOL   H22418210   2.663   5.161   4.868  0.8475  0.1553  0.7525
   24MOL   H22518211   2.333   5.291   4.735  0.0482  3.7445  0.2495
   24MOL   H22618212   2.442   5.396   4.649  2.1953 -0.6433 -0.4526
   24MOL   H22718213   2.277   5.306   4.477 -1.2286  0.5056  1.6625
   24MOL   H22818214   2.328   5.142   4.515  0.9071 -0.6381  0.0341
   24MOL   H22918215   2.511   5.358   4.413 -1.7455  0.6305  3.4405
   24MOL   H23018216   2.412   5.108   4.267 -1.9054  0.6162  0.1976
   24MOL   H23118217   2.330   5.257   4.255 -0.0707 -0.1875 -0.0612
   24MOL   H23218218   2.582   5.194   3.797  0.4135 -1.8674 -0.5629
   24MOL   H23318219   2.776   5.289   3.684  1.8436  1.1751  0.1161
   24MOL   H23418220   2.973   5.360   4.064  0.6844 -0.9543 -1.2860
   24MOL   H23518221   2.779   5.262   4.182 -1.6118  0.4798  0.1675
   24MOL   C23618222   3.480   5.570   3.456 -0.8734  0.6588 -0.2954
   24MOL   C23718223   3.372   5.502   3.534  0.0807 -0.4639  0.2282
   24MOL   C23818224   3.411   5.492   3.683 -0.6231 -0.3303 -0.4458
   24MOL   C23918225   3.299   5.425   3.770 -0.1808  0.4608  0.3800
   24MOL   O24018226   3.204   5.526   3.818  0.3453  0.4493  0.5402
   24MOL   C24118227   3.541   5.416   3.696 -0.0340 -0.2404  0.9184
   24MOL   C24218228   3.653   5.452   3.595  0.2439 -0.3222  0.3071
   24MOL   C24318229   3.601   5.475   3.452 -0.3169 -0.1492  0.0703
   24MOL   C24418230   3.704   5.532   3.360 -0.0059  0.2966  0.4696
   24MOL   O24518231   3.801   5.432   3.332 -0.4504 -0.3053 -0.4551
   24MOL   C24618232   3.931   5.454   3.337  0.0154  0.0917  0.4292
   24MOL   O24718233   3.973   5.567   3.316 -0.0019  0.4197 -0.3296
   24MOL   C24818234   4.004   5.336   3.385  0.2594 -0.1109 -0.1153
   24MOL   C24918235   4.140   5.334   3.359  0.5155  0.1683 -0.3454
   24MOL   C25018236   4.216   5.226   3.412 -0.5648 -0.0424 -0.2518
   24MOL   C25118237   4.156   5.126   3.483 -0.0030 -0.4092 -0.7607
   24MOL   C25218238   4.231   5.019   3.547 -0.1758  0.2452  0.4378
   24MOL   O25318239   4.181   4.939   3.635  0.7338  0.3898 -0.1745
   24MOL   O25418240   4.352   4.996   3.495  0.2632  0.0066  0.4342
   24MOL   C25518241   4.019   5.127   3.504  0.2218 -0.2194  0.1080
   24MOL   C25618242   3.942   5.237   3.461 -0.1165 -0.5494  0.6288
   24MOL   H25718243   3.443   5.581   3.354 -0.8170 -2.7474 -0.7294
   24MOL   H25818244   3.505   5.668   3.497 -2.7958  1.1644 -0.3038
   24MOL   H25918245   3.284   5.567   3.532 -0.1008 -0.7494 -1.5880
   24MOL   H26018246   3.340   5.409   3.488  0.2935 -0.1888 -0.4753
   24MOL   H26118247   3.433   5.595   3.713  2.5181 -0.3789 -2.3242
   24MOL   H26218248   3.249   5.352   3.706 -0.8976 -0.2206  1.7177
   24MOL   H26318249   3.322   5.371   3.861 -1.8851  1.1675  1.2442
   24MOL   H26418250   3.579   5.423   3.798  1.5675 -1.7315  0.4592
   24MOL   H26518251   3.514   5.312   3.680 -1.5924  0.2353  0.3456
   24MOL   H26618252   3.734   5.379   3.603  0.3405 -0.0406  2.1338
   24MOL   H26718253   3.696   5.545   3.632  0.6438 -1.2360  2.1810
   24MOL   H26818254   3.560   5.381   3.415  1.9293 -1.5965  1.1904
   24MOL   H26918255   3.668   5.556   3.260 -1.4375 -3.4494  0.0082
   24MOL   H27018256   3.736   5.626   3.405  0.7249 -0.3927  1.4191
   24MOL   H27118257   4.201   5.399   3.299  0.3516  0.6114 -0.0293
   24MOL   H27218258   4.320   5.230   3.383 -0.7056 -1.3050 -0.9262
   24MOL   H27318259   3.967   5.042   3.544 -0.4410  0.8120  1.4779
   24MOL   H27418260   3.835   5.239   3.472 -0.4592  0.0962 -2.3660
   24MOL   C27518261   4.422   4.709   3.947 -0.1368  0.0644 -0.3771
   24MOL   C27618262   4.411   4.805   3.834  0.6282  0.7774 -0.3100
   24MOL   C27718263   4.543   4.837   3.763 -0.6319  0.2641 -0.3899
   24MOL   C27818264   4.522   4.948   3.660  0.5868 -0.1096  0.7915
   24MOL   O27918265   4.435   4.891   3.568 -0.3818  0.5477  0.3349
   24MOL   C28018266   4.665   4.868   3.852  0.4809 -0.0818 -0.3236
   24MOL   C28118267   4.665   4.768   3.978 -0.7093  0.2768 -0.3797
   24MOL   C28218268   4.529   4.756   4.044  0.2016 -0.6860  0.7419
   24MOL   C28318269   4.517   4.681   4.176 -0.6486  0.6298  0.5640
   24MOL   O28418270   4.521   4.541   4.160  0.1251  0.4901 -0.3246
   24MOL   C28518271   4.606   4.468   4.236 -0.5398  0.1068 -0.0420
   24MOL   O28618272   4.692   4.520   4.304 -0.3849 -0.1508  0.5806
   24MOL   C28718273   4.570   4.320   4.236  0.0017  0.2669  0.5910
   24MOL   C28818274   4.668   4.231   4.285  0.0729  0.3442 -0.3680
   24MOL   C28918275   4.648   4.092   4.276 -0.0287 -0.3743  0.2338
   24MOL   C29018276   4.526   4.042   4.220  0.0664 -0.2023 -0.0960
   24MOL   C29118277   4.514   3.900   4.203  0.7680  0.9633  0.4704
   24MOL   O29218278   4.418   3.840   4.146  0.3331 -0.2268  0.4902
   24MOL   O29318279   4.625   3.828   4.242  0.7909 -0.0699 -0.0980
   24MOL   C29418280   4.428   4.132   4.183  0.3362 -1.0139  0.0956
   24MOL   C29518281   4.450   4.270   4.181  0.0506  0.1231 -0.8425
   24MOL   H29618282   4.325   4.705   3.997 -0.4669  1.2465 -0.9044
   24MOL   H29718283   4.444   4.609   3.908  1.7792 -0.6732  2.4657
   24MOL   H29818284   4.333   4.766   3.769  0.9146 -0.2890 -0.0271
   24MOL   H29918285   4.373   4.897   3.879  0.4196  0.5802 -0.0775
   24MOL   H30018286   4.575   4.752   3.702  3.0908  0.6719  0.9090
   24MOL   H30118287   4.476   5.038   3.701  2.1940  2.0023 -1.8463
   24MOL   H30218288   4.614   4.983   3.613 -0.2668 -0.2669 -1.0434
   24MOL   H30318289   4.762   4.863   3.803  0.3055  1.6964 -0.8750
   24MOL   H30418290   4.664   4.964   3.903 -0.7488  0.0976 -0.6492
   24MOL   H30518291   4.727   4.805   4.060  0.4865 -2.9756  0.2840
   24MOL   H30618292   4.710   4.673   3.946  0.7849  1.0228 -0.5524
   24MOL   H30718293   4.505   4.860   4.065  1.0808 -0.6239  1.4589
   24MOL   H30818294   4.603   4.712   4.236 -0.1987  0.5886 -0.0632
   24MOL   H30918295   4.425   4.717   4.221 -0.5580  2.4979 -0.7005
   24MOL   H31018296   4.761   4.268   4.325 -0.2029 -0.1890  0.8080
   24MOL   H31118297   4.726   4.032   4.319 -0.8228 -0.8071  1.0822
   24MOL   H31218298   4.337   4.093   4.138 -1.9594  2.3361  1.6006
   24MOL   H31318299   4.381   4.344   4.141 -0.4537  0.2442  0.2392
   24MOL   C31418300   4.761   3.291   4.148 -0.0215 -0.2117  0.4484
   24MOL   C31518301   4.741   3.435   4.182  0.3056  0.8989  0.0489
   24MOL   C31618302   4.718   3.523   4.063 -0.0222 -0.4070 -0.3399
   24MOL   C31718303   4.721   3.671   4.115 -0.0240  0.8585  0.0164
   24MOL   O31818304   4.622   3.691   4.215  0.4377  0.2967 -0.0998
   24MOL   C31918305   4.823   3.505   3.951 -0.5625  0.3469  0.2633
   24MOL   C32018306   4.833   3.357   3.921 -0.3293 -0.3216 -0.3396
   24MOL   C32118307   4.868   3.272   4.044  0.4522  0.0794 -0.2853
   24MOL   C32218308   4.902   3.124   4.008 -0.4604  0.9138 -0.5251
   24MOL   O32318309   4.790   3.052   3.963  0.4686 -0.2572 -0.3722
   24MOL   C32418310   4.767   3.031   3.831  0.0536 -0.1809  0.6598
   24MOL   O32518311   4.844   3.076   3.744  0.0908  0.2194  0.3258
   24MOL   C32618312   4.647   2.949   3.800  0.0179  0.1343  0.4016
   24MOL   C32718313   4.547   2.924   3.900  0.1224  0.6625  0.1541
   24MOL   C32818314   4.422   2.871   3.858 -0.4943 -0.0172  0.5576
   24MOL   C32918315   4.394   2.834   3.723  0.1235 -0.2237 -0.1394
   24MOL   C33018316   4.262   2.764   3.694 -0.5422  0.2087 -0.6093
   24MOL   O33118317   4.168   2.763   3.771  0.6210 -0.3212  0.6564
   24MOL   O33218318   4.254   2.695   3.573  0.1379  0.3117  0.5058
   24MOL   C33318319   4.490   2.860   3.630  0.0677  0.7592 -0.1384
   24MOL   C33418320   4.615   2.925   3.666 -0.0705 -0.1461 -0.4094
   24MOL   H33518321   4.796   3.242   4.238 -1.0898 -0.8058  0.5512
   24MOL   H33618322   4.668   3.253   4.105 -0.0977  0.7076 -0.2429
   24MOL   H33718323   4.659   3.442   4.253  0.4598 -0.3586  0.3620
   24MOL   H33818324   4.823   3.468   4.246  1.6256 -1.1160 -0.5780
   24MOL   H33918325   4.619   3.506   4.021  0.1131  1.4363 -1.4594
   24MOL   H34018326   4.822   3.689   4.153 -0.0859 -1.7800  1.5894
   24MOL   H34118327   4.707   3.743   4.035  0.5185  1.2453  0.2638
   24MOL   H34218328   4.799   3.557   3.858 -0.7643  0.9961  0.6745
   24MOL   H34318329   4.924   3.530   3.985 -0.9620 -0.0589  1.7954
   24MOL   H34418330   4.915   3.349   3.848  0.6978 -0.2021  0.7810
   24MOL   H34518331   4.735   3.330   3.883  0.1732 -0.0808 -1.8585
   24MOL   H34618332   4.961   3.308   4.088  1.0415 -2.0078  0.2586
   24MOL   H34718333   4.993   3.125   3.947 -1.0131 -0.2712 -1.3889
   24MOL   H34818334   4.936   3.073   4.098  0.4095  0.6580 -0.9854
   24MOL   H34918335   4.561   2.947   4.004 -0.6272  1.4815  0.0830
   24MOL   H35018336   4.348   2.850   3.934  0.7869 -1.1322  1.5299
   24MOL   H35118337   4.469   2.844   3.525 -0.5260  0.7459 -0.0174
   24MOL   H35218338   4.680   2.954   3.584  0.5777 -0.4004  0.0061
   24MOL   C35318339   3.931   2.214   3.668 -0.0498  0.3269 -0.5756
   24MOL   C35418340   4.017   2.344   3.677  0.3290  0.3658  0.2624
   24MOL   C35518341   4.130   2.338   3.570  0.3083 -1.1974  0.6739
   24MOL   C35618342   4.218   2.466   3.580 -0.0863  0.0129  0.2642
   24MOL   O35718343   4.146   2.587   3.576 -0.7173  0.5398 -0.1514
   24MOL   C35818344   4.213   2.213   3.587 -1.0610  0.1283  0.6613
   24MOL   C35918345   4.131   2.084   3.598 -0.3706 -0.2716  0.8408
   24MOL   C36018346   4.021   2.099   3.710  0.4629 -0.2198  0.9170
   24MOL   C36118347   3.932   1.982   3.732  0.7422 -0.7202  0.2945
   24MOL   O36218348   4.000   1.861   3.767  0.2083  0.2592  0.4011
   24MOL   C36318349   3.932   1.749   3.787 -0.1531  0.1015  0.0643
   24MOL   O36418350   3.816   1.727   3.751  0.0369  0.0735 -0.5802
   24MOL   C36518351   4.013   1.647   3.862  0.5033  0.2439  0.8064
   24MOL   C36618352   3.971   1.514   3.853 -0.0339  0.2989  0.4474
   24MOL   C36718353   4.032   1.413   3.929 -0.1918  0.8439 -0.0447
   24MOL   C36818354   4.134   1.444   4.023 -0.2399 -0.4776 -0.3951
   24MOL   C36918355   4.188   1.333   4.113  0.0870 -0.2601 -0.1543
   24MOL   O37018356   4.288   1.350   4.182 -0.3873  0.7438 -0.5914
   24MOL   O37118357   4.114   1.221   4.127 -0.4304 -0.8086  0.4335
   24MOL   C37218358   4.171   1.577   4.035 -0.2046 -0.3197  0.6496
   24MOL   C37318359   4.122   1.675   3.951 -0.0823 -0.1911  0.2918
   24MOL   H37418360   3.847   2.219   3.738  0.1437 -2.6644 -0.0489
   24MOL   H37518361   3.897   2.201   3.566 -1.3021  0.5191 -0.1908
   24MOL   H37618362   3.949   2.425   3.654 -1.0062 -0.7113  0.3346
   24MOL   H37718363   4.053   2.364   3.778  0.3991 -0.5895  0.4286
   24MOL   H37818364   4.071   2.328   3.479  0.2089 -3.2164  0.9327
   24MOL   H37918365   4.288   2.462   3.664  0.4956  0.7155 -0.1861
   24MOL   H38018366   4.285   2.463   3.495  1.5160  0.8797  1.4663
   24MOL   H38118367   4.282   2.210   3.502 -0.1576 -3.0138  1.4317
   24MOL   H38218368   4.281   2.231   3.671  2.7634  1.2617 -2.5352
   24MOL   H38318369   4.193   1.996   3.614  2.9391  1.7191 -0.6290
   24MOL   H38418370   4.083   2.066   3.502  0.2469  0.0237  0.4772
   24MOL   H38518371   4.064   2.118   3.808 -1.5906  0.0586  1.7966
   24MOL   H38618372   3.871   2.007   3.819  0.9719 -1.7522  0.7537
   24MOL   H38718373   3.867   1.972   3.644 -1.7836 -0.8278  2.1233
   24MOL   H38818374   3.880   1.490   3.800  1.0209  1.6478 -2.0636
   24MOL   H38918375   3.993   1.312   3.924 -1.8702  1.4956 -0.6699
   24MOL   H39018376   4.244   1.605   4.109 -0.7112 -1.2970  1.5131
   24MOL   H39118377   4.164   1.773   3.970  0.6458 -0.3822 -0.3190
   24MOL   C39218378   4.391   0.833   4.456  0.3050 -0.1697 -0.2060
   24MOL   C39318379   4.282   0.882   4.361  0.3243 -0.3522 -0.7838
   24MOL   C39418380   4.244   1.027   4.404  0.3730 -0.7525 -0.4367
   24MOL   C39518381   4.136   1.075   4.317 -0.5888 -0.3220  0.2549
   24MOL   O39618382   4.186   1.103   4.189  0.0473 -0.6394 -0.0000
   24MOL   C39718383   4.211   1.037   4.556  0.5030  0.5382 -0.6772
   24MOL   C39818384   4.332   0.996   4.643  0.9828  0.3793  0.2131
   24MOL   C39918385   4.368   0.851   4.611  0.7897  0.6308  0.5464
   24MOL   C40018386   4.493   0.803   4.690  0.6746  1.0942 -0.1029
   24MOL   O40118387   4.450   0.826   4.824  0.1473 -0.2491 -0.4730
   24MOL   C40218388   4.541   0.822   4.929 -0.2780  0.4244  0.3797
   24MOL   O40318389   4.664   0.795   4.917  0.5182  1.0106  0.5523
   24MOL   C40418390   4.474   0.853   5.056 -0.5652 -0.3846 -0.3130
   24MOL   C40518391   4.543   0.813   5.173 -0.4165  0.8722 -0.8884
   24MOL   C40618392   4.486   0.828   5.301  0.8392  1.0683 -0.0945
   24MOL   C40718393   4.357   0.886   5.316 -0.4316  0.7719  0.4577
   24MOL   C40818394   4.293   0.924   5.451  0.6407  0.8224  0.0113
   24MOL   O40918395   4.184   0.974   5.461 -0.5794 -0.0181  0.8084
   24MOL   O41018396   4.364   0.880   5.557  0.4658 -0.2081  0.4451
   24MOL   C41118397   4.278   0.911   5.192  0.0869 -0.1788  0.0212
   24MOL   C41218398   4.341   0.896   5.069 -0.5724  0.0553  0.0056
   24MOL   H41318399   4.398   0.726   4.435  1.1443 -0.4450  1.4135
   24MOL   H41418400   4.481   0.887   4.425 -0.7641  1.4593 -0.5295
   24MOL   H41518401   4.306   0.880   4.255  2.4086 -1.2188 -0.3204
   24MOL   H41618402   4.193   0.821   4.378  0.8587 -0.6580  1.0245
   24MOL   H41718403   4.333   1.087   4.384 -1.2264  1.4564 -1.1366
   24MOL   H41818404   4.063   0.995   4.304 -0.2433 -0.2583 -2.2061
   24MOL   H41918405   4.091   1.157   4.372  0.3259  1.0071 -0.9654
   24MOL   H42018406   4.190   1.140   4.581 -0.9999 -0.1362  0.8788
   24MOL   H42118407   4.124   0.974   4.573  0.5453  0.0968 -2.0428
   24MOL   H42218408   4.306   1.019   4.747 -0.2500  1.4070 -0.3124
   24MOL   H42318409   4.417   1.059   4.615  1.1487  1.0883  2.2221
   24MOL   H42418410   4.281   0.791   4.638  1.8049 -1.4134 -0.6250
   24MOL   H42518411   4.510   0.698   4.669  1.3661  1.6970 -2.7601
   24MOL   H42618412   4.580   0.862   4.661  1.2442  0.1898 -0.2605
   24MOL   H42718413   4.643   0.775   5.156 -1.4145 -2.1289 -0.2761
   24MOL   H42818414   4.548   0.804   5.387  0.8503  0.5345 -0.2521
   24MOL   H42918415   4.182   0.957   5.206  1.6888  3.2422  0.1966
   24MOL   H43018416   4.285   0.904   4.977  0.8001 -1.3297 -0.9783
   24MOL   C43118417   4.260   0.913   6.131 -0.1325  0.3626 -0.4395
   24MOL   C43218418   4.303   0.902   5.985 -0.1380  0.0505 -0.2798
   24MOL   C43318419   4.198   0.835   5.892  0.3071  0.1970 -0.7902
   24MOL   C43418420   4.247   0.813   5.749 -0.9175 -0.1627 -0.3718
   24MOL   O43518421   4.301   0.926   5.689 -0.4746  0.4623  0.2155
   24MOL   C43618422   4.147   0.706   5.954 -0.3467 -0.0479  0.0239
   24MOL   C43718423   4.106   0.717   6.099 -0.6651  0.2512 -0.1257
   24MOL   C43818424   4.218   0.775   6.186  0.4077 -0.4456  0.1796
   24MOL   C43918425   4.167   0.774   6.336 -1.2563  0.2650 -0.5109
   24MOL   O44018426   4.052   0.857   6.352 -0.5649 -0.2046 -0.6840
   24MOL   C44118427   4.022   0.909   6.479  0.2674 -0.3848  0.2873
   24MOL   O44218428   4.077   0.884   6.584  0.7688 -0.1969  0.0062
   24MOL   C44318429   3.905   1.004   6.473  0.4547 -0.1780 -0.4305
   24MOL   C44418430   3.869   1.064   6.348  0.0365  0.6302 -0.4668
   24MOL   C44518431   3.773   1.162   6.340 -0.0419  0.5756 -0.1286
   24MOL   C44618432   3.706   1.211   6.453  0.2098 -0.4439 -0.7384
   24MOL   C44718433   3.615   1.326   6.440 -0.4411 -0.1522  0.6233
   24MOL   O44818434   3.603   1.401   6.345 -0.3595 -0.6312  0.7924
   24MOL   O44918435   3.546   1.353   6.559 -0.1831  0.7987  0.4934
   24MOL   C45018436   3.739   1.151   6.576 -0.6072  0.2793 -0.5643
   24MOL   C45118437   3.836   1.050   6.587  0.0821  0.2425  0.2886
   24MOL   H45218438   4.337   0.948   6.199 -0.8587 -0.1576  0.6569
   24MOL   H45318439   4.175   0.980   6.135 -1.8929 -1.7361 -1.2283
   24MOL   H45418440   4.318   1.000   5.941  1.4014  0.3159  0.8347
   24MOL   H45518441   4.401   0.854   5.992  0.3257  1.2668  1.7212
   24MOL   H45618442   4.118   0.909   5.887  0.2520  0.1159 -1.1482
   24MOL   H45718443   4.334   0.748   5.741 -1.6075 -1.0969 -0.3268
   24MOL   H45818444   4.161   0.775   5.693 -1.6135 -1.4811  1.5327
   24MOL   H45918445   4.063   0.667   5.897  0.6268  0.2339 -1.6215
   24MOL   H46018446   4.223   0.630   5.945 -0.3508 -0.0982  0.4106
   24MOL   H46118447   4.078   0.620   6.140 -2.2381  0.4665 -0.6660
   24MOL   H46218448   4.012   0.770   6.115 -1.8607 -2.0394  0.6860
   24MOL   H46318449   4.308   0.714   6.175 -0.1670 -0.7085 -3.5762
   24MOL   H46418450   4.147   0.673   6.369  0.0984 -1.1431 -3.7643
   24MOL   H46518451   4.247   0.818   6.396  0.8794 -1.9218 -1.6705
   24MOL   H46618452   3.911   1.025   6.257  1.6529 -2.2982  1.4491
   24MOL   H46718453   3.753   1.220   6.251  0.7326  0.6973 -0.2269
   24MOL   H46818454   3.693   1.180   6.670 -0.9220 -2.2238  0.1026
   24MOL   H46918455   3.875   1.018   6.683 -0.6935 -1.5237  0.0357
   24MOL   C47018456   3.488   1.633   6.990 -0.6454  0.5503  0.0625
   24MOL   C47118457   3.475   1.648   6.835  0.2459 -0.8834 -0.2054
   24MOL   C47218458   3.577   1.573   6.758 -0.2557  0.0385  0.7984
   24MOL   C47318459   3.552   1.586   6.606  0.5797 -0.0350 -0.3023
   24MOL   O47418460   3.466   1.483   6.558 -0.2051  0.3167 -1.3455
   24MOL   C47518461   3.713   1.626   6.806 -0.3498  0.3019 -0.3475
   24MOL   C47618462   3.737   1.626   6.957 -0.0791 -0.5424 -0.2254
   24MOL   C47718463   3.622   1.686   7.040 -0.7695  0.0309 -0.0148
   24MOL   C47818464   3.659   1.653   7.190 -0.2057 -0.2397  0.4898
   24MOL   O47918465   3.648   1.519   7.229  0.3104  0.0579  0.0682
   24MOL   C48018466   3.545   1.465   7.293  0.1228  0.5390 -0.2802
   24MOL   O48118467   3.444   1.530   7.319 -0.0425 -0.0046 -0.0880
   24MOL   C48218468   3.571   1.321   7.335  0.1661 -0.6696 -0.0744
   24MOL   C48318469   3.485   1.250   7.420  0.1103  0.5840 -0.6550
   24MOL   C48418470   3.514   1.122   7.468 -0.9171 -0.7196 -0.8325
   24MOL   C48518471   3.639   1.064   7.424 -0.2853 -0.2949 -0.3801
   24MOL   C48618472   3.675   0.937   7.486 -0.4340  0.1347 -0.6891
   24MOL   O48718473   3.787   0.884   7.486 -1.1474  0.4120 -0.3461
   24MOL   O48818474   3.568   0.876   7.534 -0.2331  0.8747 -0.7943
   24MOL   C48918475   3.719   1.126   7.330 -0.1775 -0.3327 -0.5813
   24MOL   C49018476   3.686   1.256   7.284  0.4166 -0.4942  0.6330
   24MOL   H49118477   3.409   1.685   7.042 -2.1452 -2.0363  0.4786
   24MOL   H49218478   3.487   1.526   7.012 -0.2865  0.3095 -1.0534
   24MOL   H49318479   3.374   1.623   6.803 -0.4690 -0.3390  1.5368
   24MOL   H49418480   3.485   1.755   6.815 -0.7593 -0.4198  1.6120
   24MOL   H49518481   3.558   1.470   6.789  3.0103 -0.1983  2.1729
   24MOL   H49618482   3.513   1.685   6.585  0.9234 -0.6640 -4.1559
   24MOL   H49718483   3.650   1.571   6.561  0.6762 -0.0364 -0.0945
   24MOL   H49818484   3.785   1.564   6.751 -2.2108  0.4318 -3.0135
   24MOL   H49918485   3.730   1.727   6.769  1.6130  0.0929 -0.0955
   24MOL   H50018486   3.830   1.677   6.981  1.4894 -2.9027 -1.0427
   24MOL   H50118487   3.747   1.521   6.986 -0.0074 -0.2117  0.9607
   24MOL   H50218488   3.630   1.792   7.018 -0.2050  0.3526  1.6433
   24MOL   H50318489   3.764   1.684   7.196 -0.7369  1.9768 -1.2673
   24MOL   H50418490   3.593   1.715   7.250 -0.1707 -0.5565  0.8626
   24MOL   H50518491   3.395   1.302   7.447 -0.8192 -1.6145  0.6189
   24MOL   H50618492   3.452   1.069   7.539 -0.2386 -3.4321 -2.1949
   24MOL   H50718493   3.809   1.080   7.291 -0.8229 -1.3930 -0.8395
   24MOL   H50818494   3.752   1.301   7.211  0.7460  1.7715  2.2758
   24MOL   C50918495   3.779   0.585   0.027  0.3925 -0.4313 -0.4292
   24MOL   C51018496   3.687   0.684   7.985  0.7680 -0.0363  0.2989
   24MOL   C51118497   3.675   0.668   7.833 -0.2960  0.6501  0.4489
   24MOL   C51218498   3.605   0.784   7.753  0.3616 -0.7519  0.1593
   24MOL   O51318499   3.603   0.757   7.612  0.3685 -0.3225 -0.4546
   24MOL   C51418500   3.824   0.659   7.771 -0.6559  0.4642  0.2916
   24MOL   C51518501   3.916   0.553   7.844  0.0063 -0.0867 -0.4261
   24MOL   C51618502   3.924   0.579   7.995 -0.3876 -0.0636 -0.1922
   24MOL   C51718503   4.008   0.477   0.033  0.0372 -0.1671 -1.0279
   24MOL   O51818504   4.142   0.456   8.012 -1.2523  0.0963 -0.2861
   24MOL   C51918505   4.236   0.546   8.035  0.0901  0.0341  0.4493
   24MOL   O52018506   4.224   0.648   0.071 -0.4370  0.4549  0.1382
   24MOL   C52118507   4.358   0.510   7.951 -1.1076  0.7156 -0.2975
   24MOL   C52218508   4.449   0.620   7.930 -0.0899  0.1657 -0.4268
   24MOL   C52318509   4.561   0.598   7.842 -1.0733 -0.1214 -0.8141
   24MOL   C52418510   4.580   0.472   7.775 -0.0932 -0.2253  0.2076
   24MOL   C52518511   4.688   0.454   7.672 -0.3042 -0.1092  0.1514
   24MOL   O52618512   4.695   0.358   7.594 -0.4589  0.7490 -0.3157
   24MOL   O52718513   4.778   0.546   7.674 -0.1901 -0.4463  0.6906
   24MOL   C52818514   4.487   0.366   7.804 -0.1097  1.1960 -0.1440
   24MOL   C52918515   4.377   0.384   7.896 -0.1649  0.5208 -0.0900
   24MOL   H53018516   3.786   0.613   0.133  1.6317  1.5699 -1.0083
   24MOL   H53118517   3.731   0.488   0.017 -0.3777 -0.2246  1.0287
   24MOL   H53218518   3.589   0.677   8.033  0.0803  0.2627 -1.0316
   24MOL   H53318519   3.724   0.786   8.000 -0.1289  0.0610  2.0507
   24MOL   H53418520   3.619   0.576   7.820 -0.9467  0.7130  2.7318
   24MOL   H53518521   3.501   0.800   7.782  1.0746  0.1869  2.2876
   24MOL   H53618522   3.638   0.884   7.783  0.0034 -0.7045  0.3949
   24MOL   H53718523   3.818   0.634   7.665  1.2379  0.6113  0.1351
   24MOL   H53818524   3.875   0.755   7.774 -3.5848  2.0593  0.8983
   24MOL   H53918525   4.014   0.562   7.796  0.5715  0.8085  0.8622
   24MOL   H54018526   3.871   0.454   7.839 -1.4176  0.4266  1.5103
   24MOL   H54118527   3.963   0.680   8.002 -2.8429  0.9856 -1.0072
   24MOL   H54218528   3.996   0.482   0.141 -0.3259 -1.0374 -1.0262
   24MOL   H54318529   3.951   0.385   0.024  1.1387 -0.8755 -0.8439
   24MOL   H54418530   4.430   0.721   7.963 -0.6720  0.9191 -2.9821
   24MOL   H54518531   4.625   0.683   7.821 -0.8284 -0.2113 -0.4567
   24MOL   H54618532   4.498   0.270   7.756  0.2833  0.7734  0.7652
   24MOL   H54718533   4.315   0.301   7.927  1.2834 -0.3030  0.6563
   24MOL   C54818534   4.841   0.983   7.398 -0.6916 -0.7892 -0.0049
   24MOL   C54918535   4.854   0.834   7.366  0.2915 -0.3236 -0.3096
   24MOL   C55018536   4.866   0.741   7.483  0.1123 -0.2379  0.2806
   24MOL   C55118537   4.875   0.593   7.449 -0.3310  0.3781  0.3155
   24MOL   O55218538   4.892   0.516   7.574  0.1078 -0.0185 -0.1781
   24MOL   C55318539   4.989   0.782   7.560 -0.2859  0.7819 -0.4570
   24MOL   C55418540   4.977   0.930   7.613  0.3503 -0.7881  0.0303
   24MOL   C55518541   4.951   1.029   7.493 -0.5880 -0.0127 -0.3755
   24MOL   C55618542   4.933   1.178   7.537  0.3090 -0.0329  0.2190
   24MOL   O55718543   5.020   1.206   7.643  0.1459  0.4618  0.5884
   24MOL   C55818544   5.083   1.327   7.661  0.1564 -0.4149 -0.2221
   24MOL   O55918545   5.085   1.414   7.575  0.5475 -0.1948  0.7968
   24MOL   C56018546   5.137   1.336   7.797 -0.3568 -0.1766  0.4230
   24MOL   C56118547   5.198   1.455   7.845 -0.3448 -0.0656 -0.8060
   24MOL   C56218548   5.249   1.471   7.975 -0.3122  0.4679 -0.2492
   24MOL   C56318549   5.246   1.363   0.027  0.2282 -0.3179  0.0882
   24MOL   C56418550   5.292   1.378   0.165  0.1428 -0.3689  0.1795
   24MOL   O56518551   5.314   1.490   0.222 -0.1891 -0.5278 -0.2120
   24MOL   O56618552   5.285   1.262   0.228  0.2932 -0.8440  0.0106
   24MOL   C56718553   5.195   1.233   8.017 -0.1730 -0.8284  0.0609
   24MOL   C56818554   5.148   1.222   7.883  0.0316  0.2821 -0.0904
   24MOL   H56918555   4.845   1.032   7.300 -0.0704 -1.2018 -0.1882
   24MOL   H57018556   4.740   1.005   7.433 -0.1905  2.2660 -0.3193
   24MOL   H57118557   4.768   0.812   7.303  0.8403  0.8731 -1.4972
   24MOL   H57218558   4.933   0.815   7.293 -0.8141 -0.7453 -1.4073
   24MOL   H57318559   4.778   0.748   7.547  0.3704  0.3609  0.5782
   24MOL   H57418560   4.787   0.564   7.391  0.8649 -1.7310 -0.4996
   24MOL   H57518561   4.960   0.583   7.381 -0.5304 -1.8663  0.3525
   24MOL   H57618562   4.985   0.715   7.647 -2.1874 -0.5927 -1.5611
   24MOL   H57718563   5.079   0.770   7.501 -1.4431 -1.0962 -1.9150
   24MOL   H57818564   5.072   0.947   7.663 -0.6967 -0.1847  1.8383
   24MOL   H57918565   4.903   0.942   7.692 -1.2121 -0.8298 -1.4108
   24MOL   H58018566   5.040   1.012   7.432 -0.2554 -1.6403  0.5574
   24MOL   H58118567   4.942   1.246   7.453 -0.3287  0.6544  0.7017
   24MOL   H58218568   4.834   1.190   7.581  0.0288  1.7470 -0.8459
   24MOL   H58318569   5.196   1.545   7.785 -0.3937  1.4223  1.3665
   24MOL   H58418570   5.293   1.567   7.995 -0.7572  0.6031  0.0952
   24MOL   H58518571   5.190   1.141   0.040  0.1088 -0.7580  0.1973
   24MOL   H58618572   5.119   1.120   7.860 -1.7114  0.1521  2.4804
   24MOL   C58718573   5.061   1.164   0.786 -0.2364  0.4141 -0.0163
   24MOL   C58818574   5.055   1.238   0.650  0.5465 -0.1408  0.0691
   24MOL   C58918575   5.187   1.207   0.575 -0.3759  0.6853 -0.0115
   24MOL   C59018576   5.189   1.285   0.446 -0.2079 -0.1025  0.4388
   24MOL   O59118577   5.313   1.266   0.376 -0.1597  0.4185 -0.4328
   24MOL   C59218578   5.312   1.246   0.662  0.4690  0.6964  0.1658
   24MOL   C59318579   5.313   1.172   0.791 -0.1247  0.0872 -0.5415
   24MOL   C59418580   5.183   1.197   0.871 -0.4429 -0.7538  1.1523
   24MOL   C59518581   5.191   1.132   1.014 -0.9870 -0.2906 -0.1536
   24MOL   O59618582   5.197   0.986   1.006  0.1455 -0.6361 -0.3373
   24MOL   C59718583   5.102   0.910   1.074 -0.4011 -0.0377 -0.2906
   24MOL   O59818584   5.013   0.948   1.145  0.2179  0.0142  0.2807
   24MOL   C59918585   5.140   0.764   1.068 -0.5171 -0.7278 -0.1998
   24MOL   C60018586   5.067   0.668   1.141 -0.9246  0.3870  0.3109
   24MOL   C60118587   5.083   0.526   1.115  0.4273 -0.2199 -0.7795
   24MOL   C60218588   5.188   0.483   1.030 -0.8764  0.7996  0.0321
   24MOL   C60318589   5.215   0.338   1.011  0.2017 -0.6269  0.4013
   24MOL   O60418590   5.155   0.250   1.070  0.8393  0.4003 -0.1853
   24MOL   O60518591   5.320   0.322   0.928  0.7241  0.2558  0.3532
   24MOL   C60618592   5.270   0.581   0.960  0.1072 -0.0994 -0.6076
   24MOL   C60718593   5.245   0.719   0.981  0.6607  0.5632  0.2340
   24MOL   H60818594   4.976   1.191   0.848  0.7243  4.0444 -0.1613
   24MOL   H60918595   5.048   1.060   0.760  0.8488  0.2317  0.1207
   24MOL   H61018596   4.970   1.201   0.593  3.0215 -4.9584 -0.8030
   24MOL   H61118597   5.031   1.343   0.666 -1.6185 -0.3784 -1.4077
   24MOL   H61218598   5.205   1.103   0.549 -2.0693  0.7561 -1.6489
   24MOL   H61318599   5.098   1.265   0.389  2.2351  0.7069 -3.9945
   24MOL   H61418600   5.198   1.391   0.470  0.5150 -0.4278  1.6443
   24MOL   H61518601   5.405   1.217   0.613  0.7397 -0.1303  1.1649
   24MOL   H61618602   5.324   1.354   0.666  0.8145  0.6467  0.4689
   24MOL   H61718603   5.400   1.208   0.846 -0.7462  0.7250  0.0182
   24MOL   H61818604   5.318   1.065   0.771  1.7673  0.3738 -1.8497
   24MOL   H61918605   5.177   1.305   0.878  1.4765 -0.5093 -0.4508
   24MOL   H62018606   5.281   1.171   1.060 -0.9114 -0.8189  0.1570
   24MOL   H62118607   5.112   1.174   1.077  0.5123  0.2360  1.4055
   24MOL   H62218608   5.001   0.698   1.221 -0.7321  1.3018  0.1304
   24MOL   H62318609   5.042   0.445   1.173 -0.2572 -0.9785 -2.2775
   24MOL   H62418610   5.354   0.557   0.895  2.3828  2.2460  1.3431
   24MOL   H62518611   5.300   0.792   0.925  1.5110 -0.6103 -0.4839
   24MOL   C62618612   5.488   7.812   0.914 -0.0263  0.4697  0.4306
   24MOL   C62718613   5.406   7.940   0.925  0.4974 -0.2260  0.7935
   24MOL   C62818614   5.419   8.029   0.806  0.1735 -0.0904  0.7290
   24MOL   C62918615   5.339   0.114   0.825  0.6011  0.5217 -0.4037
   24MOL   O63018616   5.381   0.187   0.938  0.2735  0.2352  0.1132
   24MOL   C63118617   5.568   0.020   0.774  0.1589  0.8411  0.4159
   24MOL   C63218618   5.653   7.927   0.765  1.4093  0.0368  0.1376
   24MOL   C63318619   5.639   7.846   0.893  0.1983 -0.3767 -0.2391
   24MOL   C63418620   5.740   7.724   0.902 -0.1585 -0.4283  0.0441
   24MOL   O63518621   5.748   7.666   1.026  0.1673 -0.1841 -0.2130
   24MOL   C63618622   5.822   7.723   1.119  0.0361  0.3073 -0.1559
   24MOL   O63718623   5.877   7.830   1.105 -0.2395 -0.1557 -0.0962
   24MOL   C63818624   5.837   7.644   1.241 -0.0945 -0.1977  0.4444
   24MOL   C63918625   5.809   7.509   1.249  0.0196 -0.2585 -0.0080
   24MOL   C64018626   5.825   7.438   1.368 -0.4400 -0.1173  0.3917
   24MOL   C64118627   5.876   7.505   1.487  0.0897  0.2437  0.2374
   24MOL   C64218628   5.887   7.432   1.614 -0.5082 -0.0724 -0.8829
   24MOL   O64318629   5.857   7.312   1.624  0.2553  0.0740  0.7114
   24MOL   O64418630   5.926   7.500   1.726 -0.0022  0.5267 -0.2433
   24MOL   C64518631   5.894   7.643   1.479  0.4053 -0.2548 -0.0683
   24MOL   C64618632   5.872   7.712   1.360  0.9171  0.1677 -0.1407
   24MOL   H64718633   5.474   7.748   1.001 -0.8378 -0.1088 -0.1251
   24MOL   H64818634   5.444   7.764   0.827  0.9346  4.0197 -2.1561
   24MOL   H64918635   5.303   7.913   0.945  0.4343 -0.0909  0.6509
   24MOL   H65018636   5.446   7.993   1.011  1.7599  3.0989 -1.6899
   24MOL   H65118637   5.376   7.970   0.725  0.0646 -1.1432  1.5253
   24MOL   H65218638   5.354   0.168   0.731 -0.4864  0.3284 -0.6955
   24MOL   H65318639   5.233   0.092   0.836  0.2624  1.1432 -2.1536
   24MOL   H65418640   5.568   0.080   0.683  0.2682 -0.7808 -0.6649
   24MOL   H65518641   5.605   0.089   0.850 -1.4310  0.7930  1.2638
   24MOL   H65618642   5.758   7.940   0.739  1.2166 -0.1482 -0.7341
   24MOL   H65718643   5.629   7.867   0.677  1.3469  0.6398 -0.2529
   24MOL   H65818644   5.663   7.917   0.972 -1.6934  0.4516 -0.3844
   24MOL   H65918645   5.708   7.647   0.832  2.6862 -1.4399 -0.1735
   24MOL   H66018646   5.837   7.753   0.862 -1.3252  1.4189 -1.5422
   24MOL   H66118647   5.779   7.447   1.166  1.0675  0.9997 -1.3650
   24MOL   H66218648   5.808   7.331   1.370 -2.5965  0.0969 -2.7679
   24MOL   H66318649   5.928   7.694   1.568  1.2182 -0.6673 -0.1326
   24MOL   H66418650   5.881   7.819   1.366 -2.5948  0.4864  0.2298
   24MOL   C66518651   5.913   7.124   2.168  0.2119  0.0042 -0.0774
   24MOL   C66618652   5.934   7.187   2.031 -0.0204 -0.1324 -0.3272
   24MOL   C66718653   6.008   7.322   2.041 -0.0380 -0.6876  0.1689
   24MOL   C66818654   6.037   7.391   1.910  0.0137 -0.2987  0.5454
   24MOL   O66918655   5.906   7.424   1.849  0.0524 -0.0068 -0.0240
   24MOL   C67018656   5.938   7.423   2.138  0.0561  0.0992  0.6290
   24MOL   C67118657   5.911   7.358   2.268 -0.0774 -0.4104 -0.9304
   24MOL   C67218658   5.838   7.224   2.255 -0.3831  0.3935 -0.0903
   24MOL   C67318659   5.803   7.167   2.393  0.3191 -0.3184 -0.0207
   24MOL   O67418660   5.912   7.161   2.480 -0.0228  0.1358 -0.3816
   24MOL   C67518661   5.968   7.042   2.523 -0.9240  0.1922  0.3230
   24MOL   O67618662   5.921   6.930   2.508 -0.3697 -0.1798  0.4328
   24MOL   C67718663   6.095   7.064   2.596  0.3223  0.0823 -0.0029
   24MOL   C67818664   6.150   7.192   2.603 -0.3463  0.1262 -0.2572
   24MOL   C67918665   6.274   7.214   2.671 -0.1634  0.1531  0.0758
   24MOL   C68018666   6.346   7.107   2.726 -1.0551 -0.3466  0.2707
   24MOL   C68118667   6.470   7.141   2.806 -0.0985  0.1190  0.1076
   24MOL   O68218668   6.525   7.253   2.799  0.2136 -0.3298 -0.1583
   24MOL   O68318669   6.514   7.040   2.886 -0.3197 -0.0674 -0.7973
   24MOL   C68418670   6.289   6.979   2.722 -0.1138  0.1848  0.3677
   24MOL   C68518671   6.170   6.955   2.650 -0.2910  0.4147  0.2259
   24MOL   H68618672   5.852   7.035   2.155 -2.4986  1.6419  1.1258
   24MOL   H68718673   6.018   7.104   2.193  0.1058 -0.8795 -0.3527
   24MOL   H68818674   6.001   7.117   1.980  1.6877  2.7540 -2.2157
   24MOL   H68918675   5.848   7.190   1.964 -0.1122  1.0053 -0.1742
   24MOL   H69018676   6.103   7.303   2.092  0.2699  0.1516 -0.0978
   24MOL   H69118677   6.103   7.477   1.922 -1.4686  1.0991 -1.0106
   24MOL   H69218678   6.087   7.328   1.836 -1.3758  1.2471 -1.7967
   24MOL   H69318679   6.003   7.509   2.149  0.7097 -0.3984  0.6672
   24MOL   H69418680   5.847   7.470   2.101  0.4953 -1.0388 -1.9751
   24MOL   H69518681   5.858   7.425   2.336  1.1388 -0.2598 -0.1239
   24MOL   H69618682   6.012   7.342   2.304 -0.8403  0.1096  1.5631
   24MOL   H69718683   5.738   7.237   2.215 -0.7177 -0.3236  0.4859
   24MOL   H69818684   5.731   7.239   2.431 -0.4214 -0.8409 -0.4288
   24MOL   H69918685   5.754   7.069   2.392  1.2783 -0.8377  1.5362
   24MOL   H70018686   6.108   7.279   2.555 -0.8779  0.8818  1.5418
   24MOL   H70118687   6.314   7.315   2.674  1.8178 -0.6728  3.0740
   24MOL   H70218688   6.332   6.892   2.769 -1.3534 -1.3377 -1.2138
   24MOL   H70318689   6.129   6.855   2.641 -0.7792  0.6747 -0.4494
   24MOL   C70418690   7.079   7.128   3.027  0.0285  0.2990  0.5547
   24MOL   C70518691   6.952   7.132   2.937 -0.0174 -0.2881 -0.1723
   24MOL   C70618692   6.880   6.996   2.946  0.0698  0.7154 -0.2377
   24MOL   C70718693   6.746   6.989   2.873 -0.0023  0.2645  0.2939
   24MOL   O70818694   6.655   7.069   2.947  0.2450  0.4804 -0.1713
   24MOL   C70918695   6.974   6.888   2.896  0.0056  0.5616  0.1898
   24MOL   C71018696   7.089   6.867   2.983 -0.5845 -0.2113  0.2622
   24MOL   C71118697   7.164   6.999   2.999  0.7336 -0.0702 -0.3915
   24MOL   C71218698   7.271   6.986   3.105 -0.0073 -0.3817  0.5232
   24MOL   O71318699   7.377   6.893   3.070 -0.0266  0.0963  0.6517
   24MOL   C71418700   7.398   6.776   3.130  0.6728  0.9851 -0.5384
   24MOL   O71518701   7.322   6.719   3.208  0.5799 -0.1592 -0.2180
   24MOL   C71618702   7.526   6.719   3.088 -0.0452  0.4501  0.4475
   24MOL   C71718703   7.630   6.793   3.038  0.1336  0.6196  0.4085
   24MOL   C71818704   7.750   6.726   3.017  0.3518  0.4964  0.2804
   24MOL   C71918705   7.772   6.592   3.048  0.8985  0.1288 -0.0129
   24MOL   C72018706   7.905   6.530   3.036  1.2910 -0.7333 -0.5628
   24MOL   O72118707   8.003   6.582   2.978 -0.9699 -0.0149  0.0173
   24MOL   O72218708   7.908   6.393   3.066  0.3026 -0.3107 -0.6852
   24MOL   C72318709   7.658   6.519   3.093  0.2519 -0.6027  0.4530
   24MOL   C72418710   7.533   6.587   3.116  0.0952  0.8177 -1.0048
   24MOL   H72518711   7.136   7.216   2.999 -4.1273  1.8479 -3.6513
   24MOL   H72618712   7.065   7.133   3.135  0.4401 -0.7515  0.6593
   24MOL   H72718713   6.896   7.215   2.980 -0.6679 -0.4058 -0.7755
   24MOL   H72818714   6.964   7.163   2.833  0.4599  1.1856  0.3104
   24MOL   H72918715   6.856   6.981   3.051  1.3308  0.4889  0.0290
   24MOL   H73018716   6.763   7.027   2.772 -0.3490 -0.5969 -0.0937
   24MOL   H73118717   6.715   6.885   2.862  2.4644 -0.3842 -1.1636
   24MOL   H73218718   6.917   6.795   2.894  1.7027 -0.4666 -0.4477
   24MOL   H73318719   7.014   6.909   2.797 -0.5820 -3.7348 -1.0467
   24MOL   H73418720   7.152   6.784   2.948  0.5731  0.4330  0.7931
   24MOL   H73518721   7.046   6.846   3.081  1.1308  0.3494  1.1527
   24MOL   H73618722   7.211   7.013   2.902  1.1370 -0.6806 -0.2838
   24MOL   H73718723   7.318   7.085   3.109 -0.8523 -0.0527  3.5423
   24MOL   H73818724   7.233   6.971   3.206 -0.4342  1.1367  0.6103
   24MOL   H73918725   7.614   6.898   3.017 -1.2550  0.5110  0.8807
   24MOL   H74018726   7.834   6.782   2.978  1.3515 -1.5802 -0.6077
   24MOL   H74118727   7.664   6.413   3.115 -1.7074 -0.4674  1.7737
   24MOL   H74218728   7.461   6.525   3.166  0.1465  0.8137 -0.9346
   24MOL   C74318729   0.467   6.247   3.091 -0.0045  0.7450 -0.6992
   24MOL   C74418730   0.318   6.234   3.134 -0.0698  0.4689 -0.0752
   24MOL   C74518731   0.229   6.301   3.038  0.6234  0.5775 -0.0946
   24MOL   C74618732   0.086   6.297   3.100 -0.3939 -0.7534 -0.0642
   24MOL   O74718733   8.027   6.329   3.001 -0.1134 -0.4830 -0.7188
   24MOL   C74818734   0.272   6.449   3.014 -0.1130 -0.7243 -0.1930
   24MOL   C74918735   0.413   6.469   2.981  0.3148 -0.2487 -1.1471
   24MOL   C75018736   0.515   6.393   3.083  0.4470  0.0355  0.2618
   24MOL   C75118737   0.658   6.403   3.035  0.2138 -0.0603  0.1808
   24MOL   O75218738   0.745   6.345   3.130  0.0742  0.2504 -0.4011
   24MOL   C75318739   0.872   6.394   3.145  0.5760  0.4394  0.6065
   24MOL   O75418740   0.910   6.505   3.096 -0.3336  0.8434  0.3314
   24MOL   C75518741   0.951   6.302   3.230 -0.0240  0.1194 -0.8487
   24MOL   C75618742   1.049   6.354   3.315 -0.1873  0.2737 -0.3433
   24MOL   C75718743   1.122   6.268   3.398 -0.9270  0.0247 -0.5647
   24MOL   C75818744   1.094   6.128   3.397  0.8499  0.4276  0.2765
   24MOL   C75918745   1.170   6.023   3.478  1.0347  0.4983 -0.1282
   24MOL   O76018746   1.146   5.905   3.480  0.3160  0.2183  0.3381
   24MOL   O76118747   1.269   6.072   3.551  0.1079  0.0305 -0.1298
   24MOL   C76218748   0.985   6.076   3.316 -0.3225 -0.1244 -0.7129
   24MOL   C76318749   0.924   6.164   3.228 -0.1777 -0.7516  0.1023
   24MOL   H76418750   0.527   6.190   3.162 -2.9724 -0.1304  1.2394
   24MOL   H76518751   0.481   6.191   2.999 -0.1570 -0.1887 -0.1743
   24MOL   H76618752   0.285   6.130   3.138 -1.9425  1.1452  3.0425
   24MOL   H76718753   0.311   6.268   3.237  1.2372  1.6375 -0.3549
   24MOL   H76818754   0.229   6.249   2.942  0.5249  1.6640 -0.7029
   24MOL   H76918755   0.082   6.195   3.139  1.4624 -0.3772  1.2205
   24MOL   H77018756   0.079   6.364   3.186  2.0692  0.7273 -0.9590
   24MOL   H77118757   0.212   6.484   2.930 -1.3091  0.2889  1.0687
   24MOL   H77218758   0.235   6.500   3.103  0.9034 -1.0856  0.4512
   24MOL   H77318759   0.441   6.573   2.968 -0.1965 -0.3324 -3.2475
   24MOL   H77418760   0.427   6.422   2.883 -1.7962 -1.1088 -1.0644
   24MOL   H77518761   0.511   6.441   3.181 -0.6017  1.5226 -0.5072
   24MOL   H77618762   0.673   6.360   2.936  1.5039  1.6839 -0.3844
   24MOL   H77718763   0.689   6.507   3.026 -1.0544  0.3532  0.4387
   24MOL   H77818764   1.063   6.461   3.312 -1.9230  0.6589  2.7280
   24MOL   H77918765   1.201   6.299   3.465 -1.6148 -1.5634  1.0274
   24MOL   H78018766   0.945   5.976   3.319  0.3936 -0.4313 -1.4714
   24MOL   H78118767   0.844   6.131   3.164 -1.0064  0.2477  0.6056
   24MOL   H78218768   1.318   5.998   3.584 -0.0490 -0.1689 -0.3404
   25MOL     C118769   3.603   4.911   0.621 -0.2955  0.9698  0.4430
   25MOL     C218770   3.749   4.870   0.650 -0.5243  0.6606 -1.1142
   25MOL     C318771   3.859   4.975   0.607  0.5152  0.1713 -0.4356
   25MOL     C418772   3.983   4.890   0.628 -0.0472  0.6210  0.2223
   25MOL     O518773   4.030   4.913   0.759 -0.6290  0.5311 -0.2881
   25MOL     C618774   3.840   5.018   0.466  0.0063 -0.3411  0.0196
   25MOL     C718775   3.694   5.070   0.446 -0.1271  0.1692  0.6821
   25MOL     C818776   3.586   4.962   0.481  0.0932 -0.0593  0.0880
   25MOL     C918777   3.440   5.012   0.442 -0.8246 -0.6404  0.3187
   25MOL    O1018778   3.397   5.122   0.517 -0.3115 -0.5368 -0.4244
   25MOL    C1118779   3.274   5.119   0.581 -0.4807 -0.7260 -0.0303
   25MOL    O1218780   3.204   5.020   0.602  0.4055  0.0223  0.5970
   25MOL    C1318781   3.228   5.249   0.630 -0.0756  0.1824 -0.0893
   25MOL    C1418782   3.294   5.371   0.579  0.1801  0.2163  0.2142
   25MOL    C1518783   3.240   5.499   0.609  0.3657  0.1789 -0.6025
   25MOL    C1618784   3.132   5.505   0.700 -0.4392  0.0820  0.4318
   25MOL    C1718785   3.086   5.643   0.739 -0.3311 -0.0147 -0.8164
   25MOL    O1818786   2.970   5.671   0.783 -0.0170  0.7538  0.3005
   25MOL    O1918787   3.180   5.740   0.723  0.7157 -0.6917 -0.8085
   25MOL    C2018788   3.059   5.395   0.738 -0.1559 -0.0973  0.0910
   25MOL    C2118789   3.115   5.266   0.713  0.2193 -0.9865  0.0771
   25MOL    H2218790   3.539   4.824   0.634  1.8984 -0.7078  0.3339
   25MOL    H2318791   3.570   4.988   0.690 -1.1062  0.4517  0.6403
   25MOL    H2418792   3.766   4.857   0.757 -0.2213 -0.0160 -1.2448
   25MOL    H2518793   3.767   4.774   0.603  0.4533 -0.7716  2.0665
   25MOL    H2618794   3.857   5.059   0.676  0.7591 -1.6559  1.8740
   25MOL    H2718795   3.979   4.784   0.600 -0.8519  0.9152 -0.8317
   25MOL    H2818796   4.065   4.919   0.562 -0.7992 -0.8650 -1.4250
   25MOL    H2918797   3.907   5.090   0.419 -1.4130 -1.1464 -3.4028
   25MOL    H3018798   3.847   4.937   0.393 -2.5109 -0.3793 -0.2099
   25MOL    H3118799   3.683   5.091   0.340  0.5434 -1.8525  0.1929
   25MOL    H3218800   3.666   5.167   0.487  0.9867  0.4041  0.9087
   25MOL    H3318801   3.605   4.885   0.405  0.8853  2.0465 -1.9073
   25MOL    H3418802   3.441   5.062   0.345  0.0389 -1.0614  0.1055
   25MOL    H3518803   3.364   4.934   0.433 -2.0892  0.3418  2.2902
   25MOL    H3618804   3.363   5.355   0.498  0.1224 -4.7533  0.9294
   25MOL    H3718805   3.287   5.579   0.554 -0.5198  0.5846 -0.7919
   25MOL    H3818806   2.972   5.393   0.802  0.7503 -1.6385  1.3262
   25MOL    H3918807   3.062   5.179   0.750 -2.2604 -0.0400 -1.1357
   25MOL    H4018808   3.975   4.870   0.822 -0.3490 -3.3709 -2.5714
   25MOL    C4118809   3.287   6.250   1.058 -0.6332  0.4640  0.4398
   25MOL    C4218810   3.309   6.109   1.017  0.5979  0.0727  0.3688
   25MOL    C4318811   3.189   6.050   0.936  0.2344 -0.1281 -0.3204
   25MOL    C4418812   3.209   5.907   0.897 -0.0647 -0.6604  0.4441
   25MOL    O4518813   3.134   5.872   0.781  0.3878 -0.2676 -0.4000
   25MOL    C4618814   3.056   6.067   1.016  0.1757 -0.1311  0.3409
   25MOL    C4718815   3.035   6.213   1.061 -1.0203  0.5827  0.0550
   25MOL    C4818816   3.156   6.267   1.141  0.1582  0.3534 -0.0920
   25MOL    C4918817   3.131   6.417   1.165 -0.0558 -0.2280 -0.2565
   25MOL    O5018818   3.203   6.481   1.265 -0.1993  0.1901 -0.5137
   25MOL    C5118819   3.312   6.557   1.233 -0.1843  0.5135  0.8989
   25MOL    O5218820   3.363   6.559   1.116 -0.1022  0.1606  0.3066
   25MOL    C5318821   3.370   6.622   1.354 -0.5254 -0.0189  0.5706
   25MOL    C5418822   3.462   6.720   1.329  0.0379 -0.8650 -0.0748
   25MOL    C5518823   3.494   6.810   1.428 -0.4776  0.1214 -0.0396
   25MOL    C5618824   3.441   6.787   1.561 -0.3065 -0.4777  0.9278
   25MOL    C5718825   3.493   6.878   1.669 -0.6884  0.3993 -0.1632
   25MOL    O5818826   3.473   6.855   1.790 -0.2482 -0.2887  0.1272
   25MOL    O5918827   3.566   6.986   1.626  0.2368  0.3162 -0.1235
   25MOL    C6018828   3.357   6.681   1.594  0.6102 -0.1688  0.1442
   25MOL    C6118829   3.312   6.605   1.483  0.6776  0.6497 -0.0422
   25MOL    H6218830   3.374   6.284   1.114  1.9983  0.0313 -3.1385
   25MOL    H6318831   3.287   6.320   0.975  2.1190  0.8958  0.7578
   25MOL    H6418832   3.402   6.109   0.960  1.2957  1.8593  1.4725
   25MOL    H6518833   3.331   6.049   1.105 -1.2236  0.7793  1.3402
   25MOL    H6618834   3.180   6.102   0.841 -0.5823 -0.2656 -0.3226
   25MOL    H6718835   3.314   5.891   0.875  0.2281 -0.7110  1.8543
   25MOL    H6818836   3.195   5.837   0.979 -0.4079 -2.4164 -1.0686
   25MOL    H6918837   2.978   6.038   0.946 -0.5842  2.4156  0.0652
   25MOL    H7018838   3.056   5.992   1.095  0.0754 -1.2716 -0.7310
   25MOL    H7118839   2.947   6.206   1.124 -0.4208  1.5995  1.0122
   25MOL    H7218840   3.019   6.271   0.970  0.7655  2.8462  1.1298
   25MOL    H7318841   3.154   6.225   1.241 -2.1239 -3.1947 -1.5631
   25MOL    H7418842   3.135   6.465   1.067 -0.1132 -1.2376 -0.7605
   25MOL    H7518843   3.028   6.437   1.194  0.2640 -0.2399  0.9090
   25MOL    H7618844   3.497   6.744   1.230  2.1859  2.5811  1.4335
   25MOL    H7718845   3.570   6.886   1.417 -0.8224  1.2004  4.0299
   25MOL    H7818846   3.319   6.677   1.695 -0.2795 -0.1920 -0.1915
   25MOL    H7918847   3.230   6.536   1.498  1.3477 -0.3517 -0.9338
   25MOL    C8018848   4.006   7.288   1.864 -0.2108  0.2080  0.5405
   25MOL    C8118849   3.915   7.210   1.764  0.7283  0.1466  0.7231
   25MOL    C8218850   3.775   7.270   1.744 -0.1552 -0.6851  0.2793
   25MOL    C8318851   3.686   7.184   1.654 -0.0338  0.2740 -0.2992
   25MOL    O8418852   3.643   7.071   1.728 -0.3612  0.6138 -0.2158
   25MOL    C8518853   3.712   7.303   1.875 -0.5085  0.1212  0.3343
   25MOL    C8618854   3.800   7.388   1.963  0.1336  0.0003 -0.3433
   25MOL    C8718855   3.930   7.320   1.993 -0.7052  0.8072  0.4143
   25MOL    C8818856   4.029   7.400   2.085 -0.3602  0.0165 -0.3690
   25MOL    O8918857   3.956   7.408   2.205 -0.6019 -0.0690 -0.1126
   25MOL    C9018858   4.023   7.420   2.318  0.0988  0.1847  0.5311
   25MOL    O9118859   4.151   7.422   2.330  0.2247  0.1944  0.2247
   25MOL    C9218860   3.926   7.448   2.425  0.3394  0.4290 -1.0732
   25MOL    C9318861   3.784   7.450   2.409  0.2452 -0.3568  0.0522
   25MOL    C9418862   3.697   7.479   2.516 -0.0062 -0.4965 -0.3913
   25MOL    C9518863   3.749   7.499   2.645 -0.5964 -0.1297 -0.2789
   25MOL    C9618864   3.666   7.529   2.762  0.0176 -0.1014 -0.0744
   25MOL    O9718865   3.694   7.503   2.877 -0.1224 -0.1315  0.7657
   25MOL    O9818866   3.555   7.605   2.732  0.0062 -0.4727 -0.2543
   25MOL    C9918867   3.887   7.482   2.664 -0.6860  0.1364 -0.8033
   25MOL   C10018868   3.977   7.470   2.552  0.1862 -0.3789 -0.0499
   25MOL   H10118869   4.100   7.236   1.885 -0.2363 -0.5734 -1.1559
   25MOL   H10218870   4.028   7.380   1.810 -1.0136  1.1589  1.8226
   25MOL   H10318871   3.959   7.185   1.668 -1.2386  1.4407 -0.5505
   25MOL   H10418872   3.894   7.108   1.795 -1.9052  0.1919 -0.7489
   25MOL   H10518873   3.779   7.363   1.688  3.2391 -1.9541 -1.7207
   25MOL   H10618874   3.602   7.244   1.618 -2.6993 -2.1666  1.6677
   25MOL   H10718875   3.734   7.151   1.563 -0.5421 -2.5658  0.4265
   25MOL   H10818876   3.620   7.359   1.861 -0.9890 -0.3456  1.5218
   25MOL   H10918877   3.677   7.215   1.929 -1.3714 -0.4604 -1.1517
   25MOL   H11018878   3.754   7.404   2.060 -0.3426  1.1220 -0.7438
   25MOL   H11118879   3.824   7.486   1.923 -0.5822 -0.8212 -2.9070
   25MOL   H11218880   3.909   7.231   2.052 -1.8978  0.8744  0.1026
   25MOL   H11318881   4.120   7.340   2.097  0.4571  0.8196 -2.4246
   25MOL   H11418882   4.057   7.499   2.048  3.0575 -0.3553  1.0732
   25MOL   H11518883   3.731   7.430   2.317 -0.8594 -0.5868  0.7371
   25MOL   H11618884   3.590   7.485   2.501 -0.3426 -1.4672  1.4134
   25MOL   H11718885   3.929   7.489   2.764 -3.4268 -0.5837  0.4610
   25MOL   H11818886   4.084   7.465   2.565  0.5984  1.4411 -2.5149
   25MOL   C11918887   3.160   7.857   3.074 -0.1214  0.3572 -0.2589
   25MOL   C12018888   3.258   7.747   3.047 -0.4776  0.0224  0.7647
   25MOL   C12118889   3.255   7.706   2.898 -0.0161 -0.5882 -0.7346
   25MOL   C12218890   3.361   7.604   2.862 -0.2066  0.1116  0.1957
   25MOL   O12318891   3.481   7.670   2.847 -0.4898 -0.5157  0.3992
   25MOL   C12418892   3.116   7.651   2.861  0.1185  0.1298 -0.3916
   25MOL   C12518893   3.014   7.760   2.892  0.0314 -0.0611 -0.6708
   25MOL   C12618894   3.020   7.800   3.048  0.0064 -0.1721  0.2265
   25MOL   C12718895   2.902   7.895   3.084 -0.3567  0.5146 -0.4808
   25MOL   O12818896   2.890   7.928   3.221 -0.7607  0.5893 -0.5269
   25MOL   C12918897   2.776   7.987   3.265 -0.5230  0.9233 -0.6097
   25MOL   O13018898   2.676   7.985   3.199 -0.6543 -0.9723  0.1939
   25MOL   C13118899   2.784   0.009   3.404 -0.2730  0.2388 -0.7614
   25MOL   C13218900   2.665   0.054   3.471 -0.2615  1.0839  1.0569
   25MOL   C13318901   2.675   0.111   3.601 -0.4003 -0.4784 -0.2676
   25MOL   C13418902   2.797   0.115   3.674  0.2448  0.2024  0.4312
   25MOL   C13518903   2.803   0.183   3.815  0.4259  0.1240  0.7932
   25MOL   O13618904   2.700   0.233   3.869 -0.4555  0.9028 -0.2447
   25MOL   O13718905   2.926   0.190   3.861 -0.0503  0.4421  0.2761
   25MOL   C13818906   2.910   0.071   3.607 -0.0240 -0.0872  0.3908
   25MOL   C13918907   2.905   0.022   3.478 -0.4106  0.2762 -0.1270
   25MOL   H14018908   3.178   7.906   3.169  1.0831  1.7361 -1.1853
   25MOL   H14118909   3.187   7.938   3.007 -0.4797 -0.7440 -1.7727
   25MOL   H14218910   3.356   7.762   3.091  0.5522 -2.7432 -0.4638
   25MOL   H14318911   3.231   7.656   3.101 -1.2019  1.5892  3.0919
   25MOL   H14418912   3.280   7.802   2.853  1.3428  0.7376  2.6689
   25MOL   H14518913   3.379   7.532   2.942 -0.8216 -1.8487 -1.4119
   25MOL   H14618914   3.327   7.545   2.777  1.0009 -0.6193  0.2057
   25MOL   H14718915   3.116   7.626   2.755 -0.4595  1.7295 -0.7842
   25MOL   H14818916   3.089   7.557   2.909 -1.9112  0.7730 -0.1962
   25MOL   H14918917   2.925   7.708   2.855 -0.2515 -0.2567  0.2636
   25MOL   H15018918   3.029   7.843   2.823  0.7363  1.3170  1.1164
   25MOL   H15118919   3.003   7.709   3.105 -0.7418 -0.0542  0.1926
   25MOL   H15218920   2.910   7.987   3.025  2.4159  0.5737 -0.1012
   25MOL   H15318921   2.810   7.848   3.050 -1.0134  2.1646 -1.0406
   25MOL   H15418922   2.567   0.054   3.425 -0.1086  0.7792  0.7313
   25MOL   H15518923   2.583   0.151   3.641 -0.7374  0.8293 -2.3076
   25MOL   H15618924   3.007   0.068   3.653  0.5826  0.3430 -0.8422
   25MOL   H15718925   2.993   8.024   3.425 -0.8917  0.0573 -0.8054
   25MOL   C15818926   2.726   0.382   4.327  0.4781  0.2743 -0.9497
   25MOL   C15918927   2.759   0.359   4.183  0.1883 -0.5340  0.2915
   25MOL   C16018928   2.902   0.414   4.159  0.3591 -0.1502  0.4491
   25MOL   C16118929   2.933   0.375   4.013  0.4501 -0.3638 -0.1277
   25MOL   O16218930   2.932   0.236   4.001 -0.0286 -0.1153  0.2842
   25MOL   C16318931   2.905   0.562   4.197 -0.7467  0.1978 -0.4556
   25MOL   C16418932   2.860   0.593   4.336 -0.0059  0.2971  0.4372
   25MOL   C16518933   2.722   0.534   4.357  0.5238 -0.6327 -0.1177
   25MOL   C16618934   2.662   0.557   4.493 -0.1057  0.0538  0.0056
   25MOL   O16718935   2.614   0.693   4.524 -0.5213 -0.2075  0.2485
   25MOL   C16818936   2.494   0.713   4.588  0.6074 -0.1279  0.9993
   25MOL   O16918937   2.424   0.625   4.643  0.2077  0.2019 -0.0536
   25MOL   C17018938   2.461   0.858   4.598  0.7365  0.3031  0.6545
   25MOL   C17118939   2.500   0.946   4.491  0.0125 -0.0278  0.2673
   25MOL   C17218940   2.475   1.086   4.495  0.9870  0.8683 -0.1997
   25MOL   C17318941   2.398   1.136   4.602 -0.3130  0.0991  0.5647
   25MOL   C17418942   2.339   1.274   4.618  0.2713  0.2688 -0.0830
   25MOL   O17518943   2.256   1.316   4.702 -0.1825 -0.3706 -0.1765
   25MOL   O17618944   2.372   1.352   4.511  0.2431 -0.4388 -0.1449
   25MOL   C17718945   2.356   1.041   4.707  0.3734  0.7180  0.4803
   25MOL   C17818946   2.393   0.905   4.713 -0.0883 -0.3513 -0.2861
   25MOL   H17918947   2.626   0.344   4.347 -0.0529  1.9728 -0.3564
   25MOL   H18018948   2.786   0.323   4.397 -1.1296  0.1488  0.3291
   25MOL   H18118949   2.742   0.260   4.143  1.2293  0.4322 -2.7036
   25MOL   H18218950   2.685   0.416   4.126  0.4139 -0.0669  0.4622
   25MOL   H18318951   2.979   0.354   4.207  1.7464  0.4871 -0.9033
   25MOL   H18418952   2.858   0.411   3.943 -0.1268 -0.5317  0.4010
   25MOL   H18518953   3.031   0.417   3.989 -0.6220  1.9430 -0.5708
   25MOL   H18618954   3.002   0.607   4.176 -0.1023 -0.6629  0.6067
   25MOL   H18718955   2.844   0.623   4.131 -2.2191  0.0222  0.7198
   25MOL   H18818956   2.856   0.700   4.355 -1.9836  0.3736 -0.3864
   25MOL   H18918957   2.939   0.561   4.405  0.9824 -2.8658 -2.0302
   25MOL   H19018958   2.651   0.580   4.288  0.3930  1.1113  1.1523
   25MOL   H19118959   2.570   0.499   4.504  0.7425 -0.8356  2.7489
   25MOL   H19218960   2.738   0.524   4.563  1.7346  0.3403 -1.8272
   25MOL   H19318961   2.546   0.902   4.404 -0.3938 -0.5080  0.2960
   25MOL   H19418962   2.512   1.148   4.414  0.2226 -0.8268 -1.8742
   25MOL   H19518963   2.288   1.070   4.785 -1.6623  1.1406 -1.4184
   25MOL   H19618964   2.376   0.839   4.796  0.2477  0.5405  0.4940
   25MOL   C19718965   1.950   1.741   4.584  0.1469 -0.6544 -0.3956
   25MOL   C19818966   2.061   1.633   4.617  0.6847  0.0646 -0.1069
   25MOL   C19918967   2.192   1.679   4.548  0.3881  0.7600 -0.1818
   25MOL   C20018968   2.304   1.573   4.558  0.3824  1.0191  0.6778
   25MOL   O20118969   2.267   1.454   4.492  0.7000  0.3810 -0.3078
   25MOL   C20218970   2.174   1.727   4.396  0.0110 -0.4289 -0.4135
   25MOL   C20318971   2.054   1.814   4.364 -0.2201  0.2468 -0.3877
   25MOL   C20418972   1.923   1.758   4.429 -0.8647  0.7294 -0.3182
   25MOL   C20518973   1.797   1.844   4.397  0.4241 -0.0496 -0.1592
   25MOL   O20618974   1.827   1.970   4.450 -0.0085  0.4451  0.5141
   25MOL   C20718975   1.743   2.071   4.456 -0.3657  0.1623  0.4724
   25MOL   O20818976   1.628   2.059   4.423 -0.2759  0.0238  0.0281
   25MOL   C20918977   1.804   2.207   4.482 -0.1546  0.6203  0.4596
   25MOL   C21018978   1.726   2.320   4.450  0.5422  0.1932 -0.0943
   25MOL   C21118979   1.779   2.449   4.461 -0.0717 -0.1015 -0.0516
   25MOL   C21218980   1.904   2.467   4.520  0.4299 -0.4201 -0.4991
   25MOL   C21318981   1.952   2.613   4.540 -0.2521  0.9340  0.6796
   25MOL   O21418982   1.883   2.717   4.535  0.4149 -0.0004 -0.0310
   25MOL   O21518983   2.078   2.618   4.574 -0.2921 -0.5327  0.2527
   25MOL   C21618984   1.981   2.350   4.557 -0.4348  0.0063 -0.3529
   25MOL   C21718985   1.927   2.223   4.533 -0.2775 -0.3849 -0.5496
   25MOL   H21818986   1.855   1.711   4.628 -0.2949  1.0322 -0.1390
   25MOL   H21918987   1.970   1.838   4.629  1.0643 -0.6215 -0.8756
   25MOL   H22018988   2.070   1.620   4.725 -0.2454 -0.6667 -0.1060
   25MOL   H22118989   2.015   1.544   4.575 -0.1343 -0.0714  1.0614
   25MOL   H22218990   2.226   1.763   4.608  3.9453  0.8399 -2.1870
   25MOL   H22318991   2.394   1.615   4.513  0.9640 -0.0503  0.8197
   25MOL   H22418992   2.337   1.563   4.662  0.5998  1.7747  0.6881
   25MOL   H22518993   2.262   1.783   4.364  0.6290 -1.2471 -0.1622
   25MOL   H22618994   2.165   1.636   4.338 -0.2838 -0.5277 -0.2116
   25MOL   H22718995   2.044   1.814   4.255  2.2644  1.2458 -0.6373
   25MOL   H22818996   2.070   1.915   4.401 -2.3272 -0.1686  1.7483
   25MOL   H22918997   1.902   1.658   4.391 -0.4658  0.0999  1.0684
   25MOL   H23018998   1.776   1.859   4.291 -1.3814  1.0184  0.3216
   25MOL   H23118999   1.710   1.803   4.448  0.1700  0.1408 -0.4394
   25MOL   H23219000   1.624   2.313   4.415  0.8108 -2.5409 -0.4350
   25MOL   H23319001   1.721   2.531   4.423 -0.3701  0.1235  0.8782
   25MOL   H23419002   2.077   2.367   4.604  0.3887 -0.4833 -1.8355
   25MOL   H23519003   1.979   2.132   4.558  0.1387 -0.1052 -0.4003
   25MOL   C23619004   2.366   2.876   5.073 -0.1730 -0.3650  0.4806
   25MOL   C23719005   2.323   2.776   4.966 -0.4582 -0.1617 -1.0174
   25MOL   C23819006   2.232   2.825   4.855 -0.1570  0.3877  0.5737
   25MOL   C23919007   2.196   2.708   4.760 -0.5915  0.4038  0.1067
   25MOL   O24019008   2.111   2.748   4.657 -0.1263  0.3517  0.3864
   25MOL   C24119009   2.109   2.905   4.913 -0.3369  0.9636 -0.3632
   25MOL   C24219010   2.153   3.005   5.016 -0.6777  0.3633 -1.0420
   25MOL   C24319011   2.247   2.945   5.130  0.3244  0.1978  0.3905
   25MOL   C24419012   2.270   3.050   5.239  0.0668 -0.3262  1.4299
   25MOL   O24519013   2.148   3.069   5.306 -0.0269 -0.1858  0.1523
   25MOL   C24619014   2.141   3.118   5.430 -0.0021  0.4347 -0.2546
   25MOL   O24719015   2.243   3.150   5.494  0.1016 -0.1612 -0.4409
   25MOL   C24819016   2.000   3.125   5.484  0.3125 -0.6159  0.8295
   25MOL   C24919017   1.929   3.003   5.477 -0.6179  0.2550 -0.7321
   25MOL   C25019018   1.793   2.997   5.517 -0.6167  0.1374  0.5550
   25MOL   C25119019   1.727   3.121   5.558 -0.2219 -0.3610 -0.1299
   25MOL   C25219020   1.582   3.116   5.589  0.1034 -0.1517  0.4595
   25MOL   O25319021   1.505   3.198   5.557  0.3163 -0.0298  0.3265
   25MOL   O25419022   1.548   3.013   5.673 -0.3953 -0.3385 -0.1050
   25MOL   C25519023   1.804   3.237   5.567  0.1886  0.2624 -0.0866
   25MOL   C25619024   1.942   3.240   5.538  0.8725 -0.0140 -0.1731
   25MOL   H25719025   2.417   2.817   5.149 -0.9061 -0.1118  1.1807
   25MOL   H25819026   2.447   2.940   5.038 -1.3475  1.1220  0.4178
   25MOL   H25919027   2.410   2.725   4.924  0.9574  0.3824  1.1409
   25MOL   H26019028   2.260   2.701   5.015 -3.7633  1.7883 -2.1036
   25MOL   H26119029   2.288   2.900   4.799 -1.5913  1.2720  0.2898
   25MOL   H26219030   2.288   2.661   4.724 -1.3084 -0.9653  0.0282
   25MOL   H26319031   2.144   2.629   4.813 -1.6411  0.1324 -1.2933
   25MOL   H26419032   2.055   2.965   4.840  0.0354 -0.1795 -1.5992
   25MOL   H26519033   2.039   2.831   4.953 -1.2431  1.6711 -0.6315
   25MOL   H26619034   2.066   3.054   5.059 -0.7765 -0.0826 -0.7305
   25MOL   H26719035   2.205   3.083   4.961 -0.4651  0.6783 -0.4051
   25MOL   H26819036   2.197   2.858   5.173 -0.5080  0.9165  0.9023
   25MOL   H26919037   2.358   3.022   5.297  0.5517  0.4680  1.0992
   25MOL   H27019038   2.291   3.147   5.193  2.0109 -0.0243  2.8967
   25MOL   H27119039   1.963   2.920   5.417  3.8908  2.9461 -2.1424
   25MOL   H27219040   1.733   2.913   5.485  1.8200 -1.1571 -0.7660
   25MOL   H27319041   1.757   3.324   5.609 -0.1915  1.2314 -2.4632
   25MOL   H27419042   1.995   3.331   5.557 -3.4460  2.3403  1.3146
   25MOL   C27519043   1.036   3.221   5.722 -0.3024 -0.1176 -0.2023
   25MOL   C27619044   1.139   3.111   5.763 -0.2093 -0.0404  0.0926
   25MOL   C27719045   1.218   3.069   5.641 -0.2366  0.5181 -0.5134
   25MOL   C27819046   1.318   2.962   5.672  0.2339  0.0781 -0.3454
   25MOL   O27919047   1.419   3.036   5.740  0.3374 -0.0407  0.1399
   25MOL   C28019048   1.129   3.016   5.534 -0.7411  0.1503 -0.6117
   25MOL   C28119049   1.033   3.128   5.484  0.6952  0.0540  0.1657
   25MOL   C28219050   0.946   3.175   5.601 -0.0309 -0.5208 -0.6179
   25MOL   C28319051   0.846   3.275   5.569 -0.1922  0.2087  0.0050
   25MOL   O28419052   0.740   3.272   5.658 -0.3428 -0.4171  0.5448
   25MOL   C28519053   0.633   3.351   5.636 -0.4215 -0.8260 -0.1760
   25MOL   O28619054   0.641   3.444   5.548 -0.0774  0.0269  0.2655
   25MOL   C28719055   0.524   3.324   5.727  0.2331 -0.1257 -0.7015
   25MOL   C28819056   0.528   3.218   5.825 -0.0628  0.6147  0.7507
   25MOL   C28919057   0.414   3.182   5.895  0.1121  0.3156  0.3240
   25MOL   C29019058   0.297   3.264   5.882 -0.1621  0.0489 -0.7079
   25MOL   C29119059   0.174   3.226   5.957 -0.8103  0.5269 -0.2345
   25MOL   O29219060   0.070   3.287   5.933  0.2204 -0.0175 -0.1239
   25MOL   O29319061   0.192   3.144   6.067 -0.2144 -0.0675 -0.0322
   25MOL   C29419062   0.292   3.373   5.793 -0.5059 -0.0274 -0.2549
   25MOL   C29519063   0.407   3.404   5.716  0.2465  0.8339  0.0175
   25MOL   H29619064   0.981   3.242   5.814  0.5763  2.9204 -0.2968
   25MOL   H29719065   1.093   3.311   5.698  0.1923  0.6155  3.4336
   25MOL   H29819066   1.205   3.141   5.845  0.5898  1.1172 -0.9524
   25MOL   H29919067   1.093   3.019   5.799 -0.5925  1.1229  2.7366
   25MOL   H30019068   1.275   3.146   5.589 -1.4524  0.4960 -1.9311
   25MOL   H30119069   1.278   2.911   5.760 -1.6350  3.2291  0.7285
   25MOL   H30219070   1.364   2.898   5.597 -0.4083 -0.6329 -0.1389
   25MOL   H30319071   1.188   2.972   5.453 -0.8470  0.8680 -1.0770
   25MOL   H30419072   1.069   2.935   5.575 -0.7724  0.2347 -0.4910
   25MOL   H30519073   0.975   3.082   5.405 -1.6917  2.0731  0.6873
   25MOL   H30619074   1.086   3.213   5.442  2.2502 -0.8821  0.1855
   25MOL   H30719075   0.894   3.086   5.637 -1.1886 -0.1878 -1.4221
   25MOL   H30819076   0.901   3.369   5.571  1.0566 -0.5249  0.8341
   25MOL   H30919077   0.801   3.260   5.471  1.1906 -1.3083 -0.4312
   25MOL   H31019078   0.623   3.170   5.844 -1.5953 -2.8147  0.1949
   25MOL   H31119079   0.426   3.097   5.961 -0.3048  0.5976  0.7594
   25MOL   H31219080   0.205   3.438   5.792  0.6659  1.6897  2.3260
   25MOL   H31319081   0.417   3.482   5.642 -0.0252  1.4929  0.6631
   25MOL   C31419082   0.225   2.658   6.259  0.1426  0.0555  0.1942
   25MOL   C31519083   0.107   2.743   6.209 -0.3594 -0.3679  0.1790
   25MOL   C31619084   0.140   2.899   6.207 -0.4534  0.4913  0.4357
   25MOL   C31719085   0.028   2.987   6.155 -0.1553  0.1916  0.8505
   25MOL   O31819086   0.067   3.127   6.153 -0.2820 -0.1539 -0.1224
   25MOL   C31919087   0.181   2.939   6.348 -0.6751 -0.4097  0.5719
   25MOL   C32019088   0.289   2.843   6.408  0.0465  0.0454  0.0191
   25MOL   C32119089   0.262   2.699   6.402  0.3309 -0.3546  0.6095
   25MOL   C32219090   0.380   2.611   6.447  0.2350 -0.3661 -0.0038
   25MOL   O32319091   0.489   2.626   6.356 -0.1962  0.0863 -0.6605
   25MOL   C32419092   0.591   2.542   6.376  0.1369 -0.3706  0.2220
   25MOL   O32519093   0.600   2.457   6.463 -0.5158 -0.4763 -0.1074
   25MOL   C32619094   0.680   2.561   6.260 -0.0341 -0.2174  0.3273
   25MOL   C32719095   0.774   2.458   6.228 -0.2939  0.3069  0.3414
   25MOL   C32819096   0.865   2.460   6.118  0.0481 -0.4480 -0.2373
   25MOL   C32919097   0.860   2.572   6.034 -0.4850 -0.3584  0.0321
   25MOL   C33019098   0.930   2.573   5.905  0.0540  0.6941  0.2579
   25MOL   O33119099   0.914   2.667   5.826  0.0769  0.1723  0.2664
   25MOL   O33219100   1.010   2.467   5.878 -0.3019 -0.0921  1.1885
   25MOL   C33319101   0.780   2.683   6.077  0.0973  0.6453  1.3414
   25MOL   C33419102   0.688   2.685   6.184  0.1705  0.3963  0.4428
   25MOL   H33519103   0.206   2.550   6.257  1.3658 -0.1987  1.4192
   25MOL   H33619104   0.304   2.683   6.189 -0.3510  1.5872  0.1734
   25MOL   H33719105   0.094   2.704   6.108 -1.9179 -0.0459  0.2434
   25MOL   H33819106   0.015   2.728   6.266  0.7875 -0.8120  1.9702
   25MOL   H33919107   0.225   2.922   6.143 -0.8226  1.0205  0.1387
   25MOL   H34019108   8.021   2.960   6.058  2.7351 -0.4758 -0.2853
   25MOL   H34119109   7.980   2.970   6.223  0.8904 -1.8349  1.6727
   25MOL   H34219110   0.214   3.041   6.365  0.5694 -0.4044 -1.7174
   25MOL   H34319111   0.092   2.924   6.410  0.3509 -0.2827  2.1139
   25MOL   H34419112   0.305   2.881   6.509 -0.2604 -0.1027  0.1212
   25MOL   H34519113   0.381   2.868   6.355  0.2431 -2.1943 -0.7419
   25MOL   H34619114   0.178   2.677   6.468 -0.4357  0.3571 -0.1075
   25MOL   H34719115   0.419   2.635   6.546  1.4281 -1.7995 -0.1076
   25MOL   H34819116   0.346   2.507   6.445  2.0218 -0.9288 -1.9266
   25MOL   H34919117   0.775   2.366   6.284  0.4034 -0.5414 -1.0359
   25MOL   H35019118   0.935   2.380   6.101  0.6104 -0.6683  2.9223
   25MOL   H35119119   0.778   2.763   6.004  1.5550 -0.5115 -0.0120
   25MOL   H35219120   0.624   2.768   6.209  0.1017  0.9495 -1.4817
   25MOL   C35319121   1.342   2.409   5.622  0.2079  0.4665 -0.0870
   25MOL   C35419122   1.242   2.305   5.574  0.5056 -0.3267 -0.6859
   25MOL   C35519123   1.104   2.367   5.540  0.1844  0.1478 -0.5756
   25MOL   C35619124   1.019   2.385   5.662  0.0187  0.7731  0.2119
   25MOL   O35719125   1.075   2.481   5.747 -0.0242 -0.2812  0.0882
   25MOL   C35819126   1.116   2.489   5.444 -0.2627  0.1040 -0.0187
   25MOL   C35919127   1.212   2.600   5.501 -0.0571  0.0559 -0.6031
   25MOL   C36019128   1.350   2.538   5.532  0.8030 -0.6173 -0.7023
   25MOL   C36119129   1.439   2.504   5.410 -0.1888 -0.1950  0.3714
   25MOL   O36219130   1.454   2.635   5.350  0.0088 -0.3835 -0.2553
   25MOL   C36319131   1.558   2.666   5.266 -0.0253 -0.0013 -0.0561
   25MOL   O36419132   1.632   2.582   5.215 -0.3126 -0.2245 -0.0015
   25MOL   C36519133   1.579   2.814   5.245 -0.1948  0.2960  0.6208
   25MOL   C36619134   1.684   2.861   5.161 -0.8886 -0.4556  0.4665
   25MOL   C36719135   1.691   2.999   5.126 -0.0955  1.2976  0.4460
   25MOL   C36819136   1.606   3.095   5.181 -0.4803  0.2851  0.0805
   25MOL   C36919137   1.637   3.238   5.158  0.1411  0.5364 -0.8289
   25MOL   O37019138   1.671   3.288   5.049  0.1108  0.0677  0.3081
   25MOL   O37119139   1.637   3.309   5.271 -0.5759 -0.3580  0.1545
   25MOL   C37219140   1.498   3.044   5.265  0.4792  0.2587  0.4173
   25MOL   C37319141   1.487   2.908   5.296 -0.3473 -0.0882 -0.1091
   25MOL   H37419142   1.317   2.437   5.724 -1.2915  3.2179 -1.1472
   25MOL   H37519143   1.445   2.375   5.634  0.5474  0.3705 -2.8137
   25MOL   H37619144   1.292   2.255   5.491 -0.6259 -0.5450 -1.2444
   25MOL   H37719145   1.230   2.225   5.647 -2.8159  0.9968  0.3173
   25MOL   H37819146   1.042   2.298   5.484 -1.3957 -0.9303  2.4424
   25MOL   H37919147   0.919   2.418   5.637  0.3345  2.1725  0.7674
   25MOL   H38019148   1.005   2.285   5.704 -1.5496  1.0221  0.3062
   25MOL   H38119149   1.164   2.459   5.351 -2.6542 -0.2608 -1.1423
   25MOL   H38219150   1.020   2.530   5.415 -0.8779 -0.0387  1.7874
   25MOL   H38319151   1.157   2.652   5.580 -0.8781 -1.2356 -0.3014
   25MOL   H38419152   1.225   2.678   5.427 -1.3329 -0.2656 -1.1824
   25MOL   H38519153   1.408   2.602   5.599  0.7447 -0.4941 -0.7705
   25MOL   H38619154   1.531   2.451   5.434 -0.9095 -1.9557 -0.6306
   25MOL   H38719155   1.388   2.445   5.334  0.5978 -1.5941  0.9188
   25MOL   H38819156   1.756   2.792   5.120  0.0809  0.9744 -0.2876
   25MOL   H38919157   1.772   3.030   5.061  1.0469  0.2689  1.3533
   25MOL   H39019158   1.424   3.116   5.296  1.3427  1.4215 -0.1509
   25MOL   H39119159   1.416   2.874   5.369  1.3058 -1.8308  0.7218
   25MOL   C39219160   1.967   3.785   5.174 -0.2390 -0.5971  0.2443
   25MOL   C39319161   1.870   3.664   5.166  0.7700 -0.1983 -0.5015
   25MOL   C39419162   1.744   3.676   5.254 -0.3367  0.5686 -0.3261
   25MOL   C39519163   1.654   3.553   5.244  0.7626  0.6717 -0.5205
   25MOL   O39619164   1.726   3.435   5.264  0.0928 -0.0706  0.9322
   25MOL   C39719165   1.785   3.698   5.398  0.1915  0.7759 -0.2196
   25MOL   C39819166   1.888   3.809   5.417 -0.2239 -0.5375 -0.0544
   25MOL   C39919167   2.010   3.800   5.323 -0.1744 -0.1627  0.0683
   25MOL   C40019168   2.094   3.935   5.337 -0.0352  0.3625 -0.6332
   25MOL   O40119169   2.147   3.969   5.462  0.0493  0.1050  0.1224
   25MOL   C40219170   2.275   3.944   5.491  0.1615 -0.2837 -0.5131
   25MOL   O40319171   2.356   3.880   5.423  0.0082 -0.8710 -0.3910
   25MOL   C40419172   2.301   3.998   5.626 -0.3900  0.0887 -0.6315
   25MOL   C40519173   2.203   4.007   5.725  0.1596 -0.2043  0.1803
   25MOL   C40619174   2.236   4.052   5.858  0.0386  0.8151  0.2311
   25MOL   C40719175   2.368   4.086   5.892  0.0775 -1.5067 -0.4278
   25MOL   C40819176   2.403   4.145   6.022 -0.0421  0.5762  0.1967
   25MOL   O40919177   2.519   4.144   6.065 -0.0508 -0.2339  0.1082
   25MOL   O41019178   2.297   4.213   6.071  0.4562  0.5323  0.3632
   25MOL   C41119179   2.464   4.088   5.787  0.1405  0.3737 -0.5324
   25MOL   C41219180   2.432   4.041   5.658 -0.7290  0.0176  0.0523
   25MOL   H41319181   2.054   3.779   5.109  1.9318 -0.4834  3.0421
   25MOL   H41419182   1.912   3.876   5.149  0.6452 -0.2644 -0.5110
   25MOL   H41519183   1.833   3.645   5.065  0.5383  0.4874 -0.5460
   25MOL   H41619184   1.919   3.568   5.187  1.3930  0.2511  0.1333
   25MOL   H41719185   1.688   3.764   5.222 -1.1499  0.1348 -0.1061
   25MOL   H41819186   1.586   3.562   5.328  1.4719  0.4777  0.0823
   25MOL   H41919187   1.600   3.543   5.150 -0.2690  2.4110 -0.1324
   25MOL   H42019188   1.691   3.734   5.441 -0.8823  0.6397 -2.3962
   25MOL   H42119189   1.815   3.605   5.447  0.5288  0.6321 -0.6970
   25MOL   H42219190   1.930   3.802   5.518  0.0220  0.6061 -0.0762
   25MOL   H42319191   1.845   3.909   5.427  2.1320  0.3188  2.0020
   25MOL   H42419192   2.066   3.710   5.349  0.1896 -0.0841 -0.4281
   25MOL   H42519193   2.181   3.929   5.273 -0.3938 -2.3283 -0.9230
   25MOL   H42619194   2.043   4.028   5.309  0.4743  1.4090  1.8135
   25MOL   H42719195   2.101   3.975   5.706  0.0724  0.7561 -1.0001
   25MOL   H42819196   2.156   4.066   5.930 -0.7991 -1.2676 -0.2698
   25MOL   H42919197   2.566   4.123   5.792 -0.6357  2.6258  0.1769
   25MOL   H43019198   2.505   4.053   5.579  0.6846  0.4191  1.3967
   25MOL   C43119199   2.647   4.402   6.462  0.1820 -0.9100 -0.0245
   25MOL   C43219200   2.577   4.357   6.337  0.4868 -0.2639  0.5993
   25MOL   C43319201   2.468   4.457   6.296 -0.8448 -0.1856 -0.5591
   25MOL   C43419202   2.388   4.408   6.175  0.7735 -0.6628  0.0389
   25MOL   O43519203   2.322   4.278   6.200 -0.1250  0.5141  0.2370
   25MOL   C43619204   2.374   4.483   6.414 -0.1221 -0.6468 -0.4450
   25MOL   C43719205   2.459   4.547   6.530  0.0465  0.3382  0.5286
   25MOL   C43819206   2.564   4.452   6.582  0.0410  0.0210 -0.0550
   25MOL   C43919207   2.643   4.504   6.700 -1.0140 -0.0109  0.6140
   25MOL   O44019208   2.754   4.427   6.750  0.1987  0.3355 -0.1843
   25MOL   C44119209   2.806   4.456   6.869 -0.2945  0.9232  0.2380
   25MOL   O44219210   2.758   4.539   6.946 -0.6052 -0.0570 -0.3137
   25MOL   C44319211   2.929   4.386   6.900  0.1591 -0.1300 -0.1213
   25MOL   C44419212   3.004   4.308   6.808  0.0991 -0.1589 -0.0518
   25MOL   C44519213   3.126   4.248   6.838  0.4652 -0.2811  0.3464
   25MOL   C44619214   3.183   4.265   6.963 -0.3435 -1.0697 -0.1502
   25MOL   C44719215   3.309   4.199   7.000 -0.2953  0.1850  0.2795
   25MOL   O44819216   3.348   4.202   7.112 -0.3457 -0.6896 -0.4009
   25MOL   O44919217   3.378   4.168   6.890 -0.1429 -0.3715  0.4707
   25MOL   C45019218   3.109   4.340   7.058  0.5971 -0.8412  0.4044
   25MOL   C45119219   2.986   4.398   7.030 -0.6748 -0.5681 -0.0376
   25MOL   H45219220   2.712   4.321   6.495 -0.8475 -2.8212 -2.4000
   25MOL   H45319221   2.715   4.483   6.435  0.4260 -1.5710 -1.4732
   25MOL   H45419222   2.642   4.348   6.250  0.7187  2.7007  0.4096
   25MOL   H45519223   2.521   4.266   6.359  1.4292 -1.9660 -3.5246
   25MOL   H45619224   2.511   4.554   6.270  1.8299 -1.3737 -0.6475
   25MOL   H45719225   2.314   4.484   6.150 -1.2422 -1.9894  1.7347
   25MOL   H45819226   2.461   4.398   6.095  1.9806  0.0535  1.0424
   25MOL   H45919227   2.299   4.556   6.384  0.6563 -0.6205 -2.3920
   25MOL   H46019228   2.329   4.391   6.451  3.4513 -2.6034 -0.6668
   25MOL   H46119229   2.385   4.588   6.599 -0.7674  0.9712 -0.7155
   25MOL   H46219230   2.511   4.633   6.488  0.2056 -0.3270 -0.6547
   25MOL   H46319231   2.519   4.364   6.628 -0.9497  0.0406 -0.9727
   25MOL   H46419232   2.669   4.606   6.672  1.3728 -0.6144  0.5493
   25MOL   H46519233   2.571   4.519   6.781 -1.5418 -0.2895  0.1988
   25MOL   H46619234   2.956   4.284   6.714 -2.2567  0.2144  1.0089
   25MOL   H46719235   3.166   4.180   6.765 -0.7987 -0.1641 -0.4747
   25MOL   H46819236   3.154   4.356   7.155  0.1829  0.6372  0.3668
   25MOL   H46919237   2.933   4.455   7.105  0.3507  0.5190 -0.1160
   25MOL   C47019238   3.868   3.908   6.764 -0.7237  0.3487  0.6786
   25MOL   C47119239   3.757   3.979   6.842 -0.2669  0.0940  0.2765
   25MOL   C47219240   3.622   3.915   6.815  0.1880 -0.1032  0.6497
   25MOL   C47319241   3.509   3.980   6.908  0.4663 -0.6167  0.5599
   25MOL   O47419242   3.517   4.120   6.898  0.0234 -0.5198  0.4160
   25MOL   C47519243   3.594   3.913   6.664  0.4526 -0.4894 -0.8847
   25MOL   C47619244   3.700   3.846   6.582 -0.3369 -0.0721  0.0026
   25MOL   C47719245   3.842   3.909   6.612  0.6128 -0.2698 -0.6549
   25MOL   C47819246   3.955   3.840   6.539  0.2236 -0.0339 -0.5914
   25MOL   O47919247   3.952   3.878   6.403  0.9456 -0.1594 -0.2705
   25MOL   C48019248   3.900   3.796   6.308  0.1161 -0.0298 -0.5023
   25MOL   O48119249   3.866   3.679   6.326  0.0324 -0.3891 -0.4598
   25MOL   C48219250   3.891   3.865   6.177 -0.0377  0.0628 -0.6695
   25MOL   C48319251   3.974   3.963   6.129 -0.0277 -0.2967  0.1027
   25MOL   C48419252   3.987   3.988   5.992  0.4959  0.5874  0.3475
   25MOL   C48519253   3.899   3.925   5.896  0.0682  0.1477 -0.2827
   25MOL   C48619254   3.915   3.946   5.752  0.0475  0.3123 -0.5416
   25MOL   O48719255   3.990   4.026   5.698 -0.1183  0.3087 -0.1620
   25MOL   O48819256   3.819   3.872   5.682  0.0778 -0.2096 -0.8249
   25MOL   C48919257   3.808   3.827   5.953 -0.1108 -0.4805  0.3287
   25MOL   C49019258   3.801   3.801   6.088 -0.1669 -0.3895 -0.5953
   25MOL   H49119259   3.964   3.943   6.801 -1.3078  2.2829  0.3987
   25MOL   H49219260   3.864   3.809   6.810 -0.3999  0.7024  1.4784
   25MOL   H49319261   3.778   3.982   6.949 -2.8758  1.7590  0.7966
   25MOL   H49419262   3.761   4.086   6.818 -1.5381 -0.3691 -2.1802
   25MOL   H49519263   3.638   3.812   6.846  2.8115  0.3540  0.9392
   25MOL   H49619264   3.413   3.934   6.885  0.8299 -0.9858 -0.2455
   25MOL   H49719265   3.534   3.954   7.011  0.5398  2.1406  1.2930
   25MOL   H49819266   3.500   3.861   6.646  0.4016 -0.8206  0.3450
   25MOL   H49919267   3.581   4.012   6.620  0.2267 -0.1191  0.0025
   25MOL   H50019268   3.674   3.846   6.476 -4.0594  0.0501  0.8475
   25MOL   H50119269   3.709   3.738   6.592 -0.6050  0.0579  1.8106
   25MOL   H50219270   3.846   4.015   6.586  1.4658 -0.1336  0.0136
   25MOL   H50319271   4.047   3.882   6.580 -0.9200  0.1947  1.8085
   25MOL   H50419272   3.966   3.732   6.550 -0.8594 -0.0086  0.8264
   25MOL   H50519273   4.055   3.996   6.193  1.8228  0.9500 -2.7523
   25MOL   H50619274   4.054   4.062   5.950  0.2786 -0.8446 -2.6252
   25MOL   H50719275   3.738   3.775   5.889 -0.1135  0.1879 -0.2237
   25MOL   H50819276   3.712   3.745   6.114 -0.9998  0.8272 -0.7377
   25MOL   C50919277   3.901   4.016   5.116 -0.3514 -0.5920 -0.2414
   25MOL   C51019278   3.918   4.000   5.271 -0.1715 -0.0707  0.5970
   25MOL   C51119279   3.863   3.864   5.308 -0.2384 -0.0819  0.3284
   25MOL   C51219280   3.889   3.823   5.460  0.4809  0.3193 -0.4663
   25MOL   O51319281   3.801   3.908   5.538 -0.1357  0.0928 -0.3199
   25MOL   C51419282   3.714   3.851   5.267  0.4754 -0.4109 -0.4360
   25MOL   C51519283   3.712   3.858   5.114  0.3507  0.4007 -0.7002
   25MOL   C51619284   3.758   3.994   5.066  0.3613 -0.1372  0.8340
   25MOL   C51719285   3.725   4.023   4.919  0.0144 -0.3525 -0.5479
   25MOL   O51819286   3.746   3.914   4.828 -0.5972  0.6133 -0.1825
   25MOL   C51919287   3.856   3.888   4.755  0.7523 -0.3512  0.7026
   25MOL   O52019288   3.934   3.977   4.729 -0.4084  0.0673  0.0455
   25MOL   C52119289   3.866   3.747   4.697  0.1433  0.0066  0.3858
   25MOL   C52219290   3.971   3.726   4.600 -0.0468  0.5298  0.2630
   25MOL   C52319291   3.986   3.591   4.549 -0.8518  0.1812 -0.0425
   25MOL   C52419292   3.906   3.485   4.600  1.1640 -0.5810 -1.3870
   25MOL   C52519293   3.935   3.346   4.553  0.0313 -0.3948 -0.3058
   25MOL   O52619294   3.998   3.326   4.453 -0.2962  0.0292 -0.4856
   25MOL   O52719295   3.895   3.254   4.630  0.9264 -0.1986  0.2407
   25MOL   C52819296   3.809   3.509   4.699  0.3558 -0.7489  0.3898
   25MOL   C52919297   3.787   3.642   4.748 -0.0317  0.5485 -0.4756
   25MOL   H53019298   3.929   4.117   5.087 -2.3402  0.8238  2.5604
   25MOL   H53119299   3.964   3.944   5.065  0.4497  0.5157 -0.8210
   25MOL   H53219300   4.024   4.007   5.296 -0.0342 -1.1135  0.3253
   25MOL   H53319301   3.852   4.073   5.317 -0.1200  1.7556 -2.1259
   25MOL   H53419302   3.921   3.790   5.253  0.5186  0.8569 -0.1410
   25MOL   H53519303   3.871   3.716   5.472 -0.4884  0.2064 -2.8308
   25MOL   H53619304   3.996   3.842   5.471  0.0161  2.1865  1.2939
   25MOL   H53719305   3.665   3.754   5.281  0.5961 -0.6178 -1.4290
   25MOL   H53819306   3.657   3.929   5.316  0.5188 -1.3741  1.1939
   25MOL   H53919307   3.609   3.847   5.078 -0.4398 -0.4296  1.7091
   25MOL   H54019308   3.768   3.774   5.074  0.7518 -0.2222  1.1312
   25MOL   H54119309   3.706   4.064   5.133  2.3430 -0.0294  2.2998
   25MOL   H54219310   3.625   4.053   4.888  0.0418 -0.1871 -0.4762
   25MOL   H54319311   3.793   4.105   4.895  0.3994 -0.1749  1.0619
   25MOL   H54419312   4.027   3.812   4.566 -0.1587 -1.4287 -5.5068
   25MOL   H54519313   4.056   3.566   4.471 -0.6111 -0.3591  0.3404
   25MOL   H54619314   3.733   3.438   4.730 -2.6318  1.3561 -1.7897
   25MOL   H54719315   3.711   3.660   4.822 -0.4497 -1.0204 -0.5200
   25MOL   C54819316   3.987   2.681   4.817  0.6630 -0.0159 -0.6515
   25MOL   C54919317   4.028   2.826   4.804 -0.1989 -0.2782 -0.8079
   25MOL   C55019318   3.974   2.894   4.680  0.7271  0.1070 -0.0541
   25MOL   C55119319   4.008   3.043   4.683 -0.2693 -0.7448  0.3528
   25MOL   O55219320   3.927   3.113   4.587 -0.1931 -0.2576 -0.3661
   25MOL   C55319321   4.037   2.822   4.564 -0.2238 -0.0447 -0.6324
   25MOL   C55419322   4.015   2.672   4.561  0.1789  0.2346  0.0642
   25MOL   C55519323   4.045   2.605   4.700 -0.6447  0.1980  0.1040
   25MOL   C55619324   3.999   2.456   4.699 -0.1453  0.0555 -0.0753
   25MOL   O55719325   4.030   2.397   4.823  0.1759 -0.0049  0.3607
   25MOL   C55819326   3.950   2.312   4.887 -0.2733 -0.3241  0.4896
   25MOL   O55919327   3.846   2.271   4.840  0.8124  0.3727  0.0201
   25MOL   C56019328   4.000   2.254   5.010 -0.3987 -0.1184 -0.5012
   25MOL   C56119329   4.131   2.285   5.059  0.2553  0.0700 -0.2779
   25MOL   C56219330   4.171   2.238   5.183  0.0312 -0.5286 -0.0649
   25MOL   C56319331   4.078   2.177   5.268  0.0598  0.3484 -0.2974
   25MOL   C56419332   4.120   2.127   5.405 -0.7265  0.3224 -0.5094
   25MOL   O56519333   4.060   2.037   5.463  0.2902  0.7112  0.1089
   25MOL   O56619334   4.217   2.196   5.456  0.1225 -0.7766  0.2324
   25MOL   C56719335   3.950   2.139   5.214  0.3967 -0.2161  0.2398
   25MOL   C56819336   3.916   2.175   5.080  0.1140  0.3748  0.0502
   25MOL   H56919337   4.016   2.642   4.914  0.5921 -3.0706 -1.8057
   25MOL   H57019338   3.878   2.677   4.824  0.5486  1.2983 -1.4447
   25MOL   H57119339   4.012   2.877   4.899  0.5212 -2.3430  0.4599
   25MOL   H57219340   4.137   2.821   4.811 -0.2085 -1.2512 -1.2698
   25MOL   H57319341   3.867   2.883   4.663  0.7844 -2.3513  0.9345
   25MOL   H57419342   3.990   3.096   4.777  1.7810 -0.0865  0.3953
   25MOL   H57519343   4.110   3.070   4.655 -0.3888 -0.6994 -0.0336
   25MOL   H57619344   4.017   2.879   4.473 -0.3177 -0.9290 -1.1713
   25MOL   H57719345   4.145   2.817   4.577 -0.4008  0.1445  0.9755
   25MOL   H57819346   4.067   2.633   4.473 -0.4398  0.1963 -0.2913
   25MOL   H57919347   3.910   2.652   4.541 -0.2697  0.5226  2.0832
   25MOL   H58019348   4.153   2.606   4.707 -0.6573  0.9876  0.1612
   25MOL   H58119349   3.893   2.464   4.672  0.1894  0.1278 -1.4382
   25MOL   H58219350   4.052   2.400   4.622 -0.9502 -3.1164  1.6148
   25MOL   H58319351   4.197   2.350   5.005  0.7110 -0.0482  0.1281
   25MOL   H58419352   4.273   2.253   5.216  0.5959 -2.2734 -0.9787
   25MOL   H58519353   3.880   2.085   5.276  0.5732 -0.9533 -0.2025
   25MOL   H58619354   3.812   2.166   5.053  0.6220  1.4006 -2.3362
   25MOL   C58719355   4.017   2.187   6.001 -0.1306 -0.3848 -0.5249
   25MOL   C58819356   4.043   2.188   5.850  0.2636 -0.7361 -0.3250
   25MOL   C58919357   4.127   2.310   5.796 -0.0462  0.5302 -0.7476
   25MOL   C59019358   4.144   2.316   5.646  0.6778  0.1411 -0.5148
   25MOL   O59119359   4.219   2.206   5.609  0.7330 -0.1472 -0.1737
   25MOL   C59219360   4.062   2.441   5.852 -0.3843 -0.4483 -0.1006
   25MOL   C59319361   4.042   2.438   6.000 -0.0165  0.3206  0.4622
   25MOL   C59419362   3.947   2.322   6.040 -0.4345 -0.2788  0.3150
   25MOL   C59519363   3.914   2.332   6.193  0.2852  0.0521 -0.0457
   25MOL   O59619364   3.879   2.465   6.238 -0.4893  1.0734  0.1718
   25MOL   C59719365   3.763   2.531   6.208  0.9335 -0.3444  1.3513
   25MOL   O59819366   3.651   2.476   6.172 -0.3162  0.4274  0.4374
   25MOL   C59919367   3.781   2.679   6.233  0.9574 -0.3095 -0.2260
   25MOL   C60019368   3.702   2.771   6.163  0.5922 -0.4495  0.3739
   25MOL   C60119369   3.715   2.915   6.180  0.1823 -0.2383  0.6724
   25MOL   C60219370   3.814   2.957   6.266 -0.5828  0.8122 -0.0093
   25MOL   C60319371   3.837   3.106   6.285 -0.4833  0.3423  0.6841
   25MOL   O60419372   3.935   3.149   6.344 -0.3258 -0.0660 -0.4925
   25MOL   O60519373   3.746   3.183   6.230  0.1757 -0.1011 -0.9353
   25MOL   C60619374   3.898   2.861   6.335  0.4205 -0.4727 -0.3461
   25MOL   C60719375   3.882   2.724   6.317 -0.3310  0.0328 -0.3155
   25MOL   H60819376   3.970   2.095   6.035  1.8882 -0.2321  2.8314
   25MOL   H60919377   4.110   2.178   6.056  0.2114 -1.7774 -1.3012
   25MOL   H61019378   4.101   2.100   5.824  1.4758  0.1893 -0.7801
   25MOL   H61119379   3.947   2.165   5.803 -1.0301  2.4896  0.6389
   25MOL   H61219380   4.225   2.293   5.841  0.5138 -0.3482 -2.2690
   25MOL   H61319381   4.044   2.309   5.602  0.8029  0.6468 -0.8905
   25MOL   H61419382   4.180   2.414   5.614  0.1255  0.1399 -1.1546
   25MOL   H61519383   4.132   2.520   5.826  2.1440 -2.0095  1.6484
   25MOL   H61619384   3.966   2.460   5.804  0.4026  2.2649 -0.6480
   25MOL   H61719385   3.998   2.534   6.027 -1.5759  0.2935 -1.8907
   25MOL   H61819386   4.139   2.424   6.048 -0.1140 -0.8864  0.3097
   25MOL   H61919387   3.851   2.344   5.994 -0.3728  1.0196  0.7865
   25MOL   H62019388   3.825   2.271   6.207  1.0364 -1.2529 -0.7595
   25MOL   H62119389   3.980   2.294   6.271 -3.1223  0.0611  2.9297
   25MOL   H62219390   3.627   2.726   6.101  2.5947 -1.8994 -1.0548
   25MOL   H62319391   3.657   2.990   6.128  2.5074  2.6071  2.0259
   25MOL   H62419392   3.968   2.899   6.409 -0.6062 -0.1666  0.4836
   25MOL   H62519393   3.939   2.648   6.369 -0.1743 -1.0837 -2.0963
   25MOL   C62619394   3.464   3.375   6.657  0.1183  0.0596  0.4074
   25MOL   C62719395   3.495   3.415   6.514 -0.3318  0.3718  0.2387
   25MOL   C62819396   3.632   3.368   6.470  0.1497  0.9750 -0.3873
   25MOL   C62919397   3.648   3.386   6.321 -0.4489  0.0774 -0.0613
   25MOL   O63019398   3.766   3.326   6.265 -0.4078  0.2830 -0.0011
   25MOL   C63119399   3.742   3.437   6.562 -0.2066  0.3614  0.0272
   25MOL   C63219400   3.708   3.393   6.708 -0.6267 -0.0785  0.6149
   25MOL   C63319401   3.567   3.435   6.753 -0.1107  0.9206 -0.4112
   25MOL   C63419402   3.560   3.414   6.905  0.3691 -0.0427  0.0479
   25MOL   O63519403   3.433   3.444   6.960 -0.2495  0.7344 -0.2208
   25MOL   C63619404   3.396   3.569   6.997 -1.0031 -0.4843  0.7507
   25MOL   O63719405   3.470   3.672   6.990  0.6400  0.4376  0.6487
   25MOL   C63819406   3.254   3.575   7.037  0.0757 -0.6097 -0.0783
   25MOL   C63919407   3.176   3.461   7.023  0.1161 -0.4917  0.0454
   25MOL   C64019408   3.048   3.450   7.085  0.4980 -0.1216  0.3927
   25MOL   C64119409   2.999   3.565   7.158 -0.3024 -0.0149 -0.1376
   25MOL   C64219410   2.872   3.550   7.232  0.2320 -0.3525  0.1526
   25MOL   O64319411   2.811   3.445   7.237 -0.8997  0.4631 -0.0868
   25MOL   O64419412   2.842   3.659   7.295  0.4672 -0.0868  0.3373
   25MOL   C64519413   3.070   3.687   7.159 -0.5166  0.2614  0.1561
   25MOL   C64619414   3.206   3.690   7.110 -0.0283  0.1032  0.2528
   25MOL   H64719415   3.369   3.418   6.691 -0.1020  0.1221 -0.2678
   25MOL   H64819416   3.456   3.268   6.671 -1.9607  0.2473  0.8250
   25MOL   H64919417   3.414   3.371   6.456 -0.2151 -0.2243  0.5243
   25MOL   H65019418   3.476   3.522   6.505  0.2572  0.5549  1.1429
   25MOL   H65119419   3.629   3.261   6.490  2.1157  0.8590 -0.6040
   25MOL   H65219420   3.571   3.342   6.257  0.3121 -2.9278  1.0278
   25MOL   H65319421   3.648   3.492   6.293  2.4306  0.1267 -0.0846
   25MOL   H65419422   3.830   3.391   6.516 -1.4527 -1.6555 -0.3897
   25MOL   H65519423   3.748   3.546   6.559 -1.3303  0.4362  0.2962
   25MOL   H65619424   3.784   3.434   6.774  0.5153 -0.5603 -0.3778
   25MOL   H65719425   3.713   3.286   6.726 -1.4174  0.2054  2.6755
   25MOL   H65819426   3.554   3.542   6.737 -0.6354  0.7887 -0.8517
   25MOL   H65919427   3.591   3.312   6.927  0.7686 -0.2515 -1.4366
   25MOL   H66019428   3.635   3.480   6.949  0.6780 -1.0622  1.0580
   25MOL   H66119429   3.221   3.373   6.980 -1.8818 -1.5658  0.1064
   25MOL   H66219430   2.994   3.359   7.065 -0.9054  1.1620 -1.9657
   25MOL   H66319431   3.041   3.773   7.218 -1.0409 -1.2238  2.1238
   25MOL   H66419432   3.276   3.772   7.122 -0.0874  0.1537  0.2506
   25MOL   C66519433   2.242   3.649   7.336  0.4699  0.3672  0.2525
   25MOL   C66619434   2.384   3.614   7.301  0.8627  0.6173  0.3141
   25MOL   C66719435   2.471   3.741   7.281  0.8532 -0.5227 -0.5114
   25MOL   C66819436   2.614   3.705   7.231 -0.4528  0.1814 -0.3753
   25MOL   O66919437   2.701   3.670   7.342 -0.5716  0.2113 -0.1563
   25MOL   C67019438   2.407   3.838   7.173 -0.4489 -0.1035  0.1672
   25MOL   C67119439   2.264   3.869   7.209  0.3276 -0.6016  0.3564
   25MOL   C67219440   2.181   3.744   7.230 -0.8818  0.5510  0.0344
   25MOL   C67319441   2.030   3.776   7.263 -0.3745  0.4871 -0.0216
   25MOL   O67419442   1.958   3.660   7.222  0.1353  0.1338 -0.0924
   25MOL   C67519443   1.835   3.655   7.255  0.2103 -0.2027 -0.0986
   25MOL   O67619444   1.785   3.738   7.335  0.1723  0.0862  0.1469
   25MOL   C67719445   1.770   3.533   7.209 -0.8670 -0.3165 -0.0116
   25MOL   C67819446   1.838   3.434   7.131  0.1012  1.0939  0.7163
   25MOL   C67919447   1.766   3.319   7.088  0.3263 -0.8931 -0.0453
   25MOL   C68019448   1.631   3.297   7.126 -0.0795 -0.1201 -0.2535
   25MOL   C68119449   1.559   3.184   7.070  0.0397  0.5565 -0.3476
   25MOL   O68219450   1.609   3.104   6.992 -0.0781 -0.7694  0.0933
   25MOL   O68319451   1.429   3.180   7.103 -0.8536  0.8890  0.0381
   25MOL   C68419452   1.568   3.394   7.207 -0.3002 -0.5340 -0.4577
   25MOL   C68519453   1.636   3.508   7.244 -0.0292 -0.1999 -0.6324
   25MOL   H68619454   2.180   3.562   7.354  0.9218  0.1199  0.6137
   25MOL   H68719455   2.247   3.700   7.432  1.7907 -0.0410  0.4125
   25MOL   H68819456   2.423   3.547   7.378  1.4061  0.5511 -0.0103
   25MOL   H68919457   2.382   3.541   7.220 -2.5548  0.4180  0.5389
   25MOL   H69019458   2.487   3.796   7.374  0.3484 -0.3540 -0.5247
   25MOL   H69119459   2.598   3.616   7.170 -0.2609  0.4947 -0.8866
   25MOL   H69219460   2.656   3.775   7.160 -0.5784  1.9076  1.2182
   25MOL   H69319461   2.461   3.931   7.160 -0.0171 -0.8065 -3.6196
   25MOL   H69419462   2.413   3.792   7.074 -1.1200 -1.1252  0.5968
   25MOL   H69519463   2.226   3.931   7.128 -1.9309 -0.4880  1.4785
   25MOL   H69619464   2.256   3.920   7.305 -3.2515  0.0786 -0.2434
   25MOL   H69719465   2.183   3.688   7.137  2.8647 -1.7904  1.4112
   25MOL   H69819466   2.017   3.796   7.369  0.0077 -3.5826  0.8813
   25MOL   H69919467   2.007   3.860   7.198  0.9233  0.4623 -0.5286
   25MOL   H70019468   1.941   3.448   7.102 -0.1305  0.8072 -0.2541
   25MOL   H70119469   1.817   3.261   7.013 -1.1959 -0.2484 -1.5989
   25MOL   H70219470   1.464   3.387   7.235  0.3362 -0.9484  1.9368
   25MOL   H70319471   1.569   3.577   7.292 -3.3895 -2.5008 -1.8398
   25MOL   C70419472   1.302   2.605   7.225 -0.2288  0.0965 -0.5522
   25MOL   C70519473   1.239   2.743   7.187  0.2120 -0.0090 -0.7861
   25MOL   C70619474   1.336   2.855   7.135 -0.4305 -0.0979  0.1812
   25MOL   C70719475   1.279   2.994   7.115 -0.4260  1.0115  0.3878
   25MOL   O70819476   1.357   3.071   7.030  0.4553  1.5160  0.1132
   25MOL   C70919477   1.463   2.857   7.227  0.0096  0.3027  0.7782
   25MOL   C71019478   1.525   2.721   7.265  0.3547  0.0977  0.3468
   25MOL   C71119479   1.418   2.629   7.326 -0.5057  0.1744  0.3767
   25MOL   C71219480   1.483   2.499   7.369  0.5166  0.8780 -0.2846
   25MOL   O71319481   1.561   2.528   7.478 -0.2111 -0.1542  0.6662
   25MOL   C71419482   1.520   2.514   7.604  0.3888 -0.0986  0.4005
   25MOL   O71519483   1.419   2.458   7.639  0.3838  0.7731 -0.0251
   25MOL   C71619484   1.598   2.590   7.705  0.4225  0.6859  0.3364
   25MOL   C71719485   1.569   2.575   7.846 -0.0418 -0.2974 -0.2018
   25MOL   C71819486   1.648   2.637   7.947 -0.1300  0.1455 -0.0052
   25MOL   C71919487   1.753   2.723   7.914  0.0688 -0.3215 -0.9074
   25MOL   C72019488   1.834   2.803   8.007 -0.7825 -0.8126  0.3699
   25MOL   O72119489   1.924   2.883   7.980 -0.7985  0.1481  0.8386
   25MOL   O72219490   1.806   2.766   0.095  0.4978  0.3747 -0.2383
   25MOL   C72319491   1.790   2.735   7.775 -0.2736  0.5854 -0.5914
   25MOL   C72419492   1.714   2.666   7.675 -0.6606 -0.6588 -0.8363
   25MOL   H72519493   1.229   2.544   7.279  0.2183 -0.2535 -0.3395
   25MOL   H72619494   1.325   2.555   7.131  0.2673  0.8662 -0.8427
   25MOL   H72719495   1.164   2.717   7.113  1.7875  2.8734 -3.4943
   25MOL   H72819496   1.177   2.785   7.267 -2.4058 -0.3950 -2.5287
   25MOL   H72919497   1.355   2.817   7.035  0.1159 -3.4596  1.5141
   25MOL   H73019498   1.171   2.990   7.100 -0.5714 -0.8158  1.6464
   25MOL   H73119499   1.277   3.051   7.208 -2.4886  0.6564  0.5853
   25MOL   H73219500   1.536   2.912   7.168 -1.3294  2.2182  0.8578
   25MOL   H73319501   1.430   2.913   7.315 -2.9754 -1.0991  0.6215
   25MOL   H73419502   1.613   2.735   7.329 -0.2533  1.5937  0.8764
   25MOL   H73519503   1.570   2.676   7.176  0.1257  0.7832 -0.1182
   25MOL   H73619504   1.381   2.675   7.417  1.3156 -1.3800  1.9504
   25MOL   H73719505   1.417   2.415   7.393  1.5913  0.1835  0.2818
   25MOL   H73819506   1.549   2.477   7.286  0.0863  1.8422 -0.8876
   25MOL   H73919507   1.490   2.505   7.870 -0.1126  0.0412  0.5797
   25MOL   H74019508   1.629   2.614   0.015 -1.8835  0.2874 -0.2853
   25MOL   H74119509   1.878   2.788   7.741  0.5563  0.4930  1.3800
   25MOL   H74219510   1.744   2.671   7.572 -1.0588  1.0978 -0.8925
   25MOL   C74319511   2.250   2.986   0.333  0.3045  0.1648  0.1251
   25MOL   C74419512   2.167   2.896   0.242  0.1502  0.4618  0.6095
   25MOL   C74519513   2.076   2.818   0.336  1.0771  0.5507 -0.4288
   25MOL   C74619514   1.965   2.753   0.260  0.5769  0.0473 -0.4881
   25MOL   O74719515   1.887   2.846   0.192  0.2873  0.2775 -0.4145
   25MOL   C74819516   2.161   2.721   0.422  0.2576  0.4656  0.1439
   25MOL   C74919517   2.259   2.806   0.506 -0.4135 -0.7980 -0.2792
   25MOL   C75019518   2.345   2.913   0.430 -0.0804 -0.6324  0.5610
   25MOL   C75119519   2.407   3.018   0.521  0.4657  0.2831  0.0859
   25MOL   O75219520   2.517   2.955   0.588 -0.7546  0.1404  0.1911
   25MOL   C75319521   2.578   3.028   0.683  0.1398  0.1974 -0.3670
   25MOL   O75419522   2.547   3.139   0.716  0.1082  0.1291 -0.6345
   25MOL   C75519523   2.693   2.958   0.746 -0.3321 -0.2481 -0.4910
   25MOL   C75619524   2.706   2.815   0.741 -0.2003  0.4343  0.2942
   25MOL   C75719525   2.803   2.746   0.802  0.3594 -0.0657 -0.0556
   25MOL   C75819526   2.906   2.814   0.867 -0.1017 -0.2297 -0.5098
   25MOL   C75919527   3.016   2.735   0.929  0.2946  0.5465 -0.3067
   25MOL   O76019528   3.019   2.614   0.918 -0.1879 -0.5269 -0.2332
   25MOL   O76119529   3.114   2.811   0.988  0.5224  0.4181 -0.0758
   25MOL   C76219530   2.898   2.954   0.880  0.0843  0.7430 -0.3142
   25MOL   C76319531   2.795   3.028   0.819  0.0138 -0.3987 -0.4625
   25MOL   H76419532   2.310   3.049   0.267  1.3281 -0.4488  0.4575
   25MOL   H76519533   2.180   3.064   0.362  0.0380  0.2277 -0.6760
   25MOL   H76619534   2.110   2.965   0.181 -0.6001  0.1407  0.9437
   25MOL   H76719535   2.232   2.836   0.178 -1.4293 -0.8986  0.2548
   25MOL   H76819536   2.038   2.886   0.412 -1.5669  0.3391 -1.5120
   25MOL   H76919537   2.012   2.683   0.190 -1.0220 -1.4769 -0.0905
   25MOL   H77019538   1.894   2.689   0.314 -0.4156  2.5404  1.2456
   25MOL   H77119539   2.103   2.651   0.483  2.4603  0.5798  2.4243
   25MOL   H77219540   2.223   2.655   0.361 -1.7536  0.4797 -1.9783
   25MOL   H77319541   2.328   2.750   0.569 -1.2773 -0.2039  1.2241
   25MOL   H77419542   2.200   2.860   0.581  0.7748  1.7232 -1.0732
   25MOL   H77519543   2.430   2.865   0.381 -0.9538 -0.9954 -0.6199
   25MOL   H77619544   2.446   3.104   0.466  0.0941  0.7768  0.5988
   25MOL   H77719545   2.338   3.073   0.585 -0.2442 -0.7392  0.1950
   25MOL   H77819546   2.627   2.749   0.710  1.0959 -1.2130  0.3967
   25MOL   H77919547   2.800   2.640   0.784  0.5445 -0.0258 -0.3274
   25MOL   H78019548   2.970   3.005   0.942 -0.1110  1.7600 -0.9129
   25MOL   H78119549   2.795   3.136   0.827 -1.5409 -0.4451  0.2170
   25MOL   H78219550   3.185   2.749   1.000 -1.4015 -2.1272 -1.2381
   26MOL     C119551   7.007   0.679   1.024  0.2771  0.7703 -0.0575
   26MOL     C219552   7.018   0.530   0.988  0.2390  0.5436 -0.3156
   26MOL     C319553   6.893   0.488   0.907 -0.1163 -0.1926 -0.6970
   26MOL     C419554   6.907   0.334   0.891 -0.0552  0.0276 -0.3207
   26MOL     O519555   6.806   0.276   0.808 -0.1865  0.2295 -0.1131
   26MOL     C619556   6.756   0.539   0.949  0.5199  0.1655  0.7564
   26MOL     C719557   6.771   0.685   0.993  0.3356  0.0285 -0.2126
   26MOL     C819558   6.880   0.712   1.096  0.7274  0.2122 -0.1280
   26MOL     C919559   6.868   0.853   1.150  0.4770  0.6660 -0.3110
   26MOL    O1019560   6.746   0.885   1.214 -0.3963  0.0648 -0.2656
   26MOL    C1119561   6.748   0.902   1.339  0.2674  0.5214  0.2427
   26MOL    O1219562   6.837   0.884   1.415 -0.3835  0.0630 -0.1237
   26MOL    C1319563   6.624   0.949   1.405 -0.4299  0.2571  0.4241
   26MOL    C1419564   6.503   0.926   1.345 -0.2789  0.7938  0.0502
   26MOL    C1519565   6.382   0.977   1.403 -0.4593  0.6819 -0.4948
   26MOL    C1619566   6.386   1.046   1.527 -0.6805 -0.0011 -0.0191
   26MOL    C1719567   6.265   1.100   1.586  0.6017 -0.6016  0.1965
   26MOL    O1819568   6.265   1.140   1.701 -0.2035 -0.3173 -0.1699
   26MOL    O1919569   6.158   1.116   1.493  0.1705  0.2026 -0.4074
   26MOL    C2019570   6.514   1.076   1.580 -0.4526  0.1132  0.8813
   26MOL    C2119571   6.632   1.027   1.524  0.4163 -0.1888 -0.3266
   26MOL    H2219572   7.090   0.721   1.081  0.0684  3.0888 -1.3745
   26MOL    H2319573   7.017   0.736   0.932  0.7783  1.5282  0.4593
   26MOL    H2419574   7.108   0.510   0.929 -0.9303 -3.2982 -0.8854
   26MOL    H2519575   7.039   0.476   1.080 -3.2471  0.1702  0.3147
   26MOL    H2619576   6.909   0.532   0.808  1.8855  0.7789  0.0267
   26MOL    H2719577   7.005   0.319   0.846  0.1112  2.2516 -0.7621
   26MOL    H2819578   6.914   0.280   0.985  0.0111 -0.5049 -0.6283
   26MOL    H2919579   6.700   0.519   0.858  2.9551 -0.0082 -0.7348
   26MOL    H3019580   6.711   0.481   1.030  1.1469  0.1203  1.0753
   26MOL    H3119581   6.674   0.723   1.025 -0.5033 -2.1845 -0.0181
   26MOL    H3219582   6.776   0.742   0.900  0.2792 -1.9416 -1.4517
   26MOL    H3319583   6.872   0.641   1.178 -1.0442  0.3444 -0.1669
   26MOL    H3419584   6.956   0.878   1.209 -0.0336 -1.3951  1.4036
   26MOL    H3519585   6.873   0.926   1.069  1.8292  0.0764 -0.7686
   26MOL    H3619586   6.487   0.866   1.257  0.2801  0.6619  0.0432
   26MOL    H3719587   6.284   0.944   1.372 -0.2052  0.6935 -1.3099
   26MOL    H3819588   6.529   1.126   1.675 -1.5077 -0.0763  1.1556
   26MOL    H3919589   6.729   1.051   1.566  0.5391 -1.3133  0.0430
   26MOL    H4019590   6.833   0.190   0.782  0.6195  1.5446 -3.9250
   26MOL    C4119591   5.663   1.441   1.534  0.3031  0.2316  0.2878
   26MOL    C4219592   5.789   1.380   1.482 -0.6019 -0.0580  0.7018
   26MOL    C4319593   5.905   1.384   1.581  0.6265  0.4271  0.3332
   26MOL    C4419594   6.043   1.323   1.528 -0.4245 -0.6311  0.1198
   26MOL    O4519595   6.039   1.185   1.552  0.7596  0.5219 -0.1952
   26MOL    C4619596   5.937   1.527   1.624  0.4392  0.2499 -0.0804
   26MOL    C4719597   5.802   1.584   1.677 -0.2146  0.0217  0.8926
   26MOL    C4819598   5.690   1.585   1.577  0.1099  0.3042 -0.1984
   26MOL    C4919599   5.576   1.675   1.619  0.8470 -0.1580  0.3966
   26MOL    O5019600   5.521   1.634   1.736 -0.2264  0.1213 -0.6679
   26MOL    C5119601   5.424   1.711   1.787 -0.4178  0.0732 -0.2735
   26MOL    O5219602   5.382   1.812   1.731  0.5122 -0.2538 -0.2462
   26MOL    C5319603   5.378   1.669   1.923 -0.0246 -0.0237  0.2577
   26MOL    C5419604   5.466   1.578   1.993  0.0949  0.2588 -0.3768
   26MOL    C5519605   5.427   1.536   2.126 -0.3190 -0.1852  0.3150
   26MOL    C5619606   5.306   1.582   2.180  0.8395  0.3480 -0.7259
   26MOL    C5719607   5.256   1.540   2.321  0.3934 -0.9371 -0.4969
   26MOL    O5819608   5.324   1.483   2.405  0.3233  0.3182 -0.1273
   26MOL    O5919609   5.132   1.582   2.347 -0.5345 -0.0449 -0.3449
   26MOL    C6019610   5.228   1.674   2.110 -0.3107  0.5730 -0.4240
   26MOL    C6119611   5.266   1.723   1.986 -0.3593 -0.1941  0.4319
   26MOL    H6219612   5.589   1.439   1.454 -1.1964  1.0920  1.6218
   26MOL    H6319613   5.623   1.390   1.622 -0.4136 -0.7548 -0.5979
   26MOL    H6419614   5.768   1.277   1.454  0.4809 -0.1926  0.3678
   26MOL    H6519615   5.805   1.426   1.385 -2.3380 -0.5341  0.1682
   26MOL    H6619616   5.881   1.323   1.668  0.2221 -0.4807 -0.4094
   26MOL    H6719617   6.061   1.359   1.426  1.1709 -1.4218  0.0969
   26MOL    H6819618   6.125   1.356   1.591 -1.7646 -0.9913  2.1053
   26MOL    H6919619   5.999   1.525   1.714  1.9107  0.8355 -1.0619
   26MOL    H7019620   5.985   1.590   1.549 -0.6999 -0.4614 -1.4217
   26MOL    H7119621   5.825   1.682   1.719 -1.2846  0.3014  0.8620
   26MOL    H7219622   5.762   1.531   1.763 -0.9768 -0.4044  0.2892
   26MOL    H7319623   5.725   1.635   1.487  1.2443 -0.3334 -0.1110
   26MOL    H7419624   5.612   1.778   1.621  2.2138 -0.6522  2.3576
   26MOL    H7519625   5.501   1.662   1.540 -1.1601 -1.8098  2.5009
   26MOL    H7619626   5.560   1.548   1.949  0.6376 -2.0683  2.2550
   26MOL    H7719627   5.496   1.471   2.177  1.6359  2.2317  0.8645
   26MOL    H7819628   5.137   1.724   2.139  0.6950 -0.0461  4.1055
   26MOL    H7919629   5.205   1.795   1.933  0.4268  0.0792 -0.0979
   26MOL    C8019630   5.234   1.681   2.964  0.0155 -0.4696 -0.1929
   26MOL    C8119631   5.200   1.732   2.818 -0.7953 -0.5455 -0.8565
   26MOL    C8219632   5.154   1.623   2.716 -0.5095  0.0369  0.2466
   26MOL    C8319633   5.136   1.677   2.569 -0.5819 -0.5710  0.1453
   26MOL    O8419634   5.088   1.561   2.490 -0.0209  0.2922 -0.1320
   26MOL    C8519635   5.247   1.507   2.720  0.1196 -0.6693 -0.0738
   26MOL    C8619636   5.268   1.443   2.864 -0.3023  0.1080 -0.4743
   26MOL    C8719637   5.322   1.549   2.963  0.2654 -0.3249 -1.1701
   26MOL    C8819638   5.348   1.491   3.104  0.1058  0.3456  0.3672
   26MOL    O8919639   5.233   1.483   3.183  0.0987  0.0938 -0.3087
   26MOL    C9019640   5.211   1.574   3.286 -0.3973 -0.4506 -0.0189
   26MOL    O9119641   5.284   1.665   3.325 -0.1993 -0.0543 -0.3085
   26MOL    C9219642   5.082   1.549   3.358  0.3113  0.1370  0.6575
   26MOL    C9319643   5.065   1.589   3.488 -0.1327  0.9582 -0.6139
   26MOL    C9419644   4.938   1.577   3.551  0.4389 -0.7782 -0.0319
   26MOL    C9519645   4.836   1.510   3.481  0.0727  0.5487 -0.5452
   26MOL    C9619646   4.708   1.475   3.541  0.0330  0.5697 -0.4204
   26MOL    O9719647   4.625   1.393   3.499  0.7363 -0.1687  0.0400
   26MOL    O9819648   4.688   1.549   3.654 -0.6569  0.5698 -0.3432
   26MOL    C9919649   4.852   1.471   3.346 -0.0884 -0.1518 -0.6502
   26MOL   C10019650   4.978   1.491   3.290 -0.5577 -0.7581  0.0748
   26MOL   H10119651   5.293   1.755   3.019 -0.9364 -0.1476  0.4107
   26MOL   H10219652   5.141   1.666   3.018 -0.8548 -0.2868 -1.6196
   26MOL   H10319653   5.133   1.817   2.808 -0.8752 -0.6953 -1.6631
   26MOL   H10419654   5.292   1.770   2.773 -1.3771  1.0116 -0.7395
   26MOL   H10519655   5.054   1.592   2.746  0.4166 -3.7019 -0.2682
   26MOL   H10619656   5.061   1.756   2.564  0.2692  0.1258 -5.9863
   26MOL   H10719657   5.231   1.714   2.532  1.0613 -2.9948  1.7642
   26MOL   H10819658   5.216   1.428   2.651 -2.1265 -0.4389  0.6214
   26MOL   H10919659   5.346   1.541   2.688 -0.0059 -1.4530 -1.3539
   26MOL   H11019660   5.317   1.347   2.872 -0.3870  0.0830 -0.2490
   26MOL   H11119661   5.169   1.424   2.906 -0.7097  4.9255  1.1627
   26MOL   H11219662   5.423   1.574   2.931  0.0726  1.2982 -0.5464
   26MOL   H11319663   5.376   1.390   3.076 -0.2294 -0.1890  1.9490
   26MOL   H11419664   5.429   1.547   3.151  0.3374 -0.8204  1.3783
   26MOL   H11519665   5.151   1.630   3.537 -0.0507  0.6674 -0.5161
   26MOL   H11619666   4.933   1.584   3.659  0.8233 -0.1462 -0.0513
   26MOL   H11719667   4.778   1.421   3.285  0.4078 -1.2466 -0.3830
   26MOL   H11819668   5.003   1.456   3.191 -3.0594  0.0290 -0.8812
   26MOL   C11919669   4.544   1.844   4.013  0.3052 -0.3072  0.7670
   26MOL   C12019670   4.533   1.714   3.933  0.4393  0.2845 -0.0389
   26MOL   C12119671   4.504   1.739   3.774 -0.7753 -0.4846 -0.4166
   26MOL   C12219672   4.468   1.605   3.705 -0.2834  0.0512 -0.0240
   26MOL   O12319673   4.566   1.511   3.728  0.1094  0.4643 -0.2574
   26MOL   C12419674   4.387   1.839   3.756  0.6580  0.1094  0.3151
   26MOL   C12519675   4.414   1.967   3.830 -0.2130 -0.2568 -0.3152
   26MOL   C12619676   4.431   1.947   3.983 -0.2486  0.1534 -0.1396
   26MOL   C12719677   4.448   2.083   4.047  0.0976  0.9620 -0.2292
   26MOL   O12819678   4.487   2.061   4.182 -0.4069 -0.8212 -0.2206
   26MOL   C12919679   4.398   2.056   4.277 -0.0291  0.5557  0.2168
   26MOL   O13019680   4.281   2.092   4.262 -0.1399 -0.3422 -0.8138
   26MOL   C13119681   4.460   2.017   4.407 -0.1972  0.6577 -0.0039
   26MOL   C13219682   4.597   1.984   4.422 -0.2769 -0.2782 -0.5804
   26MOL   C13319683   4.648   1.947   4.548  0.0037 -0.2741  1.0306
   26MOL   C13419684   4.568   1.929   4.663  0.2070 -0.4776  0.1031
   26MOL   C13519685   4.619   1.874   4.796 -0.9004 -0.1676 -0.2515
   26MOL   O13619686   4.548   1.855   4.893 -0.2696 -0.3403 -0.6102
   26MOL   O13719687   4.749   1.843   4.793 -0.4447 -0.4807  0.0386
   26MOL   C13819688   4.431   1.966   4.653  0.2717 -0.4543  0.5217
   26MOL   C13919689   4.379   2.009   4.526 -0.1864  0.4302 -0.1960
   26MOL   H14019690   4.550   1.822   4.119 -0.4919 -3.5999  0.1823
   26MOL   H14119691   4.640   1.889   3.989  0.2787  0.3361  1.8467
   26MOL   H14219692   4.622   1.653   3.948  1.9103  2.2733 -0.5200
   26MOL   H14319693   4.446   1.659   3.969  2.0376 -0.7231  2.3377
   26MOL   H14419694   4.589   1.789   3.727 -0.4137 -0.5581  0.1582
   26MOL   H14519695   4.369   1.581   3.745 -0.4105  0.6608  0.0384
   26MOL   H14619696   4.457   1.623   3.599  0.7426  0.9078  0.0095
   26MOL   H14719697   4.372   1.865   3.651 -2.0836  0.6218  0.7853
   26MOL   H14819698   4.294   1.789   3.782  0.1440  0.8381 -0.0813
   26MOL   H14919699   4.335   2.038   3.808  0.7974  1.7632  2.3296
   26MOL   H15019700   4.506   2.002   3.783 -0.4882 -1.3450 -1.7145
   26MOL   H15119701   4.335   1.911   4.019 -0.6184  0.3207 -0.9330
   26MOL   H15219702   4.529   2.133   3.994 -0.7227  2.5924  0.0187
   26MOL   H15319703   4.363   2.152   4.048  0.1477  1.0287 -0.5158
   26MOL   H15419704   4.662   1.981   4.336 -0.0493 -2.9620 -0.3636
   26MOL   H15519705   4.755   1.929   4.545  0.1799  1.0104 -1.8213
   26MOL   H15619706   4.370   1.981   4.741 -0.9086  0.6679 -0.4660
   26MOL   H15719707   4.277   2.044   4.529 -0.9082 -1.5666 -0.5726
   26MOL   C15819708   5.096   1.710   5.240  0.4332  0.4257 -0.1471
   26MOL   C15919709   5.035   1.699   5.101 -0.5356 -0.1879  0.2574
   26MOL   C16019710   4.882   1.695   5.108  0.8964  0.0220  0.5355
   26MOL   C16119711   4.818   1.688   4.972 -0.5021 -0.4362  0.3679
   26MOL   O16219712   4.793   1.827   4.941 -0.2593 -0.9994 -0.9227
   26MOL   C16319713   4.841   1.570   5.191  0.0210 -0.3403  0.6380
   26MOL   C16419714   4.903   1.578   5.329  0.4808  0.4209  0.0722
   26MOL   C16519715   5.056   1.596   5.330 -0.2357 -0.3370 -0.1638
   26MOL   C16619716   5.128   1.598   5.465  0.2716  0.1818 -0.3459
   26MOL   O16719717   5.270   1.597   5.450  0.0019 -0.1585 -0.0996
   26MOL   C16819718   5.334   1.481   5.459  0.1191  0.0603 -0.1195
   26MOL   O16919719   5.279   1.378   5.485 -0.1156 -0.2332 -0.3701
   26MOL   C17019720   5.480   1.486   5.425 -0.7200 -0.3945 -0.4453
   26MOL   C17119721   5.552   1.360   5.426 -0.7818  0.3478  1.3097
   26MOL   C17219722   5.690   1.357   5.397  0.0608  0.5824  0.0030
   26MOL   C17319723   5.756   1.478   5.375  0.1901  0.2766  0.0166
   26MOL   C17419724   5.904   1.479   5.365 -0.3632  0.4341  0.2385
   26MOL   O17519725   5.977   1.401   5.425  0.3312 -0.5258  0.2420
   26MOL   O17619726   5.949   1.581   5.292 -0.5586  0.2775 -0.5696
   26MOL   C17719727   5.684   1.602   5.367 -0.1910  0.4704  0.4166
   26MOL   C17819728   5.548   1.605   5.388 -0.3209  0.5072 -0.3045
   26MOL   H17919729   5.204   1.717   5.238  0.4892 -0.6006 -2.1292
   26MOL   H18019730   5.074   1.808   5.283  1.5371  0.2330  0.8648
   26MOL   H18119731   5.071   1.790   5.053  0.3630 -0.8591 -0.3736
   26MOL   H18219732   5.090   1.624   5.044  0.4440 -1.0338  2.2638
   26MOL   H18319733   4.839   1.781   5.159 -1.0614 -1.5194  1.5800
   26MOL   H18419734   4.885   1.631   4.908 -1.7582 -2.4981  0.8428
   26MOL   H18519735   4.723   1.635   4.971 -1.3488  1.0411  0.1692
   26MOL   H18619736   4.732   1.577   5.196 -0.2401 -2.5033 -1.0566
   26MOL   H18719737   4.880   1.480   5.143 -0.0889  0.2479 -0.5524
   26MOL   H18819738   4.879   1.484   5.377  2.1201  0.7313  1.5829
   26MOL   H18919739   4.851   1.654   5.388 -1.7277 -0.9182 -0.1056
   26MOL   H19019740   5.092   1.506   5.280 -0.3557 -0.6510  0.3181
   26MOL   H19119741   5.106   1.689   5.520 -0.6275 -0.2412  0.0109
   26MOL   H19219742   5.093   1.518   5.529 -2.5680  0.0001 -2.0395
   26MOL   H19319743   5.509   1.265   5.453  0.6863 -0.8537 -0.4531
   26MOL   H19419744   5.741   1.263   5.415 -3.4691 -1.9510 -2.4650
   26MOL   H19519745   5.742   1.693   5.363  0.9784 -0.3239 -2.0149
   26MOL   H19619746   5.509   1.706   5.382  0.7333  0.9343 -0.1348
   26MOL   C19719747   6.517   1.495   5.371  0.2730  1.0621  0.0048
   26MOL   C19819748   6.368   1.481   5.350 -0.1997  0.1091  0.3833
   26MOL   C19919749   6.320   1.549   5.214  0.0352 -0.0298  0.2337
   26MOL   C20019750   6.167   1.545   5.206  0.9743 -0.2772  0.0836
   26MOL   O20119751   6.102   1.610   5.311 -0.0402  0.0439 -0.5328
   26MOL   C20219752   6.380   1.689   5.183  0.5133  0.4822  0.1481
   26MOL   C20319753   6.534   1.693   5.209  0.4897  0.8058 -0.2340
   26MOL   C20419754   6.565   1.638   5.349 -0.3612  0.2696  0.4168
   26MOL   C20519755   6.708   1.645   5.386 -0.7961  0.1562 -0.3649
   26MOL   O20619756   6.792   1.570   5.306  0.2294  0.3449  0.1529
   26MOL   C20719757   6.926   1.571   5.334  0.2299 -0.6526 -0.0248
   26MOL   O20819758   6.984   1.639   5.421 -0.4394  0.1016 -0.2255
   26MOL   C20919759   7.009   1.491   5.240 -0.2590  0.6679  0.5596
   26MOL   C21019760   6.958   1.403   5.144  0.2272 -0.3801  0.0222
   26MOL   C21119761   7.052   1.330   5.064 -0.6218 -0.4345 -0.0427
   26MOL   C21219762   7.190   1.338   5.091 -0.1811  0.3063 -0.4190
   26MOL   C21319763   7.285   1.264   5.002 -0.0214  0.3286  0.4485
   26MOL   O21419764   7.411   1.254   5.014 -0.4126  0.4534  0.2837
   26MOL   O21519765   7.220   1.207   4.901 -0.1558 -0.2380  0.3068
   26MOL   C21619766   7.236   1.418   5.194 -0.1492  0.0726  0.4580
   26MOL   C21719767   7.151   1.497   5.267  0.1151  0.2225 -0.3057
   26MOL   H21819768   6.552   1.459   5.468 -0.0833  1.3045  0.2223
   26MOL   H21919769   6.561   1.430   5.295 -1.7197 -1.3514  0.8268
   26MOL   H22019770   6.347   1.375   5.332 -0.6975  0.1054  0.9659
   26MOL   H22119771   6.308   1.519   5.432  0.3090  0.3927  0.6232
   26MOL   H22219772   6.374   1.497   5.135  0.1178 -1.2351  1.0786
   26MOL   H22319773   6.130   1.578   5.110 -0.7170  2.4579  1.6242
   26MOL   H22419774   6.139   1.440   5.215 -0.3605 -0.0433 -1.2586
   26MOL   H22519775   6.370   1.732   5.083  4.2494  0.4512 -0.3085
   26MOL   H22619776   6.332   1.756   5.255 -1.2584 -0.0198 -0.5310
   26MOL   H22719777   6.564   1.797   5.194 -0.8374  1.3830  0.9695
   26MOL   H22819778   6.590   1.626   5.144  0.0085  0.2526 -0.0765
   26MOL   H22919779   6.512   1.708   5.414 -0.2655  0.1754  0.5970
   26MOL   H23019780   6.749   1.745   5.372  0.7487 -0.2330  1.3178
   26MOL   H23119781   6.713   1.602   5.486 -0.0919 -0.9553 -0.8597
   26MOL   H23219782   6.852   1.388   5.126 -0.5492  1.2741  2.8580
   26MOL   H23319783   7.016   1.267   4.983 -2.2022 -0.7331  0.8694
   26MOL   H23419784   7.344   1.425   5.203 -0.0380 -0.5015 -0.3232
   26MOL   H23519785   7.196   1.554   5.347  0.2253  0.1795 -0.3378
   26MOL   C23619786   6.936   1.207   4.573  0.8159  0.0066 -0.5153
   26MOL   C23719787   7.077   1.142   4.595  0.1309 -0.0062 -0.1045
   26MOL   C23819788   7.181   1.248   4.633  0.4352  0.7265 -0.6241
   26MOL   C23919789   7.313   1.189   4.684 -0.0829  0.3837  0.5990
   26MOL   O24019790   7.303   1.122   4.805  0.2670  0.0846 -0.1084
   26MOL   C24119791   7.191   1.341   4.517 -0.0100  0.6882 -1.1814
   26MOL   C24219792   7.059   1.409   4.481  0.0003 -0.1372  0.4331
   26MOL   C24319793   6.939   1.310   4.463 -0.1863  0.3566  0.4226
   26MOL   C24419794   6.804   1.388   4.458 -0.5169  0.4141 -0.5957
   26MOL   O24519795   6.692   1.304   4.435  0.4580 -0.9115 -0.3430
   26MOL   C24619796   6.570   1.322   4.499 -0.4106 -1.0716 -0.3033
   26MOL   O24719797   6.554   1.411   4.581  0.8061 -0.6711  0.2067
   26MOL   C24819798   6.458   1.248   4.435 -0.4502 -0.1698 -0.6532
   26MOL   C24919799   6.479   1.166   4.318  0.5505 -0.1245  0.0635
   26MOL   C25019800   6.370   1.105   4.250  0.5810 -0.2659  0.1058
   26MOL   C25119801   6.239   1.129   4.293  0.0404  0.6283  0.4433
   26MOL   C25219802   6.128   1.072   4.213  0.2261 -0.7178 -0.7591
   26MOL   O25319803   6.145   0.983   4.133  0.4616 -0.1339 -0.3369
   26MOL   O25419804   6.012   1.129   4.250  0.3036  0.0070 -0.4545
   26MOL   C25519805   6.217   1.211   4.407 -0.0386  0.1233  0.4404
   26MOL   C25619806   6.328   1.282   4.467 -0.7973 -0.2246 -0.4833
   26MOL   H25719807   6.852   1.140   4.556 -0.0911  0.8189  0.6465
   26MOL   H25819808   6.917   1.252   4.671 -1.4107 -1.0408 -0.4279
   26MOL   H25919809   7.070   1.064   4.671 -0.6941 -0.6199 -0.8003
   26MOL   H26019810   7.104   1.085   4.505  0.1966 -0.1921  0.0325
   26MOL   H26119811   7.139   1.307   4.715  0.1240 -1.2469  0.6864
   26MOL   H26219812   7.342   1.116   4.608 -0.7094 -0.6858  1.3910
   26MOL   H26319813   7.392   1.263   4.696 -0.6605  0.9094  1.1669
   26MOL   H26419814   7.260   1.421   4.545  0.5738  0.4422 -1.9014
   26MOL   H26519815   7.229   1.288   4.430  2.1298 -0.5590  0.4685
   26MOL   H26619816   7.077   1.468   4.391 -3.3761 -0.4226 -0.4967
   26MOL   H26719817   7.036   1.483   4.557  2.0579  1.2235 -0.2285
   26MOL   H26819818   6.948   1.248   4.374  0.7156 -3.5306  3.0786
   26MOL   H26919819   6.789   1.424   4.560  1.8969 -0.3893  0.0677
   26MOL   H27019820   6.810   1.477   4.395 -1.2133  1.4397  0.7380
   26MOL   H27119821   6.579   1.143   4.283  0.5466 -0.9147  0.5309
   26MOL   H27219822   6.380   1.047   4.160  0.6552  0.4667 -0.3613
   26MOL   H27319823   6.120   1.237   4.446  0.3706 -0.3789  1.8295
   26MOL   H27419824   6.312   1.353   4.547 -1.4404  0.0097 -0.8200
   26MOL   C27519825   5.471   1.038   4.123 -0.3736  0.2002 -0.1492
   26MOL   C27619826   5.606   1.091   4.163 -0.5289 -0.0798  0.4263
   26MOL   C27719827   5.709   1.081   4.050 -0.0307  0.4620 -0.0608
   26MOL   C27819828   5.846   1.139   4.089  0.0218 -0.1927 -0.0507
   26MOL   O27919829   5.896   1.055   4.188 -0.1339 -0.3893  0.7522
   26MOL   C28019830   5.720   0.940   3.996  0.0696  0.2259 -0.5731
   26MOL   C28119831   5.585   0.885   3.943  0.5562 -0.1413  0.2178
   26MOL   C28219832   5.485   0.895   4.064 -0.6351  0.3394  0.5803
   26MOL   C28319833   5.348   0.850   4.014  0.1755  0.0434  0.4463
   26MOL   O28419834   5.307   0.726   4.062 -0.7422 -0.6508  0.2114
   26MOL   C28519835   5.195   0.677   4.023 -0.6243 -0.6347  0.2197
   26MOL   O28619836   5.099   0.738   3.975 -0.0084  0.5295  0.7131
   26MOL   C28719837   5.184   0.531   4.058 -0.5043  0.1497 -0.3444
   26MOL   C28819838   5.292   0.444   4.072  0.2638 -0.2086  0.2494
   26MOL   C28919839   5.274   0.313   4.111  0.3636 -0.2656  0.8698
   26MOL   C29019840   5.144   0.265   4.147 -0.4457  0.5293 -0.5330
   26MOL   C29119841   5.116   0.122   4.187  0.4330 -0.2219 -0.2074
   26MOL   O29219842   5.006   0.072   4.205  0.0173  0.4747 -0.5718
   26MOL   O29319843   5.229   0.052   4.175 -0.2305 -0.7461 -0.4527
   26MOL   C29419844   5.036   0.357   4.133 -0.4395  0.2462 -0.2016
   26MOL   C29519845   5.053   0.487   4.080  0.4477  0.3172 -0.1460
   26MOL   H29619846   5.401   1.045   4.206  1.9180 -1.5651  1.9803
   26MOL   H29719847   5.441   1.108   4.044  1.4902  0.0656 -1.0093
   26MOL   H29819848   5.602   1.193   4.202  1.5217  0.2813 -0.1969
   26MOL   H29919849   5.643   1.029   4.245 -1.7684 -0.3941  0.7531
   26MOL   H30019850   5.677   1.148   3.970  0.9537  2.3748  1.1308
   26MOL   H30119851   5.916   1.135   4.006 -1.0748  1.0134 -1.0546
   26MOL   H30219852   5.836   1.242   4.121 -1.6507  0.5186 -2.6751
   26MOL   H30319853   5.780   0.937   3.904 -2.1215 -1.3115 -2.0092
   26MOL   H30419854   5.770   0.868   4.061 -0.6455 -0.9031 -1.2430
   26MOL   H30519855   5.600   0.780   3.918  1.1190  0.3115 -1.4004
   26MOL   H30619856   5.557   0.955   3.865  0.6080 -1.7139 -1.2459
   26MOL   H30719857   5.517   0.827   4.142 -1.3247  0.1050  0.6601
   26MOL   H30819858   5.286   0.936   4.038  1.8934  1.4501 -0.0789
   26MOL   H30919859   5.338   0.836   3.906 -1.0168  0.2032  0.5302
   26MOL   H31019860   5.394   0.479   4.060  1.4217 -3.3958  0.3911
   26MOL   H31119861   5.359   0.247   4.115  1.0498  0.5020 -0.5792
   26MOL   H31219862   4.936   0.325   4.157  0.0673  0.4093  2.1989
   26MOL   H31319863   4.966   0.548   4.061 -1.1751 -1.2205  2.0997
   26MOL   C31419864   5.017   7.537   4.146  1.1540  0.2386  0.9269
   26MOL   C31519865   5.059   7.687   4.157  0.4781 -0.2841  0.4561
   26MOL   C31619866   5.186   7.715   4.246  0.2339 -0.3615  0.2296
   26MOL   C31719867   5.204   7.870   4.267 -0.3327 -0.5311  0.1419
   26MOL   O31819868   5.201   7.943   4.147 -0.3954 -0.2108 -0.0733
   26MOL   C31919869   5.191   7.631   4.377  0.5006 -0.1764 -0.1980
   26MOL   C32019870   5.168   7.482   4.345 -0.3107  0.1612  0.3787
   26MOL   C32119871   5.033   7.458   4.279 -0.6522  0.4998  0.3576
   26MOL   C32219872   5.024   7.309   4.247 -0.6309  0.3102 -0.3558
   26MOL   O32319873   5.023   7.240   4.366 -0.0561  0.4420 -0.4364
   26MOL   C32419874   4.944   7.141   4.386  0.4987 -0.7597  0.8968
   26MOL   O32519875   4.877   7.089   4.293 -0.1668 -0.6858 -0.3730
   26MOL   C32619876   4.929   7.100   4.530  0.0298  0.5997  0.3651
   26MOL   C32719877   4.841   6.991   4.565  0.5033 -0.2254 -0.0662
   26MOL   C32819878   4.826   6.954   4.696  0.1682  0.0904  0.0736
   26MOL   C32919879   4.881   7.024   4.804 -0.3279  0.0210 -0.5375
   26MOL   C33019880   4.853   6.993   4.949 -0.3224  0.7756 -0.2906
   26MOL   O33119881   4.803   6.890   4.979  0.2473  0.8791  0.0464
   26MOL   O33219882   4.880   7.093   5.042  0.1367 -0.2579  0.5189
   26MOL   C33319883   4.982   7.116   4.772  0.0814 -0.1633 -0.4902
   26MOL   C33419884   4.999   7.161   4.638 -0.8314 -0.4492  0.1457
   26MOL   H33519885   4.914   7.539   4.113  1.8604  0.4085 -1.3853
   26MOL   H33619886   5.079   7.486   4.072 -0.8614 -0.3044 -0.4034
   26MOL   H33719887   5.070   7.727   4.056 -0.4026 -1.0894  0.0381
   26MOL   H33819888   4.976   7.739   4.205 -2.4799 -3.1816 -1.3082
   26MOL   H33919889   5.264   7.679   4.179  0.6046  1.5616 -0.3881
   26MOL   H34019890   5.136   7.910   4.343 -0.4139  1.8235 -1.1184
   26MOL   H34119891   5.298   7.893   4.317 -1.0805  0.1541  1.2727
   26MOL   H34219892   5.288   7.632   4.426 -0.8516  1.9063  2.5900
   26MOL   H34319893   5.117   7.669   4.448  0.3953 -0.0678 -0.3661
   26MOL   H34419894   5.176   7.426   4.439  0.2785 -0.5488 -0.0882
   26MOL   H34519895   5.246   7.443   4.280 -0.5978  1.0151 -0.4769
   26MOL   H34619896   4.953   7.484   4.349 -3.3571 -2.6445 -1.4441
   26MOL   H34719897   4.938   7.289   4.184 -1.6227  3.9059 -0.2179
   26MOL   H34819898   5.114   7.280   4.192 -1.4526 -2.3033 -0.3912
   26MOL   H34919899   4.792   6.935   4.487  1.0753  0.2395 -0.7714
   26MOL   H35019900   4.771   6.864   4.717 -1.6323  0.8098 -1.3750
   26MOL   H35119901   5.042   7.161   4.850 -3.0387 -1.6822  2.9642
   26MOL   H35219902   5.062   7.243   4.609 -0.1369 -1.1651 -0.3988
   26MOL   C35319903   5.192   6.824   5.359  0.0026  0.3135 -0.4064
   26MOL   C35419904   5.058   6.890   5.347 -0.4458 -0.2781  0.2100
   26MOL   C35519905   5.064   7.039   5.292 -0.1295  0.1207  0.3265
   26MOL   C35619906   4.928   7.114   5.272 -0.6163 -0.1104  0.2314
   26MOL   O35719907   4.831   7.072   5.180 -0.2054  0.1454 -0.3963
   26MOL   C35819908   5.165   7.127   5.363  0.3518 -0.0048  0.2392
   26MOL   C35919909   5.304   7.061   5.388  0.4173  0.3978 -0.2295
   26MOL   C36019910   5.284   6.918   5.447 -0.1738 -0.8263 -0.5331
   26MOL   C36119911   5.425   6.860   5.474 -0.1230  0.3387  0.5694
   26MOL   O36219912   5.482   6.924   5.585  0.3015  0.4137  0.2031
   26MOL   C36319913   5.610   6.899   5.618 -0.5447  0.2400  0.6360
   26MOL   O36419914   5.680   6.805   5.576 -0.3924  0.5875 -0.2238
   26MOL   C36519915   5.661   6.996   5.722 -0.2731 -0.1700  0.3075
   26MOL   C36619916   5.792   6.977   5.773 -0.5517  0.0559  0.0678
   26MOL   C36719917   5.852   7.070   5.863 -0.6858 -0.3014 -0.0423
   26MOL   C36819918   5.775   7.178   5.919 -0.1904  0.2244  0.2606
   26MOL   C36919919   5.824   7.262   6.023 -0.6015 -0.1841 -0.3503
   26MOL   O37019920   5.940   7.300   6.034  0.3417  0.2431  0.1007
   26MOL   O37119921   5.723   7.284   6.113  0.1739 -0.8357  0.3921
   26MOL   C37219922   5.644   7.195   5.869  0.3897 -0.5157 -0.5461
   26MOL   C37319923   5.588   7.107   5.774 -1.1897 -0.1513  0.4177
   26MOL   H37419924   5.197   6.724   5.401 -3.2819 -0.3415 -1.4577
   26MOL   H37519925   5.234   6.826   5.258 -0.4508  0.0317 -0.6008
   26MOL   H37619926   4.991   6.833   5.282 -2.1401  1.8876 -0.0122
   26MOL   H37719927   5.007   6.881   5.442  0.8707  0.0309  0.9575
   26MOL   H37819928   5.114   7.028   5.196 -1.1057 -0.7842 -0.0912
   26MOL   H37919929   4.882   7.113   5.371  1.2764 -0.4712  1.1262
   26MOL   H38019930   4.946   7.221   5.260 -1.9636 -0.1147 -1.9771
   26MOL   H38119931   5.168   7.226   5.317 -1.2588  0.0396  0.2186
   26MOL   H38219932   5.118   7.153   5.457 -0.9112 -0.8198 -0.1527
   26MOL   H38319933   5.364   7.123   5.454 -0.0913 -2.5545  3.1649
   26MOL   H38419934   5.355   7.057   5.292 -1.4306  1.6487 -1.3081
   26MOL   H38519935   5.234   6.927   5.544 -1.9615  0.1837 -1.5406
   26MOL   H38619936   5.426   6.756   5.506 -0.1351  0.4599  0.9762
   26MOL   H38719937   5.479   6.872   5.380  0.9187 -0.4551  1.0579
   26MOL   H38819938   5.856   6.896   5.740 -0.0387  0.8340 -0.8655
   26MOL   H38919939   5.958   7.062   5.881 -0.8389 -2.4377  0.1069
   26MOL   H39019940   5.576   7.270   5.907 -0.9399 -2.3437  0.7973
   26MOL   H39119941   5.486   7.110   5.741 -0.6512  1.9916 -1.2073
   26MOL   C39219942   5.949   7.493   6.628  0.3570  0.2879 -0.0976
   26MOL   C39319943   5.841   7.436   6.526  0.2322 -0.1309 -0.6882
   26MOL   C39419944   5.909   7.331   6.437  0.2172  0.5453  0.8086
   26MOL   C39519945   5.818   7.262   6.333 -0.9633  0.1272 -0.0370
   26MOL   O39619946   5.784   7.359   6.230  0.0663  0.6037  0.6691
   26MOL   C39719947   6.028   7.395   6.354 -0.1144 -0.6033 -0.4045
   26MOL   C39819948   6.139   7.461   6.444 -0.3064 -0.4523  0.4843
   26MOL   C39919949   6.062   7.559   6.543  0.6912 -0.3585 -0.3382
   26MOL   C40019950   6.168   7.629   6.633  1.0024  0.4123 -0.1987
   26MOL   O40119951   6.120   7.713   6.740  0.1374  0.7071 -0.4656
   26MOL   C40219952   6.143   7.840   6.738  0.2732  0.7810 -0.5283
   26MOL   O40319953   6.216   7.900   6.657  0.0368  0.6896 -0.2196
   26MOL   C40419954   6.081   7.903   6.856 -0.1602  0.2057 -0.6486
   26MOL   C40519955   5.982   7.836   6.940  0.8365  0.3659 -0.5184
   26MOL   C40619956   5.926   7.906   7.053  0.5387  0.4110  0.3480
   26MOL   C40719957   5.961   0.005   7.066  0.1137  0.3009  0.2984
   26MOL   C40819958   5.867   0.076   7.171  0.2386  0.3433  0.1600
   26MOL   O40919959   5.783   0.022   7.239 -0.7087 -0.0050  0.2287
   26MOL   O41019960   5.897   0.218   7.182 -0.3306 -0.1547 -0.5546
   26MOL   C41119961   6.065   0.069   6.993  0.0719  0.4715  0.2518
   26MOL   C41219962   6.123   8.035   6.891  0.6801 -0.1531  0.0572
   26MOL   H41319963   5.902   7.561   6.699  2.0697  0.1499  1.2078
   26MOL   H41419964   6.005   7.420   6.687 -1.0506  0.0803  1.0062
   26MOL   H41519965   5.763   7.390   6.586  1.9040 -2.0921  0.0385
   26MOL   H41619966   5.799   7.513   6.461 -0.8411 -0.4856 -0.4268
   26MOL   H41719967   5.955   7.256   6.501 -1.9589 -0.8084  0.8250
   26MOL   H41819968   5.882   7.188   6.285 -1.0678 -0.2578  0.4150
   26MOL   H41919969   5.735   7.215   6.385 -1.0395  1.1327  0.7780
   26MOL   H42019970   6.068   7.315   6.293 -1.8079 -1.2947 -0.6351
   26MOL   H42119971   5.994   7.469   6.281  0.2863  0.6081  0.6223
   26MOL   H42219972   6.222   7.510   6.392  1.8633 -2.4883  1.9057
   26MOL   H42319973   6.190   7.385   6.503  2.0317  1.5760  1.1931
   26MOL   H42419974   6.019   7.637   6.480  2.5465  1.4272  0.5707
   26MOL   H42519975   6.224   7.547   6.678  2.8989  1.6191 -0.3027
   26MOL   H42619976   6.239   7.680   6.568  1.0055 -0.9228 -1.2651
   26MOL   H42719977   5.957   7.732   6.927  1.9957  0.1883 -1.5128
   26MOL   H42819978   5.845   7.856   7.104  1.2829 -1.7064 -0.4998
   26MOL   H42919979   6.095   0.170   7.017 -2.5390  1.1494  0.8500
   26MOL   H43019980   6.200   0.037   6.825 -1.1244  1.7976 -1.0197
   26MOL   C43119981   6.246   0.448   7.486  0.7279  0.1475 -0.2997
   26MOL   C43219982   6.116   0.369   7.511  0.9854 -0.4279 -0.3611
   26MOL   C43319983   6.025   0.377   7.385  0.1489 -0.0411  0.1956
   26MOL   C43419984   5.904   0.293   7.413 -0.1580  0.0997  0.6400
   26MOL   O43519985   5.823   0.280   7.292  0.4575  0.1628 -0.2308
   26MOL   C43619986   5.988   0.515   7.341  0.4861 -0.5283  0.0877
   26MOL   C43719987   6.119   0.589   7.316 -0.1124 -0.1859  0.2821
   26MOL   C43819988   6.213   0.590   7.436 -0.3280  0.0524  0.0591
   26MOL   C43919989   6.337   0.677   7.424  0.3065 -0.0585 -0.0601
   26MOL   O44019990   6.403   0.692   7.548  0.0934 -0.2368  0.4388
   26MOL   C44119991   6.377   0.799   7.620 -0.4970 -0.0548  0.5655
   26MOL   O44219992   6.294   0.881   7.583  0.0817  0.3914 -0.5282
   26MOL   C44319993   6.463   0.809   7.744  0.1410  0.4100 -0.4819
   26MOL   C44419994   6.506   0.682   7.799  0.0983 -0.9870 -0.0898
   26MOL   C44519995   6.590   0.681   7.914  0.4286  0.1350 -0.3098
   26MOL   C44619996   6.648   0.799   7.956 -0.6726  0.0628 -0.1868
   26MOL   C44719997   6.747   0.803   0.034  0.6742 -0.1780  0.1760
   26MOL   O44819998   6.808   0.904   0.070  0.2523  0.2169  0.6154
   26MOL   O44919999   6.768   0.682   0.103  0.0881  0.8547 -0.2252
   26MOL   C45020000   6.611   0.924   7.902 -0.2812 -0.1027  0.2641
   26MOL   C45120001   6.512   0.931   7.799 -0.7738  0.2927  0.5498
   26MOL   H45220002   6.309   0.460   7.574 -0.3152  2.0818  0.2140
   26MOL   H45320003   6.307   0.396   7.413 -0.3956 -0.6419 -0.6823
   26MOL   H45420004   6.145   0.265   7.523  0.3443 -0.3409  2.3424
   26MOL   H45520005   6.060   0.404   7.599 -1.3708 -0.1746 -1.9046
   26MOL   H45620006   6.081   0.329   7.304 -2.3205 -1.1912 -0.8933
   26MOL   H45720007   5.931   0.192   7.444 -1.6472 -0.4058  0.3242
   26MOL   H45820008   5.834   0.338   7.483 -1.2305  0.2363 -0.5069
   26MOL   H45920009   5.935   0.504   7.246 -0.0650 -3.5286  0.6839
   26MOL   H46020010   5.932   0.573   7.414  1.1094 -1.2734  1.1544
   26MOL   H46120011   6.084   0.692   7.304  0.5603 -0.1808 -1.9055
   26MOL   H46220012   6.169   0.562   7.223  1.6965  1.3378  0.7686
   26MOL   H46320013   6.150   0.646   7.505 -0.0946  0.4773 -0.0703
   26MOL   H46420014   6.405   0.636   7.350 -1.9883 -0.3420 -2.0872
   26MOL   H46520015   6.305   0.768   7.374  1.6169 -1.4966 -3.7158
   26MOL   H46620016   6.459   0.594   7.758  0.7224 -0.8960 -1.0126
   26MOL   H46720017   6.605   0.586   7.963 -0.1384 -0.2445 -0.8520
   26MOL   H46820018   6.653   1.016   7.942 -0.0076 -1.0744  2.2655
   26MOL   H46920019   6.483   1.030   7.765 -1.0080 -0.2159 -0.7432
   26MOL   C47020020   7.107   0.266   0.060  0.1733 -0.1555  0.2412
   26MOL   C47120021   7.111   0.408   0.124  0.4058  0.9730 -0.1143
   26MOL   C47220022   6.986   0.490   0.108 -0.1713 -0.3142 -0.2447
   26MOL   C47320023   6.987   0.633   0.172  0.4876  0.1448  0.7033
   26MOL   O47420024   6.866   0.682   0.215 -0.1518 -0.2999  0.2008
   26MOL   C47520025   6.954   0.492   7.992  0.0470  0.2343 -0.2744
   26MOL   C47620026   6.934   0.351   7.931  0.2716 -0.1865  0.9529
   26MOL   C47720027   7.064   0.269   7.946  0.3614  1.0496 -0.1590
   26MOL   C47820028   7.053   0.126   7.883  0.2642 -0.2420 -0.4919
   26MOL   O47920029   7.012   0.151   7.751  0.0530  0.1501 -0.4655
   26MOL   C48020030   6.991   0.044   7.678 -0.5513 -0.8199  0.5593
   26MOL   O48120031   7.011   7.963   7.717  0.1524 -0.2343  0.3439
   26MOL   C48220032   6.942   0.079   7.544 -0.6909 -0.7622  0.5629
   26MOL   C48320033   6.942   0.211   7.496  0.3563 -0.3234  0.1236
   26MOL   C48420034   6.886   0.249   7.371  1.1242  0.4065  0.7582
   26MOL   C48520035   6.823   0.152   7.283  0.9565  0.2317 -0.4364
   26MOL   C48620036   6.757   0.181   7.154  0.1542  0.1227  0.5459
   26MOL   O48720037   6.711   0.298   7.131 -0.0005 -0.0178  0.3483
   26MOL   O48820038   6.779   0.085   7.064 -0.1234 -0.2402  0.1881
   26MOL   C48920039   6.829   0.020   7.334 -0.5738 -0.1166  0.2958
   26MOL   C49020040   6.887   8.013   7.458 -0.9666 -0.0479 -0.6087
   26MOL   H49120041   7.206   0.221   0.071  0.4752  0.5756  0.5823
   26MOL   H49220042   7.038   0.209   0.121  0.4211  0.9953  1.6332
   26MOL   H49320043   7.125   0.396   0.231  0.1620  1.7932  0.0119
   26MOL   H49420044   7.195   0.461   0.078  1.6453 -0.0286  0.9759
   26MOL   H49520045   6.910   0.442   0.169 -0.5673 -0.2939 -0.7197
   26MOL   H49620046   7.050   0.637   0.261 -1.1863 -2.0965  2.0235
   26MOL   H49720047   7.029   0.698   0.095  0.9925 -1.6787 -0.6026
   26MOL   H49820048   6.863   0.551   7.980  0.2920  0.5975 -0.3203
   26MOL   H49920049   7.039   0.541   7.946  1.2915 -0.0792  1.6186
   26MOL   H50020050   6.897   0.356   7.828 -0.3020 -1.0248  1.1128
   26MOL   H50120051   6.864   0.289   7.986  0.6502  0.7225  2.4858
   26MOL   H50220052   7.140   0.323   7.889  0.0116  0.1982 -1.4685
   26MOL   H50320053   7.152   0.086   7.905 -0.7676 -2.3972  0.4202
   26MOL   H50420054   6.975   0.071   7.937 -0.0931  0.1189 -0.6386
   26MOL   H50520055   6.975   0.288   7.564  2.1887 -0.4600 -0.5800
   26MOL   H50620056   6.871   0.354   7.350 -2.1078 -0.2027 -0.2314
   26MOL   H50720057   6.787   7.978   7.271 -0.1839  1.3304 -1.7824
   26MOL   H50820058   6.871   7.912   7.495 -2.9882  0.0540 -1.1539
   26MOL   C50920059   6.748   7.726   6.864 -0.1675 -0.1768 -0.6933
   26MOL   C51020060   6.733   7.873   6.841 -0.5338  0.4172 -0.1593
   26MOL   C51120061   6.611   7.935   6.917  0.4957  0.2482 -0.7865
   26MOL   C51220062   6.605   0.050   6.904  0.1372 -0.1397  0.4156
   26MOL   O51320063   6.724   0.118   6.919 -0.0503 -0.1413  0.4155
   26MOL   C51420064   6.485   7.854   6.887  0.3300 -0.0406 -0.1087
   26MOL   C51520065   6.508   7.705   6.898 -0.2939  0.2779 -0.5213
   26MOL   C51620066   6.624   7.644   6.822  0.3918 -0.9280 -0.2359
   26MOL   C51720067   6.640   7.503   6.861 -0.2997  0.2505  0.4475
   26MOL   O51820068   6.532   7.423   6.826 -0.0904  0.0438 -0.5945
   26MOL   C51920069   6.533   7.333   6.714 -0.3686 -0.2371  0.8599
   26MOL   O52020070   6.630   7.302   6.648 -0.1763  0.5523 -0.2977
   26MOL   C52120071   6.403   7.262   6.697  0.1151  0.0381  0.5255
   26MOL   C52220072   6.391   7.155   6.608 -0.4441  0.5327  0.4516
   26MOL   C52320073   6.269   7.086   6.605  0.0550 -0.0200 -0.0882
   26MOL   C52420074   6.159   7.123   6.679  0.3404  0.8285 -1.1921
   26MOL   C52520075   6.040   7.041   6.691  0.8733 -0.2367 -0.2982
   26MOL   O52620076   6.029   6.931   6.636  0.7931 -0.1553 -0.3124
   26MOL   O52720077   5.947   7.090   6.779  0.1807  0.3899 -0.4123
   26MOL   C52820078   6.173   7.225   6.771 -0.2441  0.0370  0.0759
   26MOL   C52920079   6.290   7.299   6.774 -0.7417 -0.2765 -0.8162
   26MOL   H53020080   6.832   7.700   6.798  0.8724  1.7373 -0.1781
   26MOL   H53120081   6.781   7.699   6.964  0.1808 -3.0360 -1.5407
   26MOL   H53220082   6.820   7.930   6.872  0.0829 -0.9406  0.6562
   26MOL   H53320083   6.722   7.888   6.733  1.0739 -0.9289 -0.5175
   26MOL   H53420084   6.631   7.909   7.021  1.4433 -2.3534 -1.5715
   26MOL   H53520085   6.578   0.072   6.801  0.7431 -0.2459  0.2314
   26MOL   H53620086   6.534   0.091   6.975 -0.0053  1.6781 -0.7588
   26MOL   H53720087   6.401   7.878   6.952 -1.3546 -1.4374 -1.7030
   26MOL   H53820088   6.433   7.886   6.796 -1.2401  1.3377  1.2233
   26MOL   H53920089   6.424   7.642   6.867 -1.5979  0.6304  2.2300
   26MOL   H54020090   6.509   7.679   7.004 -0.6802  0.4104 -0.4833
   26MOL   H54120091   6.625   7.652   6.713  2.3011  0.2974 -0.1558
   26MOL   H54220092   6.734   7.466   6.820 -0.4832  0.7509 -0.4406
   26MOL   H54320093   6.660   7.495   6.967  0.4880 -0.5991  0.2386
   26MOL   H54420094   6.481   7.131   6.554  0.1401  2.2297  0.6418
   26MOL   H54520095   6.259   6.993   6.552 -2.7145  0.1202  0.1159
   26MOL   H54620096   6.102   7.250   6.849 -0.4960  1.2565 -0.5164
   26MOL   H54720097   6.309   7.362   6.859 -2.6196  1.0819 -1.3950
   26MOL   C54820098   5.355   7.019   6.613  0.3256  0.0609 -0.5448
   26MOL   C54920099   5.505   7.070   6.589  0.6732 -0.2208  0.3618
   26MOL   C55020100   5.588   7.020   6.710 -0.4624  0.2383  0.0614
   26MOL   C55120101   5.726   7.076   6.690  0.6390  0.6322  0.1444
   26MOL   O55220102   5.813   7.016   6.780  0.2292 -0.1167 -0.5588
   26MOL   C55320103   5.531   7.069   6.842 -0.4646 -0.4425 -0.1685
   26MOL   C55420104   5.383   7.034   6.860  0.2617 -0.2658  0.6035
   26MOL   C55520105   5.297   7.082   6.738 -0.3202 -0.7612 -0.1426
   26MOL   C55620106   5.144   7.046   6.760  0.8249 -0.1286  0.1597
   26MOL   O55720107   5.072   7.115   6.659  0.1855  0.2552  0.1678
   26MOL   C55820108   5.019   7.055   6.545 -0.4801  0.5052 -0.4217
   26MOL   O55920109   5.033   6.931   6.521 -0.6500 -0.4899  0.3269
   26MOL   C56020110   4.933   7.143   6.456  0.3286  0.3571 -0.2398
   26MOL   C56120111   4.919   7.285   6.480 -0.2189 -0.0913 -0.4497
   26MOL   C56220112   4.852   7.365   6.389 -0.5269  0.8025  0.2920
   26MOL   C56320113   4.783   7.305   6.277  0.0243  0.1545  0.2402
   26MOL   C56420114   4.695   7.385   6.192 -0.0740 -0.1514  1.0986
   26MOL   O56520115   4.645   7.343   6.088  0.4735 -0.2734 -0.3004
   26MOL   O56620116   4.663   7.504   6.258 -0.0640  0.0083  0.1014
   26MOL   C56720117   4.798   7.166   6.249 -0.3684 -0.1572 -0.1816
   26MOL   C56820118   4.873   7.087   6.339  0.3351 -0.5705  0.1396
   26MOL   H56920119   5.296   7.046   6.525 -0.8073 -0.0697  0.1715
   26MOL   H57020120   5.352   6.911   6.607  0.7744  0.1002 -1.4921
   26MOL   H57120121   5.544   7.011   6.506  1.4489  2.2562 -1.1020
   26MOL   H57220122   5.496   7.177   6.573 -0.4348  0.1727  3.3849
   26MOL   H57320123   5.595   6.912   6.712  0.4267  0.3086  1.2462
   26MOL   H57420124   5.758   7.034   6.595 -0.3208 -0.7867  0.4356
   26MOL   H57520125   5.716   7.184   6.701  0.3207  0.4740  1.5101
   26MOL   H57620126   5.580   7.029   6.931 -0.8814 -1.2270 -0.2861
   26MOL   H57720127   5.530   7.178   6.837  1.1949 -0.4352 -0.8214
   26MOL   H57820128   5.348   7.067   6.958 -1.6965 -0.6164  0.0398
   26MOL   H57920129   5.391   6.926   6.857 -1.6351 -0.4375  1.1313
   26MOL   H58020130   5.304   7.189   6.722 -1.7253 -0.1448  2.9916
   26MOL   H58120131   5.133   6.938   6.746  0.8285  0.2961 -3.4828
   26MOL   H58220132   5.111   7.070   6.861  1.2320 -0.6712  0.4271
   26MOL   H58320133   4.984   7.320   6.559  0.5052  1.3929 -1.6790
   26MOL   H58420134   4.869   7.471   6.404  0.5625  0.8014 -0.8350
   26MOL   H58520135   4.746   7.120   6.167 -0.5101  0.3071 -0.3562
   26MOL   H58620136   4.883   6.980   6.333  1.1355 -0.4601 -0.5486
   26MOL   C58720137   4.283   7.938   6.261  0.6631  0.1224  0.0740
   26MOL   C58820138   4.380   7.819   6.290  0.2178 -0.6352 -0.5032
   26MOL   C58920139   4.338   7.682   6.229 -0.0315  0.3990  0.0761
   26MOL   C59020140   4.438   7.575   6.255 -0.6547 -0.5285 -0.0230
   26MOL   O59120141   4.562   7.591   6.187 -0.3577  0.5251  0.1646
   26MOL   C59220142   4.199   7.646   6.286 -0.3181 -0.2163  0.0733
   26MOL   C59320143   4.100   7.758   6.275  0.6321  0.1130  0.4774
   26MOL   C59420144   4.150   7.897   6.328  0.2966  0.0646  0.6552
   26MOL   C59520145   4.048   8.006   6.316  0.0917  0.2866 -0.3257
   26MOL   O59620146   4.006   8.032   6.192 -0.8925 -0.5930 -0.0799
   26MOL   C59720147   3.892   0.050   6.171  1.0205 -0.0613 -0.8941
   26MOL   O59820148   3.816   0.097   6.258  0.6212 -0.0255  0.2776
   26MOL   C59920149   3.857   0.057   6.019 -0.6663  0.0167 -0.4111
   26MOL   C60020150   3.728   0.093   5.982  0.5190  0.6889  0.3500
   26MOL   C60120151   3.702   0.113   5.839  0.0170 -0.8011 -0.1638
   26MOL   C60220152   3.802   0.088   5.744 -0.2874 -0.2906  0.0992
   26MOL   C60320153   3.769   0.095   5.600  0.8008 -0.0390 -0.4180
   26MOL   O60420154   3.851   0.071   5.514 -0.4317  0.3097  0.2978
   26MOL   O60520155   3.645   0.153   5.575  0.2699  0.0259  0.1709
   26MOL   C60620156   3.935   0.054   5.782 -1.1084  0.6419  0.4764
   26MOL   C60720157   3.961   0.040   5.921  0.4337  0.2663 -0.1657
   26MOL   H60820158   4.327   8.035   6.285  1.1772 -0.6432  2.2944
   26MOL   H60920159   4.269   7.944   6.153  1.0606 -0.7629 -0.0302
   26MOL   H61020160   4.475   7.855   6.252  0.3642 -0.2730  0.1968
   26MOL   H61120161   4.400   7.805   6.396 -1.2801 -2.1683 -0.3803
   26MOL   H61220162   4.332   7.693   6.120  0.8008  0.0136 -0.0130
   26MOL   H61320163   4.448   7.552   6.361  2.8847  2.6261  0.4245
   26MOL   H61420164   4.403   7.478   6.218 -1.7606  0.0472 -0.5173
   26MOL   H61520165   4.168   7.558   6.230 -3.0498  0.8460 -0.1736
   26MOL   H61620166   4.209   7.619   6.391 -1.4267  0.2456  0.3109
   26MOL   H61720167   4.002   7.724   6.310  0.3452  1.7932  1.3299
   26MOL   H61820168   4.093   7.773   6.167 -1.1986 -0.9246  0.4339
   26MOL   H61920169   4.170   7.887   6.435  3.0337  1.6707  0.3499
   26MOL   H62020170   3.967   7.975   6.383 -0.0807 -0.0508 -0.6897
   26MOL   H62120171   4.090   0.065   6.350  0.5997  0.4684 -1.4484
   26MOL   H62220172   3.654   0.125   6.054  0.0339  0.8713 -0.2240
   26MOL   H62320173   3.600   0.141   5.815  0.0026 -1.1820 -0.5507
   26MOL   H62420174   4.010   0.053   5.704 -0.2949 -1.1763  1.2424
   26MOL   H62520175   4.060   0.027   5.964 -0.1146  1.4853  1.5175
   26MOL   C62620176   3.522   0.135   4.953  0.0633 -1.1136 -1.0267
   26MOL   C62720177   3.485   0.098   5.096  0.3993  0.3124  0.4233
   26MOL   C62820178   3.603   0.131   5.200  0.1913  0.0367 -0.5841
   26MOL   C62920179   3.560   0.107   5.346  0.3735 -0.0466 -0.7594
   26MOL   O63020180   3.632   0.200   5.428 -0.1224 -0.0610  0.0691
   26MOL   C63120181   3.734   0.056   5.157 -0.4409 -0.4300 -0.0308
   26MOL   C63220182   3.775   0.087   5.013  0.8077 -0.2666  0.3107
   26MOL   C63320183   3.660   0.065   4.916  0.5477  0.2495  0.0285
   26MOL   C63420184   3.690   0.122   4.776 -0.5378  1.1041  0.4961
   26MOL   O63520185   3.587   0.090   4.684  0.2430  0.1340  0.4660
   26MOL   C63620186   3.538   0.180   4.602  0.5174  0.1218 -0.3893
   26MOL   O63720187   3.561   0.302   4.602 -0.6617 -0.0671 -0.5468
   26MOL   C63820188   3.440   0.122   4.515 -0.3720 -0.2470 -0.3025
   26MOL   C63920189   3.393   8.020   4.521  0.6679 -0.2277  0.2909
   26MOL   C64020190   3.314   7.969   4.416  1.1670 -0.1172  0.7269
   26MOL   C64120191   3.266   0.009   4.312  0.2674 -0.0313  0.4697
   26MOL   C64220192   3.182   7.983   4.200  1.0250 -0.1833 -0.1799
   26MOL   O64320193   3.136   7.866   4.202  0.2433  0.5298  0.3127
   26MOL   O64420194   3.164   0.031   4.095 -0.0810 -0.2536 -0.1528
   26MOL   C64520195   3.308   0.140   4.310 -0.2084 -0.5294  0.0169
   26MOL   C64620196   3.386   0.199   4.412 -0.1381 -0.3256 -0.0714
   26MOL   H64720197   3.441   0.099   4.890 -0.2518 -1.7299 -0.2851
   26MOL   H64820198   3.546   0.238   4.925  4.2944 -1.6506  0.1725
   26MOL   H64920199   3.396   0.150   5.129 -0.8660 -1.2130 -0.4965
   26MOL   H65020200   3.469   8.026   5.105  0.4609  0.1645 -1.0598
   26MOL   H65120201   3.610   0.240   5.202 -1.3401  0.1261  0.5467
   26MOL   H65220202   3.454   0.129   5.362  0.3447 -1.8970  2.0381
   26MOL   H65320203   3.586   0.003   5.367  0.8894  0.0847 -0.7579
   26MOL   H65420204   3.810   0.102   5.221 -0.8564  1.8997 -1.1647
   26MOL   H65520205   3.733   7.984   5.175  0.0345 -0.6132 -1.0649
   26MOL   H65620206   3.863   0.034   4.978  0.2349 -1.1958  0.2436
   26MOL   H65720207   3.812   0.189   5.006 -0.2860  0.3083  2.3438
   26MOL   H65820208   3.637   7.994   4.909 -0.2788  0.5828 -2.7775
   26MOL   H65920209   3.701   0.229   4.790 -0.7943  1.1621  0.2667
   26MOL   H66020210   3.788   0.087   4.743  0.1868 -0.0765  3.7674
   26MOL   H66120211   3.433   7.958   4.600  0.0709 -0.4571  0.4119
   26MOL   H66220212   3.272   7.869   4.417 -1.4716  0.9224 -0.3612
   26MOL   H66320213   3.262   0.212   4.243  1.1685 -0.2870 -0.6801
   26MOL   H66420214   3.413   0.303   4.399  1.5252 -0.8903 -1.3781
   26MOL   C66520215   3.408   7.977   3.580 -0.8570  1.0733  0.2008
   26MOL   C66620216   3.307   7.910   3.685  0.8529  0.3022 -0.0653
   26MOL   C66720217   3.248   8.006   3.791  0.2044 -0.7017  0.4912
   26MOL   C66820218   3.157   7.936   3.891 -0.7081  0.7713  0.2516
   26MOL   O66920219   3.075   8.016   3.984  1.0123 -0.4904 -0.0272
   26MOL   C67020220   3.364   0.054   3.853  0.7857  0.2503  0.1780
   26MOL   C67120221   3.455   0.128   3.745  0.0076  0.7254 -0.3655
   26MOL   C67220222   3.516   0.027   3.652  0.1151  0.6806  0.3080
   26MOL   C67320223   3.620   0.098   3.563  0.6980  0.2130  0.0968
   26MOL   O67420224   3.727   0.021   3.510 -0.7755 -0.1991  0.4202
   26MOL   C67520225   3.846   0.076   3.496  0.0203  0.4237  0.0149
   26MOL   O67620226   3.869   0.187   3.537  0.1615  0.0360  0.3381
   26MOL   C67720227   3.952   8.008   3.459 -0.0507 -0.2994 -0.3533
   26MOL   C67820228   3.915   7.891   3.400 -0.7141  0.1849  0.9515
   26MOL   C67920229   4.012   7.797   3.361 -0.3071  0.5484  0.2179
   26MOL   C68020230   4.147   7.820   3.382  0.3820  0.7542  0.8710
   26MOL   C68120231   4.244   7.717   3.324 -0.1360 -0.3674  0.0307
   26MOL   O68220232   4.204   7.625   3.258  0.3291  0.4656 -0.4812
   26MOL   O68320233   4.375   7.746   3.333 -0.2362  0.0807 -0.4232
   26MOL   C68420234   4.184   7.938   3.447 -0.1448  0.3754 -0.5855
   26MOL   C68520235   4.086   8.035   3.476  0.1431  0.2215 -0.5197
   26MOL   H68620236   3.460   7.909   3.513  0.5431  0.5737  1.7670
   26MOL   H68720237   3.344   8.035   3.513 -3.9487  1.0045  2.9304
   26MOL   H68820238   3.217   7.867   3.640  0.8909 -2.2558  2.1697
   26MOL   H68920239   3.359   7.825   3.730  1.1719  0.2431 -0.5404
   26MOL   H69020240   3.182   0.043   3.743 -0.1971 -1.3015  0.1320
   26MOL   H69120241   3.076   7.890   3.834  0.7755  0.2943 -1.5271
   26MOL   H69220242   3.199   7.854   3.949 -1.2785  1.9213  2.3618
   26MOL   H69320243   3.316   0.130   3.915  0.2572 -0.7923  1.0743
   26MOL   H69420244   3.415   8.030   3.929  2.5159  1.6415  0.1168
   26MOL   H69520245   3.527   0.196   3.792  0.6792 -0.4383  0.3199
   26MOL   H69620246   3.387   0.191   3.688 -1.8854 -0.9073  0.0237
   26MOL   H69720247   3.577   7.992   3.708 -0.5666 -0.0312  0.1697
   26MOL   H69820248   3.575   0.148   3.477 -0.5083 -1.3559 -0.2152
   26MOL   H69920249   3.666   0.180   3.619 -0.5032  0.7997  0.2445
   26MOL   H70020250   3.813   7.863   3.379 -1.0746  1.6913  0.6487
   26MOL   H70120251   3.971   7.710   3.312 -0.8300  0.1428  1.3395
   26MOL   H70220252   4.288   7.956   3.468 -0.1923 -0.0300 -0.0117
   26MOL   H70320253   4.104   0.095   3.524 -1.7661 -0.0053  0.6745
   26MOL   C70420254   4.894   7.596   3.108 -0.3439  0.1004 -1.1139
   26MOL   C70520255   4.772   7.672   3.169 -0.5913  0.5955  0.5778
   26MOL   C70620256   4.642   7.650   3.092 -0.6665 -0.5212  0.9384
   26MOL   C70720257   4.519   7.717   3.152  0.0058 -0.2804 -0.3247
   26MOL   O70820258   4.463   7.643   3.260 -0.2140 -0.1946  0.1334
   26MOL   C70920259   4.669   7.688   2.938  0.3232  0.2303  0.5146
   26MOL   C71020260   4.807   7.636   2.883 -0.2001  0.3004 -0.6991
   26MOL   C71120261   4.927   7.655   2.972  0.3983 -0.3260  0.1830
   26MOL   C71220262   5.063   7.604   2.915 -1.1139  0.3458  0.7135
   26MOL   O71320263   5.165   7.626   3.014  0.3640 -0.0053 -0.3035
   26MOL   C71420264   5.302   7.657   2.985  0.9798  0.1502  0.5407
   26MOL   O71520265   5.354   7.672   2.868  0.1485 -0.0404 -0.3616
   26MOL   C71620266   5.382   7.653   3.113 -0.9231  0.1259 -0.4942
   26MOL   C71720267   5.521   7.657   3.107 -0.5224  0.1221  0.1965
   26MOL   C71820268   5.599   7.650   3.229 -0.0146 -0.2020  0.2756
   26MOL   C71920269   5.538   7.648   3.358  0.2755 -0.2041  0.2360
   26MOL   C72020270   5.605   7.671   3.494  0.1038  0.3869 -0.8296
   26MOL   O72120271   5.543   7.687   3.601 -0.3863  0.3884  0.5772
   26MOL   O72220272   5.739   7.672   3.486 -0.2110  0.3127  0.4401
   26MOL   C72320273   5.395   7.646   3.361 -0.0165 -0.1571 -0.1302
   26MOL   C72420274   5.316   7.635   3.240  0.4790  0.1625  0.7729
   26MOL   H72520275   4.977   7.615   3.176 -2.0149  0.8587  0.7962
   26MOL   H72620276   4.876   7.489   3.105  1.8448 -0.3734  1.1087
   26MOL   H72720277   4.762   7.631   3.270  1.4107 -0.0819  0.5301
   26MOL   H72820278   4.792   7.779   3.173 -0.4501  0.7065 -2.1870
   26MOL   H72920279   4.619   7.544   3.087  1.4973 -0.9715 -0.1635
   26MOL   H73020280   4.553   7.811   3.196 -0.3194 -0.3523  0.0936
   26MOL   H73120281   4.446   7.732   3.073  0.1206 -2.8596 -0.9630
   26MOL   H73220282   4.586   7.655   2.877  0.0569  1.8231 -0.0085
   26MOL   H73320283   4.666   7.795   2.916 -1.9811  0.1399  0.2556
   26MOL   H73420284   4.831   7.683   2.788  0.4472  0.1171 -0.6248
   26MOL   H73520285   4.789   7.530   2.865  0.1923 -0.4057  2.7193
   26MOL   H73620286   4.934   7.763   2.984  0.7814 -0.2791 -0.4281
   26MOL   H73720287   5.063   7.497   2.894 -2.0327  0.7045 -1.2272
   26MOL   H73820288   5.092   7.643   2.817  0.0705 -0.2166  0.8313
   26MOL   H73920289   5.574   7.660   3.013 -1.2382 -2.0358 -0.2924
   26MOL   H74020290   5.707   7.643   3.220  0.0893  1.6520 -0.2226
   26MOL   H74120291   5.352   7.645   3.460 -0.9048  0.3346 -0.5021
   26MOL   H74220292   5.209   7.628   3.251  0.3766 -1.2395 -0.9788
   26MOL   C74320293   6.055   7.561   3.987 -0.0609 -0.1669  0.1301
   26MOL   C74420294   6.006   7.604   3.843  0.1805  0.1716  0.3851
   26MOL   C74520295   5.887   7.514   3.791  0.8801  0.5502  0.1463
   26MOL   C74620296   5.864   7.556   3.643  0.0900  0.7056  0.0043
   26MOL   O74720297   5.802   7.684   3.622  0.0422  0.4337 -0.1127
   26MOL   C74820298   5.913   7.365   3.808 -0.6584  0.4114  0.1026
   26MOL   C74920299   5.953   7.328   3.954 -0.5255 -0.0745  0.4201
   26MOL   C75020300   6.085   7.410   3.992 -0.4370  0.0995 -0.0392
   26MOL   C75120301   6.142   7.368   4.126  0.2612  0.5680  0.1347
   26MOL   O75220302   6.267   7.427   4.149  0.9823 -1.1266 -0.2388
   26MOL   C75320303   6.359   7.369   4.233 -0.6290  0.6772 -0.1867
   26MOL   O75420304   6.349   7.253   4.280  0.2717 -0.4605 -0.3896
   26MOL   C75520305   6.485   7.454   4.255  0.5144 -0.5760 -0.2110
   26MOL   C75620306   6.495   7.584   4.205 -0.0914 -0.6528 -0.4144
   26MOL   C75720307   6.608   7.664   4.228 -0.1928 -0.0777  0.6796
   26MOL   C75820308   6.722   7.615   4.299  0.3500  0.4780  0.1002
   26MOL   C75920309   6.836   7.703   4.324 -0.2487 -0.3309  0.4942
   26MOL   O76020310   6.871   7.798   4.251  0.2352  0.2158  0.8275
   26MOL   O76120311   6.910   7.675   4.429 -0.1942 -0.5838 -0.3035
   26MOL   C76220312   6.719   7.485   4.348  0.6300 -0.0840  0.3077
   26MOL   C76320313   6.597   7.409   4.328 -0.1135 -0.3249 -0.2955
   26MOL   H76420314   6.150   7.613   4.004 -0.2489 -0.8209  3.5736
   26MOL   H76520315   5.982   7.590   4.062  1.2478  1.1000  0.9317
   26MOL   H76620316   5.970   7.706   3.855  0.0686  0.1382  0.3308
   26MOL   H76720317   6.092   7.609   3.775  0.4830  0.6419  0.7973
   26MOL   H76820318   5.794   7.537   3.843 -0.2301  0.6416 -1.8302
   26MOL   H76920319   5.960   7.553   3.591  0.2252 -1.6005  0.3418
   26MOL   H77020320   5.809   7.477   3.591  0.0805  2.1778 -2.2913
   26MOL   H77120321   5.822   7.310   3.782 -0.3168  0.0323 -0.2961
   26MOL   H77220322   5.999   7.328   3.753 -0.9215 -0.4160  0.2287
   26MOL   H77320323   5.962   7.221   3.969 -0.3738 -0.3186 -1.2683
   26MOL   H77420324   5.872   7.344   4.025 -0.2655  1.4642  0.4036
   26MOL   H77520325   6.165   7.389   3.921  0.7819  2.9071  0.4300
   26MOL   H77620326   6.081   7.413   4.204  1.5354  2.0738  0.2802
   26MOL   H77720327   6.159   7.260   4.134 -1.2431  0.3715  0.6773
   26MOL   H77820328   6.418   7.620   4.139 -0.3065 -0.1532  0.1012
   26MOL   H77920329   6.610   7.766   4.193 -0.2786 -0.1476  0.4695
   26MOL   H78020330   6.792   7.445   4.417  1.0821  1.3642  0.6889
   26MOL   H78120331   6.605   7.315   4.381  1.3601  1.1664  2.2130
   26MOL   H78220332   6.972   7.746   4.433 -1.8432  0.8179  3.4918
   27MOL     C120333   1.323   5.937   1.352  0.0663  0.0982 -0.5909
   27MOL     C220334   1.271   5.818   1.436  0.4473 -0.2653  0.1723
   27MOL     C320335   1.265   5.694   1.342  0.4487 -1.0101 -0.2106
   27MOL     C420336   1.222   5.569   1.422  0.0406  0.4902 -0.5257
   27MOL     O520337   1.288   5.530   1.544 -0.5997  0.3515  0.5363
   27MOL     C620338   1.175   5.721   1.220 -0.3244 -0.9504 -0.1495
   27MOL     C720339   1.235   5.835   1.136 -0.2915  0.4070  0.1762
   27MOL     C820340   1.240   5.967   1.218 -0.2565  0.8935 -0.4797
   27MOL     C920341   1.292   6.093   1.152  0.1740  0.3931 -0.6794
   27MOL    O1020342   1.434   6.107   1.159  0.6100 -0.1554 -0.1430
   27MOL    C1120343   1.490   6.217   1.100  0.2750  0.0408  0.4780
   27MOL    O1220344   1.419   6.295   1.038  0.2762 -0.2490  0.4754
   27MOL    C1320345   1.635   6.234   1.116  0.0879 -0.1603  0.3835
   27MOL    C1420346   1.713   6.150   1.206  0.5037 -0.0125 -0.0808
   27MOL    C1520347   1.853   6.158   1.220  0.4326  0.5238 -0.2843
   27MOL    C1620348   1.925   6.253   1.140  0.4431 -0.1254  0.4714
   27MOL    C1720349   2.070   6.260   1.146 -0.1819 -0.5930  0.1900
   27MOL    O1820350   2.135   6.329   1.070 -0.1153 -0.6223 -0.2669
   27MOL    O1920351   2.127   6.189   1.249  0.6507 -0.1089 -0.3310
   27MOL    C2020352   1.857   6.340   1.057  0.7762  0.0116 -1.0878
   27MOL    C2120353   1.713   6.335   1.043  0.4887  0.0018  0.8305
   27MOL    H2220354   1.322   6.027   1.413 -1.1131  0.0620 -0.5423
   27MOL    H2320355   1.425   5.913   1.324  0.1163 -0.8007  0.3203
   27MOL    H2420356   1.332   5.786   1.520  1.4163 -0.9532 -0.7844
   27MOL    H2520357   1.175   5.858   1.469  0.6851  0.9167 -0.5287
   27MOL    H2620358   1.364   5.670   1.303  1.3372  0.0882  1.3008
   27MOL    H2720359   1.114   5.571   1.430 -0.0244 -0.8008 -0.8739
   27MOL    H2820360   1.234   5.487   1.350  0.5806  0.2500 -0.1630
   27MOL    H2920361   1.181   5.632   1.158  0.8482 -1.6030  0.8974
   27MOL    H3020362   1.069   5.745   1.235 -0.4166 -0.4636 -1.4808
   27MOL    H3120363   1.190   5.848   1.038  0.2764  0.0316 -0.1397
   27MOL    H3220364   1.341   5.813   1.118 -0.1721  0.1176  1.2001
   27MOL    H3320365   1.137   5.985   1.248 -0.0692  2.6500 -0.8460
   27MOL    H3420366   1.267   6.108   1.047 -0.3974 -1.0343 -0.7528
   27MOL    H3520367   1.240   6.175   1.202 -0.9056 -0.4302 -0.4337
   27MOL    H3620368   1.664   6.069   1.259 -0.1345  0.4596  0.0644
   27MOL    H3720369   1.906   6.102   1.295 -1.4213  0.0980  0.7185
   27MOL    H3820370   1.913   6.416   1.005  1.2520 -1.6264 -3.0278
   27MOL    H3920371   1.670   6.399   0.968 -0.0427  0.0393  1.1631
   27MOL    H4020372   1.237   5.454   1.567  0.1187 -0.1614  0.4663
   27MOL    C4120373   2.594   6.278   0.949 -0.7758 -0.0307  0.3821
   27MOL    C4220374   2.461   6.248   1.016  0.8379  0.0387 -0.0149
   27MOL    C4320375   2.479   6.140   1.126  0.4311 -0.5110 -0.0164
   27MOL    C4420376   2.350   6.091   1.187  0.2656 -0.0316 -0.1580
   27MOL    O4520377   2.285   6.204   1.248 -0.8520  0.1697 -0.2728
   27MOL    C4620378   2.570   6.022   1.079 -0.2773  0.8926 -0.0139
   27MOL    C4720379   2.702   6.062   1.011 -0.1956  0.1517 -0.2234
   27MOL    C4820380   2.663   6.151   0.888 -0.7543  1.2128  0.0848
   27MOL    C4920381   2.790   6.181   0.801 -0.7704 -0.1471 -0.6255
   27MOL    O5020382   2.755   6.261   0.685 -0.1106 -0.2288 -0.4382
   27MOL    C5120383   2.852   6.312   0.603  0.1801 -0.2561 -0.5559
   27MOL    O5220384   2.972   6.309   0.616 -0.0027  0.1296  0.4583
   27MOL    C5320385   2.788   6.390   0.488  0.0578 -0.3884  0.0415
   27MOL    C5420386   2.647   6.428   0.480 -0.0545  0.5057  0.6787
   27MOL    C5520387   2.594   6.505   0.376 -0.5108  0.5431 -0.3534
   27MOL    C5620388   2.681   6.547   0.276 -0.0361  0.8795 -0.5578
   27MOL    C5720389   2.630   6.634   0.166 -0.2885  0.4489 -0.5157
   27MOL    O5820390   2.709   6.698   0.096 -0.2976  0.1977  0.1590
   27MOL    O5920391   2.500   6.607   0.142  0.3118 -0.1133  0.0908
   27MOL    C6020392   2.816   6.513   0.282 -0.3313  0.2464  0.1666
   27MOL    C6120393   2.871   6.449   0.390  0.0584 -0.0944  0.6143
   27MOL    H6220394   2.585   6.357   0.874 -0.8914  0.1376  0.5722
   27MOL    H6320395   2.660   6.324   1.023 -2.2488  0.8766  1.1547
   27MOL    H6420396   2.407   6.333   1.059  2.2251  0.0678  1.7116
   27MOL    H6520397   2.398   6.207   0.936 -1.1281 -0.8486  1.9187
   27MOL    H6620398   2.528   6.192   1.209  0.2333  0.3981 -0.4566
   27MOL    H6720399   2.286   6.056   1.106 -1.5316 -0.8279  1.5633
   27MOL    H6820400   2.379   6.012   1.255  0.7983  0.4940  0.2361
   27MOL    H6920401   2.587   5.966   1.171 -0.1416  2.8735  1.2128
   27MOL    H7020402   2.516   5.956   1.011  0.5563  0.4641 -0.2617
   27MOL    H7120403   2.766   5.977   0.989  0.4740  0.8244 -0.8987
   27MOL    H7220404   2.770   6.103   1.086 -1.0813  1.1810  0.0219
   27MOL    H7320405   2.596   6.090   0.827 -1.6724  2.3060 -0.0136
   27MOL    H7420406   2.871   6.239   0.844 -0.9961 -0.9043  0.8611
   27MOL    H7520407   2.846   6.090   0.776  1.3893  0.5251  1.5454
   27MOL    H7620408   2.579   6.401   0.559 -1.8757 -0.7022 -1.2587
   27MOL    H7720409   2.486   6.507   0.375 -0.5381 -0.0305  0.4183
   27MOL    H7820410   2.882   6.551   0.205  1.6826 -0.0333  1.7009
   27MOL    H7920411   2.976   6.425   0.405 -0.5500 -2.7511  0.8799
   27MOL    C8020412   2.535   6.688   7.612 -0.6886  0.5257  0.4028
   27MOL    C8120413   2.543   6.651   7.764 -0.7212  0.1946 -0.3191
   27MOL    C8220414   2.422   6.574   7.816  0.1152  0.1084 -0.3323
   27MOL    C8320415   2.444   6.531   7.962 -0.3589 -0.4602 -0.7920
   27MOL    O8420416   2.450   6.649   0.007 -0.3221  0.5570  0.0479
   27MOL    C8520417   2.293   6.651   7.776  0.1862  0.0473  0.2702
   27MOL    C8620418   2.288   6.693   7.630 -0.3402 -0.3338 -0.0641
   27MOL    C8720419   2.409   6.773   7.581  0.0071 -0.2482  0.8395
   27MOL    C8820420   2.403   6.810   7.432 -0.2238 -0.8620  0.4382
   27MOL    O8920421   2.296   6.902   7.426  0.2678 -0.9031  0.2576
   27MOL    C9020422   2.295   7.005   7.335  0.2598  0.4722 -0.8470
   27MOL    O9120423   2.383   7.020   7.254  0.5254  0.3196 -0.2947
   27MOL    C9220424   2.179   7.094   7.341 -0.2920 -0.3099  0.1857
   27MOL    C9320425   2.175   7.220   7.280 -0.2411 -0.0789 -0.5267
   27MOL    C9420426   2.060   7.302   7.295  0.0941  0.0896 -0.4958
   27MOL    C9520427   1.953   7.263   7.374  0.0257  0.0174  0.0076
   27MOL    C9620428   1.827   7.351   7.399 -0.3553 -0.0794 -0.4491
   27MOL    O9720429   1.805   7.458   7.343 -0.2873  0.3127  0.1482
   27MOL    O9820430   1.738   7.294   7.482 -0.0315  0.4713 -0.1343
   27MOL    C9920431   1.953   7.135   7.431  0.9171 -0.6562 -0.0423
   27MOL   C10020432   2.064   7.049   7.409  0.4607 -0.2447 -0.1227
   27MOL   H10120433   2.620   6.753   7.592  1.4503 -2.1736  0.2763
   27MOL   H10220434   2.543   6.594   7.557  0.6943 -0.5841  2.4046
   27MOL   H10320435   2.632   6.593   7.789 -0.3447  0.7130 -0.4395
   27MOL   H10420436   2.546   6.739   7.827 -1.3116 -1.1292  1.6042
   27MOL   H10520437   2.431   6.484   7.755  1.4113 -0.9162  1.3099
   27MOL   H10620438   2.371   6.461   8.002 -0.9338  0.5236 -0.0990
   27MOL   H10720439   2.538   6.480   7.984  0.0405  1.3400  1.9795
   27MOL   H10820440   2.225   6.573   7.809  3.8386 -2.7593  1.5540
   27MOL   H10920441   2.285   6.738   7.841 -0.2604  0.1702  0.0519
   27MOL   H11020442   2.201   6.757   7.621 -2.4973 -3.2398 -0.7397
   27MOL   H11120443   2.273   6.601   7.572  0.1794  0.6875 -1.8637
   27MOL   H11220444   2.412   6.862   7.643 -0.0401 -0.8491  1.7055
   27MOL   H11320445   2.491   6.869   7.406 -0.6688 -0.5765 -0.4638
   27MOL   H11420446   2.396   6.727   7.362 -4.4557 -1.0159  0.9296
   27MOL   H11520447   2.251   7.256   7.212  1.1830 -0.1952  0.9858
   27MOL   H11620448   2.054   7.400   7.249  1.9967  0.2427 -0.4433
   27MOL   H11720449   1.867   7.090   7.478  0.1667  0.2991 -0.4717
   27MOL   H11820450   2.067   6.953   7.458 -1.5000 -1.1781 -1.7509
   27MOL   C11920451   1.408   7.518   7.943  0.6974  0.0817 -0.6390
   27MOL   C12020452   1.527   7.479   7.860 -0.4783 -0.3798  0.7152
   27MOL   C12120453   1.493   7.411   7.727  0.2997 -0.1026 -0.6374
   27MOL   C12220454   1.624   7.390   7.657 -0.0427  0.1938 -0.3521
   27MOL   O12320455   1.614   7.363   7.521  0.5110 -0.2836  0.2371
   27MOL   C12420456   1.422   7.273   7.755  0.3865  0.3584  0.2878
   27MOL   C12520457   1.295   7.306   7.840  0.4894 -0.4070  0.4260
   27MOL   C12620458   1.321   7.390   7.973 -0.4934  0.4707 -0.0566
   27MOL   C12720459   1.202   7.418   0.012  0.4613 -0.2625  0.1569
   27MOL   O12820460   1.113   7.520   7.982  0.5785  0.4946 -0.6943
   27MOL   C12920461   0.999   7.546   0.006  1.4941  0.1893  0.3152
   27MOL   O13020462   0.963   7.484   0.103  0.0353  0.2457 -0.1344
   27MOL   C13120463   0.910   7.644   7.972 -0.3241 -0.1677 -0.0129
   27MOL   C13220464   0.779   7.668   8.015 -0.4688 -1.2594  0.0783
   27MOL   C13320465   0.701   7.764   7.948  0.0776 -0.2334  0.3776
   27MOL   C13420466   0.755   7.842   7.837  0.4958 -0.1862  0.6959
   27MOL   C13520467   0.681   7.958   7.785 -0.2299  0.3827 -0.2518
   27MOL   O13620468   0.738   0.008   7.720 -0.3543 -0.3702  0.1420
   27MOL   O13720469   0.551   7.949   7.791 -0.2228  0.0776 -0.0754
   27MOL   C13820470   0.887   7.818   7.793 -0.0068 -0.1194  0.5988
   27MOL   C13920471   0.965   7.722   7.862  0.3409 -0.1035  0.3819
   27MOL   H14020472   1.450   7.548   0.003 -1.0183 -0.4617  0.3163
   27MOL   H14120473   1.341   7.597   7.908 -0.4230 -0.8227 -0.5547
   27MOL   H14220474   1.581   7.569   7.831  0.2666 -0.3317  2.2452
   27MOL   H14320475   1.596   7.413   7.912 -0.8204 -0.6739  0.8031
   27MOL   H14420476   1.441   7.474   7.656  2.2674  0.4108 -1.6566
   27MOL   H14520477   1.699   7.467   7.677 -1.2878  1.7436 -1.4933
   27MOL   H14620478   1.665   7.303   7.707 -0.0595 -0.4736 -1.5051
   27MOL   H14720479   1.407   7.223   7.659 -0.9755 -1.6414  1.5068
   27MOL   H14820480   1.484   7.203   7.811  1.0070  0.3278 -0.4273
   27MOL   H14920481   1.234   7.217   7.857 -1.0764  0.1044 -2.2902
   27MOL   H15020482   1.231   7.366   7.775  2.9215  1.7212 -0.0504
   27MOL   H15120483   1.376   7.320   0.001 -1.5643  0.1017  0.4778
   27MOL   H15220484   1.139   7.330   0.028  0.5549 -0.2889  0.3813
   27MOL   H15320485   1.227   7.458   0.110  2.7834 -2.0366  0.3366
   27MOL   H15420486   0.735   7.610   0.060 -0.5767 -1.5551 -0.1924
   27MOL   H15520487   0.597   7.784   7.972  0.6993  2.2417  1.0962
   27MOL   H15620488   0.912   7.874   7.704 -0.0287 -0.9030  0.1006
   27MOL   H15720489   1.068   7.708   7.833  0.0708  1.2222 -1.3396
   27MOL   C15820490   0.425   0.328   7.391 -0.0500 -0.8764 -1.0755
   27MOL   C15920491   0.482   0.213   7.481  0.5361  0.1958  0.1682
   27MOL   C16020492   0.369   0.111   7.511 -0.5788 -0.0149 -0.3465
   27MOL   C16120493   0.423   8.027   7.593 -0.5860  0.6208 -0.4744
   27MOL   O16220494   0.459   0.029   7.721  0.0529 -0.1923 -0.6293
   27MOL   C16320495   0.234   0.172   7.558 -0.9451 -0.2760 -0.0077
   27MOL   C16420496   0.194   0.284   7.468  0.6591  0.1436  0.4911
   27MOL   C16520497   0.305   0.396   7.453  0.3423 -0.3690 -0.3788
   27MOL   C16620498   0.257   0.517   7.364 -0.4780  0.7031 -0.0416
   27MOL   O16720499   0.254   0.482   7.230 -0.8616  0.0102  0.2924
   27MOL   C16820500   0.262   0.583   7.135 -0.1968 -0.2094 -0.9645
   27MOL   O16920501   0.258   0.705   7.159 -0.4654 -0.6769 -0.1610
   27MOL   C17020502   0.281   0.527   6.990 -0.2773  0.1163  0.2301
   27MOL   C17120503   0.309   0.619   6.883 -0.2626  0.2133 -0.4179
   27MOL   C17220504   0.327   0.566   6.755  0.2150 -0.4025  0.5158
   27MOL   C17320505   0.318   0.430   6.737 -0.3369 -0.2725 -0.0791
   27MOL   C17420506   0.342   0.377   6.601 -0.3418 -0.7770 -0.6129
   27MOL   O17520507   0.283   0.426   6.502 -0.5193  0.5202 -0.2749
   27MOL   O17620508   0.424   0.272   6.601 -0.1829  0.2684 -0.2686
   27MOL   C17720509   0.290   0.343   6.843  0.0874 -0.3602 -0.8368
   27MOL   C17820510   0.269   0.387   6.973  0.2361  0.1503  0.7830
   27MOL   H17920511   0.506   0.401   7.381 -0.7862 -0.1722 -1.9427
   27MOL   H18020512   0.409   0.282   7.293 -2.3255 -1.0798 -0.6210
   27MOL   H18120513   0.571   0.168   7.437  0.6462 -0.3733  0.9539
   27MOL   H18220514   0.527   0.251   7.573  1.3194  0.3202 -0.2656
   27MOL   H18320515   0.349   0.067   7.413  0.9230  1.0108 -1.1256
   27MOL   H18420516   0.357   7.942   7.610  0.7125  0.1318  2.3536
   27MOL   H18520517   0.516   7.992   7.550 -0.6607  0.6073 -0.6255
   27MOL   H18620518   0.165   0.088   7.552 -1.0350 -0.4694  2.9413
   27MOL   H18720519   0.241   0.205   7.662  1.1569  1.3716 -0.6110
   27MOL   H18820520   0.095   0.317   7.498 -0.4834 -0.8376 -2.0700
   27MOL   H18920521   0.182   0.237   7.370 -1.6337 -1.2463  1.3921
   27MOL   H19020522   0.334   0.431   7.552 -2.9396 -1.0268  0.8851
   27MOL   H19120523   0.156   0.537   7.400 -0.3675 -0.1376  0.7519
   27MOL   H19220524   0.322   0.602   7.388  0.1470 -0.0111  0.8646
   27MOL   H19320525   0.301   0.724   6.903 -0.7226  0.1952 -0.5088
   27MOL   H19420526   0.348   0.638   6.677 -3.7503  1.3324  0.9539
   27MOL   H19520527   0.286   0.237   6.826 -0.4061 -0.2370 -1.5063
   27MOL   H19620528   0.232   0.326   7.054 -1.1735  1.4258  1.1358
   27MOL   C19720529   0.278   7.820   6.246 -0.1859 -0.9426  0.0020
   27MOL   C19820530   0.238   7.930   6.342  0.5433 -0.6725 -0.2051
   27MOL   C19920531   0.351   8.031   6.367  0.3567 -0.0111 -0.1325
   27MOL   C20020532   0.305   0.117   6.460 -0.3524  0.5512  0.1672
   27MOL   O20120533   0.425   0.200   6.468 -0.0064  0.0612 -0.6712
   27MOL   C20220534   0.465   7.952   6.438 -0.4560  0.0386  0.3179
   27MOL   C20320535   0.510   7.828   6.356 -0.2348  0.1636 -0.5439
   27MOL   C20420536   0.386   7.743   6.313  0.1951 -0.4688 -1.0593
   27MOL   C20520537   0.422   7.627   6.219  0.8048 -0.5969  0.1034
   27MOL   O20620538   0.486   7.677   6.100  0.0433  0.1094  0.1921
   27MOL   C20720539   0.443   7.658   5.972 -0.4488 -0.3445 -0.6138
   27MOL   O20820540   0.349   7.579   5.944  0.2442 -0.0444 -0.2979
   27MOL   C20920541   0.509   7.737   5.865 -0.1097  0.3005  0.2318
   27MOL   C21020542   0.494   7.689   5.731 -0.4892  0.3280 -0.1217
   27MOL   C21120543   0.560   7.768   5.634  0.3444 -0.3386 -0.0509
   27MOL   C21220544   0.631   7.884   5.665 -0.3917  0.4254  1.0931
   27MOL   C21320545   0.712   7.956   5.560 -0.0923 -0.1728 -0.3423
   27MOL   O21420546   0.728   7.903   5.450  0.1414  0.0099  0.0168
   27MOL   O21520547   0.766   0.037   5.599 -0.5227 -0.1213 -0.9971
   27MOL   C21620548   0.651   7.925   5.795 -1.6130 -0.1054 -0.3228
   27MOL   C21720549   0.591   7.850   5.895  0.7537 -0.3354  0.2551
   27MOL   H21820550   0.196   7.755   6.219 -0.4172 -0.8208  0.4020
   27MOL   H21920551   0.319   7.852   6.150  2.5991  0.5422  1.6120
   27MOL   H22020552   0.159   7.994   6.302  0.5562 -0.2733  0.4067
   27MOL   H22120553   0.201   7.893   6.437 -0.9784 -0.2043 -0.5975
   27MOL   H22220554   0.383   0.040   6.272 -0.5574  0.6587 -0.1312
   27MOL   H22320555   0.224   0.166   6.406 -2.1988 -1.9212  0.6134
   27MOL   H22420556   0.267   0.077   6.553  1.7866 -0.0388  0.8247
   27MOL   H22520557   0.550   8.018   6.455  1.8051 -2.2575 -1.6426
   27MOL   H22620558   0.436   7.915   6.536  1.4940  0.3512  1.0499
   27MOL   H22720559   0.592   7.785   6.414  1.1522  3.1861 -0.1991
   27MOL   H22820560   0.567   7.854   6.267 -0.6697  2.0614 -0.2909
   27MOL   H22920561   0.348   7.701   6.406  1.4584 -0.5824 -0.5710
   27MOL   H23020562   0.481   7.553   6.275  0.3600 -1.2961 -0.3393
   27MOL   H23120563   0.329   7.579   6.189  0.6098  0.8730 -1.6824
   27MOL   H23220564   0.432   7.604   5.708 -1.2209  0.9020 -0.3260
   27MOL   H23320565   0.553   7.736   5.531  0.7611  0.7394 -0.4198
   27MOL   H23420566   0.722   8.000   5.829 -0.7344 -0.3037 -1.6797
   27MOL   H23520567   0.603   7.890   5.995  0.0350 -1.0398  0.6261
   27MOL   C23620568   1.083   0.377   5.275 -0.3475  0.8395  0.3370
   27MOL   C23720569   0.998   0.299   5.374 -0.8299 -0.1915 -0.3559
   27MOL   C23820570   0.865   0.266   5.311  0.5860  0.0719 -0.4384
   27MOL   C23920571   0.763   0.204   5.410  0.3760  0.4231 -0.1543
   27MOL   O24020572   0.842   0.101   5.483 -0.3171  0.1718  0.4301
   27MOL   C24120573   0.800   0.376   5.229  0.4573  0.2294  0.9261
   27MOL   C24220574   0.903   0.457   5.138 -0.6386  0.0037  0.2522
   27MOL   C24320575   1.019   0.504   5.224  0.7758 -0.8666  0.6016
   27MOL   C24420576   1.120   0.594   5.151 -0.5360 -0.5937 -0.3978
   27MOL   O24520577   1.205   0.652   5.239 -0.1859 -0.6522  0.3046
   27MOL   C24620578   1.184   0.772   5.293  0.3190  0.4968  0.0639
   27MOL   O24720579   1.080   0.830   5.271 -0.1360  0.1526 -0.4780
   27MOL   C24820580   1.297   0.836   5.368  0.1410  0.3397 -0.2310
   27MOL   C24920581   1.293   0.978   5.396  0.2171  0.9372 -0.4893
   27MOL   C25020582   1.407   1.029   5.468 -0.2826 -0.1533  0.7620
   27MOL   C25120583   1.521   0.957   5.494 -0.4350  0.1848  0.5788
   27MOL   C25220584   1.635   1.030   5.561  0.3559 -0.3392 -0.2815
   27MOL   O25320585   1.627   1.153   5.584 -0.3052  0.0675  0.6220
   27MOL   O25420586   1.740   0.956   5.604  0.4422 -0.7024 -0.4521
   27MOL   C25520587   1.520   0.819   5.462  0.5437 -0.3095  0.0031
   27MOL   C25620588   1.415   0.757   5.401  0.7450  0.7392 -0.2391
   27MOL   H25720589   1.179   0.391   5.325 -0.4649 -2.5875  1.6271
   27MOL   H25820590   1.100   0.303   5.197  1.7038  1.7335 -0.1001
   27MOL   H25920591   1.060   0.223   5.422  1.3129  1.2439 -0.7843
   27MOL   H26020592   0.970   0.369   5.452 -0.8119 -0.3365 -0.2192
   27MOL   H26120593   0.897   0.190   5.240 -0.6430 -0.2446 -0.6758
   27MOL   H26220594   0.722   0.277   5.480  2.4981  1.5039  0.0014
   27MOL   H26320595   0.681   0.164   5.350 -1.0983  1.5457  1.0735
   27MOL   H26420596   0.717   0.341   5.168 -0.8253  2.5742  1.2924
   27MOL   H26520597   0.744   0.438   5.299 -1.3478 -0.4265  0.0919
   27MOL   H26620598   0.852   0.545   5.099  0.3790  0.8050  0.7151
   27MOL   H26720599   0.927   0.400   5.048  0.8366  0.2430  0.4875
   27MOL   H26820600   0.984   0.566   5.306 -0.9912 -0.3330 -0.5286
   27MOL   H26920601   1.182   0.535   5.083  0.2741 -0.4432  0.2019
   27MOL   H27020602   1.057   0.663   5.096 -1.3693 -0.5782  0.5690
   27MOL   H27120603   1.205   1.036   5.372  0.9982  1.7640 -1.4008
   27MOL   H27220604   1.411   1.133   5.497  0.6789  0.4096 -1.3515
   27MOL   H27320605   1.604   0.751   5.469  1.8044  1.1718 -0.5927
   27MOL   H27420606   1.428   0.652   5.379 -2.9000  0.1725  0.0675
   27MOL   C27520607   2.211   1.204   5.794 -0.0703  0.3477 -0.6036
   27MOL   C27620608   2.107   1.106   5.748 -0.3695  0.1205  0.4935
   27MOL   C27720609   2.075   1.119   5.600 -0.1021  0.1684  0.3713
   27MOL   C27820610   1.959   1.016   5.559  0.5481 -0.5728  0.2195
   27MOL   O27920611   1.856   1.049   5.641 -0.5193  0.4788 -0.0959
   27MOL   C28020612   2.049   1.260   5.555 -0.0639  0.3078 -0.6006
   27MOL   C28120613   2.157   1.359   5.598  0.4267 -0.4962 -0.0502
   27MOL   C28220614   2.179   1.351   5.754  0.3219 -0.3257  0.2351
   27MOL   C28320615   2.290   1.448   5.807 -0.5103 -0.1229  0.1012
   27MOL   O28420616   2.296   1.441   5.950 -0.0918  0.3277 -0.2030
   27MOL   C28520617   2.225   1.532   6.020 -0.4763  0.4075 -0.4633
   27MOL   O28620618   2.143   1.610   5.970 -0.4383  0.2947  0.0491
   27MOL   C28720619   2.260   1.543   6.168  0.2326 -0.1284 -0.5180
   27MOL   C28820620   2.358   1.455   6.215 -0.4866  0.2553 -0.2656
   27MOL   C28920621   2.399   1.447   6.347 -0.1062 -0.2706  1.0072
   27MOL   C29020622   2.337   1.541   6.429  0.5250  0.0736 -0.0329
   27MOL   C29120623   2.381   1.541   6.575 -0.2723  0.3580  0.2969
   27MOL   O29220624   2.481   1.476   6.602  0.0954 -0.0371 -0.3506
   27MOL   O29320625   2.303   1.611   6.665  0.0433 -0.2049  0.5338
   27MOL   C29420626   2.232   1.625   6.386  0.1565  0.3808 -0.0840
   27MOL   C29520627   2.189   1.629   6.256  0.0895  0.1774 -0.2358
   27MOL   H29620628   2.217   1.187   5.901  1.9163 -2.0937 -1.0477
   27MOL   H29720629   2.313   1.182   5.762 -0.7194 -1.7828 -1.2995
   27MOL   H29820630   2.140   1.007   5.778  0.5905  0.4673  0.6116
   27MOL   H29920631   2.022   1.126   5.813 -0.6981 -0.8100  0.3595
   27MOL   H30020632   2.166   1.084   5.552 -1.5200 -1.8642 -0.9082
   27MOL   H30120633   1.918   1.022   5.458 -1.0428  0.9441  0.9242
   27MOL   H30220634   1.983   0.912   5.582  1.2284 -0.7314 -1.1389
   27MOL   H30320635   2.044   1.255   5.447 -0.6910 -1.3998 -0.5016
   27MOL   H30420636   1.954   1.296   5.595  0.1511  0.5196 -0.2729
   27MOL   H30520637   2.135   1.463   5.570  0.4920 -0.2736  0.7271
   27MOL   H30620638   2.248   1.332   5.544  0.2228  1.5348 -1.5041
   27MOL   H30720639   2.089   1.389   5.801  0.1401 -0.5166  0.0380
   27MOL   H30820640   2.384   1.410   5.766  0.1097  0.2947  1.1078
   27MOL   H30920641   2.286   1.550   5.770  0.0182 -0.7995 -1.8684
   27MOL   H31020642   2.406   1.387   6.146 -1.4298 -0.9907  0.3033
   27MOL   H31120643   2.474   1.379   6.384  1.5322  1.4897  0.9862
   27MOL   H31220644   2.184   1.695   6.452 -0.1819 -0.5378  0.6628
   27MOL   H31320645   2.110   1.697   6.229 -0.2313  0.5887  1.6718
   27MOL   C31420646   2.167   2.041   6.763 -0.1684  0.5943 -0.5477
   27MOL   C31520647   2.238   1.902   6.738 -0.0725 -0.4771  0.5422
   27MOL   C31620648   2.332   1.861   6.857  0.4156  0.0670 -0.2530
   27MOL   C31720649   2.421   1.731   6.836 -0.0153  0.2119 -0.0765
   27MOL   O31820650   2.347   1.608   6.806  0.6065 -0.6202  0.1879
   27MOL   C31920651   2.431   1.970   6.884  0.3361  0.4221 -0.3786
   27MOL   C32020652   2.369   2.105   6.911 -0.9595 -0.4083 -0.4775
   27MOL   C32120653   2.278   2.143   6.789 -0.0384 -0.2515  0.3059
   27MOL   C32220654   2.228   2.285   6.815 -0.4301  0.4489 -0.0994
   27MOL   O32320655   2.154   2.286   6.937  0.1973 -0.1006  0.4307
   27MOL   C32420656   2.101   2.389   6.999  0.7289 -0.6760 -0.9199
   27MOL   O32520657   2.078   2.491   6.936 -0.4033  0.3344 -0.3770
   27MOL   C32620658   2.049   2.361   7.136 -1.2040  0.7288  0.3902
   27MOL   C32720659   1.965   2.455   7.199  0.0805 -0.0942  0.9398
   27MOL   C32820660   1.914   2.435   7.332 -0.5874  0.3459 -0.0124
   27MOL   C32920661   1.940   2.313   7.399  0.5456  0.2233 -0.1994
   27MOL   C33020662   1.870   2.283   7.528 -0.7234  0.1510  0.5281
   27MOL   O33120663   1.771   2.336   7.560 -0.1978 -0.3787  0.0168
   27MOL   O33220664   1.920   2.183   7.597  0.5833  0.5485  0.3968
   27MOL   C33320665   2.027   2.215   7.343 -0.3998 -1.0892  0.6523
   27MOL   C33420666   2.083   2.248   7.211  0.0456  0.3796 -0.3086
   27MOL   H33520667   2.106   2.057   6.675  1.0940  1.2106 -1.3213
   27MOL   H33620668   2.087   2.034   6.836 -0.3728  1.5423 -0.6698
   27MOL   H33720669   2.170   1.820   6.712 -0.0056 -0.0567 -1.0431
   27MOL   H33820670   2.295   1.919   6.646 -1.2771 -1.6181 -0.4484
   27MOL   H33920671   2.267   1.837   6.941  1.7421  0.4799  0.8814
   27MOL   H34020672   2.491   1.753   6.755 -0.5718 -0.9778 -0.8828
   27MOL   H34120673   2.487   1.705   6.919 -1.5465 -4.6062 -0.2442
   27MOL   H34220674   2.503   1.944   6.961 -0.1422  0.1153 -0.0314
   27MOL   H34320675   2.496   1.972   6.796  1.2477 -0.0253  0.2803
   27MOL   H34420676   2.451   2.175   6.924  0.5492 -2.1818 -0.1867
   27MOL   H34520677   2.305   2.105   6.999  1.2676  2.6315  1.2489
   27MOL   H34620678   2.347   2.157   6.706  0.0336 -2.2293 -0.0131
   27MOL   H34720679   2.307   2.359   6.808  0.1584 -0.2354 -0.9250
   27MOL   H34820680   2.170   2.316   6.728  1.3565  0.0538 -1.4701
   27MOL   H34920681   1.947   2.552   7.155 -1.9266  0.0034  1.9087
   27MOL   H35020682   1.858   2.523   7.362  1.5421  1.7970 -0.1534
   27MOL   H35120683   2.046   2.123   7.395 -3.2965 -0.6800  2.5727
   27MOL   H35220684   2.152   2.182   7.161 -1.1340 -1.0452 -0.0921
   27MOL   C35320685   1.682   2.267   0.062 -0.0959 -0.3552  0.4241
   27MOL   C35420686   1.704   2.257   7.951 -0.1438 -0.4981  0.6031
   27MOL   C35520687   1.763   2.121   7.920  0.2185  0.3854  0.4715
   27MOL   C35620688   1.788   2.112   7.771  0.0743 -0.5031 -0.3334
   27MOL   O35720689   1.891   2.201   7.744  0.6534 -0.1393 -0.6535
   27MOL   C35820690   1.893   2.083   8.001  0.3630 -1.2022 -0.3339
   27MOL   C35920691   1.861   2.101   0.110 -0.0914  0.1262 -0.8213
   27MOL   C36020692   1.817   2.243   0.144 -0.1896 -0.1393 -0.2632
   27MOL   C36120693   1.798   2.273   0.296  0.1962 -0.2812  0.2911
   27MOL   O36220694   1.913   2.239   0.364 -0.3531 -0.2704  0.2874
   27MOL   C36320695   1.985   2.329   0.428  0.1811 -1.1946 -0.0548
   27MOL   O36420696   1.962   2.446   0.432  0.6033  0.1076 -0.1082
   27MOL   C36520697   2.109   2.273   0.489 -0.4703 -0.6745  0.1063
   27MOL   C36620698   2.105   2.147   0.548 -0.2951 -0.0144 -0.5577
   27MOL   C36720699   2.219   2.102   0.617  0.5160 -0.3126  0.3099
   27MOL   C36820700   2.334   2.175   0.632  0.1742  0.2775  0.0534
   27MOL   C36920701   2.437   2.126   0.732  0.4544 -0.3216  0.2305
   27MOL   O37020702   2.437   2.023   0.796 -0.4271  0.4111  0.4575
   27MOL   O37120703   2.533   2.221   0.748 -0.3182 -0.4670  0.6184
   27MOL   C37220704   2.341   2.298   0.569  0.1199  0.0524 -0.0334
   27MOL   C37320705   2.228   2.350   0.506  0.7473  0.2342 -0.1854
   27MOL   H37420706   1.649   2.371   0.063  0.6442 -0.1135  0.0718
   27MOL   H37520707   1.599   2.214   0.109 -0.5259 -1.3521 -1.4085
   27MOL   H37620708   1.609   2.274   7.900  0.4695 -0.8554 -0.7032
   27MOL   H37720709   1.778   2.328   7.914 -0.2433 -1.3539 -1.2935
   27MOL   H37820710   1.679   2.056   7.946 -0.1019  1.2086  1.5510
   27MOL   H37920711   1.810   2.011   7.737  3.2344  0.1291 -0.3444
   27MOL   H38020712   1.698   2.139   7.715  1.4460 -0.2212 -2.4791
   27MOL   H38120713   1.928   1.983   7.975 -0.1273 -1.1017 -1.4259
   27MOL   H38220714   1.972   2.153   7.975 -0.8843  0.0797 -0.7370
   27MOL   H38320715   1.950   2.070   0.165  0.1756  0.0143 -1.3119
   27MOL   H38420716   1.786   2.032   0.149 -0.9217  2.0177  1.0595
   27MOL   H38520717   1.888   2.314   0.102  0.2091  0.1868  0.9485
   27MOL   H38620718   1.766   2.376   0.312 -1.7176 -1.2497  3.0637
   27MOL   H38720719   1.720   2.204   0.329  0.2338 -1.0776 -1.2517
   27MOL   H38820720   2.015   2.087   0.550  0.2211 -0.7503  0.8492
   27MOL   H38920721   2.219   2.004   0.663  2.8114  0.2443  1.5656
   27MOL   H39020722   2.423   2.367   0.584 -0.0193  0.5842 -1.6589
   27MOL   H39120723   2.224   2.451   0.470  1.0641  1.1306  2.2441
   27MOL   C39220724   2.911   2.319   1.227 -0.4210 -0.3105 -0.0547
   27MOL   C39320725   2.803   2.373   1.120 -0.2642  0.6627 -0.0008
   27MOL   C39420726   2.779   2.252   1.029  0.2118  0.2896 -0.1865
   27MOL   C39520727   2.688   2.291   0.914  0.1911  0.2392 -0.5731
   27MOL   O39620728   2.648   2.177   0.834  0.1952  0.4683  0.4361
   27MOL   C39720729   2.916   2.188   0.972  0.4061  0.6208 -0.2157
   27MOL   C39820730   3.032   2.165   1.065 -0.6512 -0.6836  0.3342
   27MOL   C39920731   3.046   2.282   1.167  0.6778 -0.1315 -0.4396
   27MOL   C40020732   3.152   2.243   1.272 -0.6975 -0.4397  0.7100
   27MOL   O40120733   3.111   2.141   1.363 -0.0956 -0.3693  0.1842
   27MOL   C40220734   3.149   2.140   1.493  0.1806 -0.6139  0.4141
   27MOL   O40320735   3.196   2.234   1.551 -0.0904  0.6839  0.3651
   27MOL   C40420736   3.096   2.020   1.557 -0.3721 -0.2262 -0.1692
   27MOL   C40520737   3.120   1.993   1.690 -0.2263 -0.7548  0.0523
   27MOL   C40620738   3.059   1.879   1.749  0.2126 -0.7035  0.1622
   27MOL   C40720739   2.958   1.805   1.684  0.4757 -0.0455 -0.1896
   27MOL   C40820740   2.872   1.710   1.759 -0.7849  0.2761  0.3573
   27MOL   O40920741   2.899   1.673   1.874  0.4055  0.1112 -0.6013
   27MOL   O41020742   2.769   1.659   1.685  0.4043  0.3678  0.3096
   27MOL   C41120743   2.954   1.819   1.540 -0.3403 -0.0754 -0.1557
   27MOL   C41220744   3.027   1.928   1.480  0.6046  1.0170 -0.7044
   27MOL   H41320745   2.931   2.405   1.290  1.2981 -0.7717  0.0487
   27MOL   H41420746   2.878   2.242   1.296 -0.8516  1.6168  1.9507
   27MOL   H41520747   2.712   2.398   1.174 -0.8568  1.1056 -1.1803
   27MOL   H41620748   2.832   2.463   1.066 -0.4096  0.2200 -0.8315
   27MOL   H41720749   2.738   2.168   1.084 -0.9997 -0.2198 -1.8342
   27MOL   H41820750   2.600   2.340   0.955 -1.1109 -1.0911 -1.7336
   27MOL   H41920751   2.731   2.356   0.837 -1.2496  1.1841 -0.5835
   27MOL   H42020752   2.888   2.093   0.927  4.1148 -0.9435  0.6751
   27MOL   H42120753   2.955   2.247   0.889  1.4410 -0.1045 -0.2476
   27MOL   H42220754   3.129   2.148   1.019 -1.5776 -3.1739 -0.7819
   27MOL   H42320755   3.018   2.069   1.116  0.8083 -1.6008 -0.9662
   27MOL   H42420756   3.092   2.364   1.111 -1.5854  1.5528  0.1201
   27MOL   H42520757   3.241   2.209   1.221 -0.7590  3.1459 -1.9818
   27MOL   H42620758   3.182   2.336   1.321  0.1131 -0.9284  1.1472
   27MOL   H42720759   3.182   2.063   1.745 -0.7119  0.0359 -0.4045
   27MOL   H42820760   3.073   1.863   1.855  0.3107 -0.1437  0.2408
   27MOL   H42920761   2.878   1.767   1.483  1.1389 -0.2011 -2.0485
   27MOL   H43020762   3.015   1.942   1.374 -1.0680 -0.5029 -0.7546
   27MOL   C43120763   2.419   1.272   2.017  0.0698 -0.0358  0.1241
   27MOL   C43220764   2.437   1.403   1.937  0.4807  0.7161  0.4644
   27MOL   C43320765   2.577   1.401   1.877 -0.7033 -0.1831 -0.6389
   27MOL   C43420766   2.603   1.524   1.790 -0.3627 -0.3097 -0.7372
   27MOL   O43520767   2.727   1.517   1.728 -0.3561  0.1801  0.5793
   27MOL   C43620768   2.676   1.405   1.996 -0.1271  0.1336  0.1272
   27MOL   C43720769   2.658   1.271   2.084 -0.1341  0.1713 -0.8754
   27MOL   C43820770   2.512   1.251   2.137  0.1786  0.2538  0.1395
   27MOL   C43920771   2.501   1.107   2.190 -0.0717  0.7924 -0.2517
   27MOL   O44020772   2.367   1.070   2.226 -0.4577 -0.1611  0.4025
   27MOL   C44120773   2.309   1.123   2.335  0.6944 -0.0895 -0.3606
   27MOL   O44220774   2.368   1.200   2.406  0.4521 -0.6623 -0.0756
   27MOL   C44320775   2.178   1.062   2.360 -0.0552  0.3175 -0.0691
   27MOL   C44420776   2.118   0.973   2.268 -0.2307 -0.6586 -0.3745
   27MOL   C44520777   1.987   0.924   2.286  0.0741  0.1282 -0.0536
   27MOL   C44620778   1.913   0.964   2.407 -0.3148  0.1659  0.0381
   27MOL   C44720779   1.782   0.897   2.422  0.5301 -0.8791 -0.9727
   27MOL   O44820780   1.729   0.874   2.533 -0.3498  0.1753  0.6410
   27MOL   O44920781   1.722   0.865   2.307  0.1299  0.1972 -0.0620
   27MOL   C45020782   1.977   1.044   2.502  0.0534  0.4852  0.1495
   27MOL   C45120783   2.107   1.100   2.471  0.2448  0.3117 -0.0010
   27MOL   H45220784   2.316   1.266   2.052 -0.0230  0.2311 -0.1080
   27MOL   H45320785   2.441   1.184   1.956 -1.2086  0.5064 -1.1194
   27MOL   H45420786   2.356   1.402   1.865 -0.2641  2.3832  1.2522
   27MOL   H45520787   2.416   1.491   1.997  1.4380 -0.2815  2.3317
   27MOL   H45620788   2.597   1.313   1.815 -0.9591 -1.2313  0.7454
   27MOL   H45720789   2.523   1.532   1.716  0.3829  0.4151 -1.4652
   27MOL   H45820790   2.600   1.608   1.859 -0.3171 -0.1882 -0.8853
   27MOL   H45920791   2.781   1.413   1.966 -0.0276  0.5101  0.5634
   27MOL   H46020792   2.649   1.491   2.058 -3.0711 -0.8519  0.2679
   27MOL   H46120793   2.735   1.277   2.162 -0.7858  0.6686 -0.2609
   27MOL   H46220794   2.694   1.197   2.013 -0.7085  0.0983 -1.0936
   27MOL   H46320795   2.479   1.327   2.208 -0.5248  1.5759 -1.5484
   27MOL   H46420796   2.519   1.042   2.104 -1.4366  1.0222 -0.7279
   27MOL   H46520797   2.564   1.084   2.276 -0.4772  1.0343  0.1102
   27MOL   H46620798   2.171   0.950   2.177 -1.3415  1.1559 -1.4984
   27MOL   H46720799   1.946   0.858   2.211 -0.2680 -0.6643  0.8258
   27MOL   H46820800   1.937   1.060   2.601  0.2386 -1.1552  0.5099
   27MOL   H46920801   2.165   1.158   2.541 -0.1946 -1.6284  2.0100
   27MOL   C47020802   1.233   0.567   2.192  0.8741  0.0383 -0.4199
   27MOL   C47120803   1.380   0.626   2.183 -0.3138 -0.1364 -0.5313
   27MOL   C47220804   1.459   0.603   2.311  0.5826  0.2854 -1.0581
   27MOL   C47320805   1.597   0.661   2.321  0.8307  0.7074  0.4086
   27MOL   O47420806   1.588   0.799   2.323 -0.7223 -0.5203  0.0742
   27MOL   C47520807   1.371   0.635   2.439  0.2079 -0.8011 -0.0230
   27MOL   C47620808   1.240   0.551   2.449 -0.2463  0.2782  0.1946
   27MOL   C47720809   1.152   0.579   2.322 -0.0612 -0.1286 -0.4414
   27MOL   C47820810   1.027   0.489   2.338 -0.3012 -0.2831  0.2264
   27MOL   O47920811   0.936   0.510   2.234 -0.4663 -0.0745 -0.1332
   27MOL   C48020812   0.834   0.587   2.254  0.4153 -0.0040  0.0458
   27MOL   O48120813   0.814   0.657   2.358 -0.4105 -0.2057  0.1237
   27MOL   C48220814   0.745   0.600   2.133 -0.1736  0.4221 -0.5924
   27MOL   C48320815   0.661   0.713   2.125  0.5853 -0.1329  0.3818
   27MOL   C48420816   0.572   0.711   2.012  0.2293 -0.2665 -0.7310
   27MOL   C48520817   0.568   0.616   1.913  0.5132 -0.4363  0.2099
   27MOL   C48620818   0.473   0.622   1.799 -0.0579  0.0620 -0.4796
   27MOL   O48720819   0.502   0.578   1.689  0.0351  0.1104 -0.0717
   27MOL   O48820820   0.360   0.677   1.839  0.1882  0.0895  0.0345
   27MOL   C48920821   0.661   0.513   1.919  0.3013 -0.3575  0.0561
   27MOL   C49020822   0.749   0.507   2.030 -0.2465 -0.1475 -0.1304
   27MOL   H49120823   1.177   0.610   2.109  0.4522 -0.8089 -0.5772
   27MOL   H49220824   1.240   0.462   2.162  0.6125 -0.0377 -0.2185
   27MOL   H49320825   1.422   0.584   2.092  0.6891 -1.2285  0.4059
   27MOL   H49420826   1.372   0.733   2.166  0.9687 -0.2223 -1.6863
   27MOL   H49520827   1.467   0.494   2.315  2.3393  0.4339 -0.1712
   27MOL   H49620828   1.648   0.621   2.409 -1.1551  1.6468  2.0251
   27MOL   H49720829   1.665   0.629   2.242  1.0811  1.8848  0.1456
   27MOL   H49820830   1.421   0.605   2.531  0.1780  2.8096  1.2528
   27MOL   H49920831   1.364   0.742   2.456  1.0780 -0.3634 -2.2073
   27MOL   H50020832   1.188   0.560   2.544 -1.1686 -0.5722 -0.2283
   27MOL   H50120833   1.262   0.444   2.455 -0.9435 -0.0663 -2.7681
   27MOL   H50220834   1.111   0.680   2.311  0.2537  0.2031  1.3129
   27MOL   H50320835   1.066   0.388   2.325  1.2181  0.5433 -2.1046
   27MOL   H50420836   0.993   0.493   2.441 -0.1014 -1.3596  0.3413
   27MOL   H50520837   0.658   0.790   2.201 -0.4321  0.4866 -0.2696
   27MOL   H50620838   0.517   0.804   2.008  0.7461  0.0894  0.2276
   27MOL   H50720839   0.667   0.430   1.850 -2.0215 -2.3507  2.1438
   27MOL   H50820840   0.825   0.430   2.036 -0.1141 -0.0435 -0.4352
   27MOL   C50920841   7.970   0.688   1.413 -0.5274  0.5363  0.2774
   27MOL   C51020842   0.030   0.718   1.527 -0.4305  0.0016 -0.4847
   27MOL   C51120843   0.178   0.713   1.496  0.9079 -1.2632  0.4571
   27MOL   C51220844   0.262   0.763   1.620  0.1121  0.0056  0.2169
   27MOL   O51320845   0.251   0.667   1.727  0.0347  0.8235  0.1074
   27MOL   C51420846   0.212   0.577   1.441 -0.0069 -0.6954  0.4427
   27MOL   C51520847   0.127   0.559   1.320 -0.0953  0.5046  0.1905
   27MOL   C51620848   8.010   0.561   1.340 -0.7700  0.8441 -0.9142
   27MOL   C51720849   7.934   0.543   1.209  0.5040 -0.2864 -0.4814
   27MOL   O51820850   7.974   0.624   1.110  0.0556  0.3029 -0.3252
   27MOL   C51920851   7.894   0.634   0.999 -0.1171 -0.4843 -0.2697
   27MOL   O52020852   7.782   0.582   0.985 -0.1651  0.4353 -0.2774
   27MOL   C52120853   7.956   0.725   0.890  0.6930  0.6658 -0.1480
   27MOL   C52220854   0.045   0.785   0.913 -0.0877  0.4992 -0.2467
   27MOL   C52320855   0.103   0.857   0.805 -0.4565  0.5722 -0.3334
   27MOL   C52420856   0.039   0.876   0.682  0.6561  0.4601  0.0881
   27MOL   C52520857   0.100   0.943   0.568 -0.0291  0.1592 -0.7625
   27MOL   O52620858   0.222   0.969   0.565  0.5205 -0.8119 -0.4431
   27MOL   O52720859   0.019   0.977   0.479  0.1491  0.0217 -0.1279
   27MOL   C52820860   7.942   0.821   0.666 -0.4305  0.1138 -0.2717
   27MOL   C52920861   7.885   0.739   0.769  0.3274 -0.4378  0.0026
   27MOL   H53020862   7.869   0.679   1.454 -0.2250  0.4115  0.9901
   27MOL   H53120863   7.955   0.772   1.345 -0.2307  2.0021  1.9889
   27MOL   H53220864   0.015   0.821   1.560  1.0478  0.9853 -2.7925
   27MOL   H53320865   0.009   0.647   1.608  0.4165  0.1600 -0.1209
   27MOL   H53420866   0.208   0.780   1.416  0.3351 -0.4680  0.9044
   27MOL   H53520867   0.366   0.788   1.602  0.4384 -0.8947  0.7897
   27MOL   H53620868   0.218   0.858   1.652 -0.2818 -0.1994  0.2850
   27MOL   H53720869   0.315   0.576   1.407  0.4891 -0.4748  1.9297
   27MOL   H53820870   0.206   0.494   1.511 -0.5545  0.7079  2.0983
   27MOL   H53920871   0.149   0.463   1.273 -0.3789  1.5828 -2.2283
   27MOL   H54020872   0.158   0.628   1.242 -0.5253  0.5283  0.0373
   27MOL   H54120873   7.978   0.479   1.405 -1.9079  2.1906  0.2500
   27MOL   H54220874   7.930   0.444   1.163  1.2874  0.1735 -1.5740
   27MOL   H54320875   7.830   0.563   1.235 -0.0460 -1.2263 -1.9277
   27MOL   H54420876   0.097   0.768   1.006 -0.2285 -2.0808 -0.5883
   27MOL   H54520877   0.204   0.894   0.816 -0.7334  2.1783 -2.9429
   27MOL   H54620878   7.887   0.825   0.573 -3.3605  0.1134  1.3947
   27MOL   H54720879   7.800   0.677   0.745 -0.6630  1.8510 -2.6766
   27MOL   C54820880   7.972   0.600   0.107  0.5385 -0.5459 -0.7018
   27MOL   C54920881   0.052   0.695   0.159 -0.1506  0.2634 -0.0192
   27MOL   C55020882   0.008   0.827   0.230  0.3022 -0.7424 -0.2755
   27MOL   C55120883   0.123   0.919   0.260  0.2399  0.4825 -0.2862
   27MOL   O55220884   0.085   1.028   0.349 -0.0165 -0.0524  0.4634
   27MOL   C55320885   7.941   0.902   0.145 -0.1801  0.6977  0.5313
   27MOL   C55420886   7.820   0.808   0.104 -0.0394  0.3078  0.0625
   27MOL   C55520887   7.860   0.675   0.037  0.7696  0.0163 -0.0087
   27MOL   C55620888   7.729   0.595   0.012  0.5536 -0.0043 -0.7303
   27MOL   O55720889   7.685   0.552   0.138 -0.1956 -0.5409  0.1685
   27MOL   C55820890   7.557   0.560   0.171 -0.1228  0.0585  0.9841
   27MOL   O55920891   7.472   0.586   0.086 -0.3687 -0.4564  0.0499
   27MOL   C56020892   7.522   0.524   0.314  0.0152 -0.6981  0.4391
   27MOL   C56120893   7.618   0.490   0.412  0.2814  0.5452  0.4479
   27MOL   C56220894   7.572   0.462   0.540  0.1046  0.1425  0.4130
   27MOL   C56320895   7.440   0.483   0.582 -0.0906 -0.3110 -0.5918
   27MOL   C56420896   7.400   0.456   0.721  0.3025  0.2416  0.3307
   27MOL   O56520897   7.285   0.427   0.753 -0.4306 -0.5930  0.4291
   27MOL   O56620898   7.505   0.457   0.809  0.1547 -0.8015 -0.0123
   27MOL   C56720899   7.344   0.511   0.483  0.1201  0.8671  0.2161
   27MOL   C56820900   7.385   0.532   0.347  0.5861  0.4999 -0.6412
   27MOL   H56920901   8.001   0.527   0.032 -1.1842 -0.3728 -1.5565
   27MOL   H57020902   7.926   0.548   0.191  0.1658 -1.5465 -1.5153
   27MOL   H57120903   0.118   0.635   0.221 -0.2737 -1.8575 -1.8504
   27MOL   H57220904   0.115   0.719   0.073 -0.1859  1.1983  0.2134
   27MOL   H57320905   7.984   0.796   0.316 -0.2442  1.1340  0.0508
   27MOL   H57420906   0.207   0.875   0.313  1.6989  4.2224  0.6595
   27MOL   H57520907   0.168   0.960   0.169 -2.1826  1.0109 -1.3091
   27MOL   H57620908   7.910   0.994   0.193 -0.3953  0.9904 -0.1618
   27MOL   H57720909   7.996   0.952   0.065  0.2572  0.4397  0.6635
   27MOL   H57820910   7.755   0.860   0.034 -2.3266 -1.6547  0.6433
   27MOL   H57920911   7.766   0.787   0.197 -1.1538  0.2467 -0.5938
   27MOL   H58020912   7.899   0.695   7.972  0.8340  2.2111  0.4380
   27MOL   H58120913   7.647   0.654   8.006 -1.0588  0.0273  2.3712
   27MOL   H58220914   7.745   0.510   7.981 -1.5632 -0.5838 -0.5535
   27MOL   H58320915   7.722   0.476   0.385  0.0372 -1.7751  0.6289
   27MOL   H58420916   7.645   0.440   0.617 -0.3288 -2.7575  0.0505
   27MOL   H58520917   7.243   0.532   0.515 -0.8675 -1.6227 -1.1109
   27MOL   H58620918   7.307   0.563   0.280 -0.3441 -0.5464 -0.0669
   27MOL   C58720919   7.540   0.204   1.365  0.2102 -0.0536  0.8298
   27MOL   C58820920   7.526   0.188   1.215 -0.3689 -0.0014 -0.1204
   27MOL   C58920921   7.477   0.322   1.151  0.0527  0.5961  0.2873
   27MOL   C59020922   7.481   0.310   1.000  0.5004  0.2298  0.6464
   27MOL   O59120923   7.461   0.441   0.955 -0.1412  0.6314  0.3715
   27MOL   C59220924   7.340   0.358   1.209 -0.1560 -1.0399 -1.0034
   27MOL   C59320925   7.349   0.367   1.360  0.3363 -0.5653 -0.0797
   27MOL   C59420926   7.401   0.239   1.421  0.1743 -0.0309 -0.3514
   27MOL   C59520927   7.409   0.234   1.582  0.0507 -0.4938 -0.1278
   27MOL   O59620928   7.494   0.332   1.640 -0.0961 -0.4601  0.7293
   27MOL   C59720929   7.432   0.458   1.674 -0.8639  0.0556  0.3852
   27MOL   O59820930   7.311   0.472   1.679  0.1076  0.5635 -0.2852
   27MOL   C59920931   7.522   0.570   1.703 -0.0668  0.0348  0.2453
   27MOL   C60020932   7.477   0.705   1.732  0.2231  0.8029  0.2701
   27MOL   C60120933   7.562   0.810   1.756  0.4193 -0.2217  0.0984
   27MOL   C60220934   7.704   0.790   1.761 -0.8352  0.8266 -0.2504
   27MOL   C60320935   7.808   0.892   1.796 -0.5778 -0.6815 -0.4717
   27MOL   O60420936   7.782   1.018   1.814  0.2789  0.1814 -0.6132
   27MOL   O60520937   7.929   0.841   1.797  0.5037  0.5941  0.4021
   27MOL   C60620938   7.748   0.660   1.720 -0.0182  0.0276 -0.4470
   27MOL   C60720939   7.659   0.549   1.698  0.0914 -0.5863 -1.0176
   27MOL   H60820940   7.580   0.115   1.413  0.2396 -1.3324 -1.4899
   27MOL   H60920941   7.608   0.286   1.389  0.6042 -0.3305  0.6755
   27MOL   H61020942   7.617   0.158   1.163 -0.8349  0.8868 -1.4767
   27MOL   H61120943   7.442   0.124   1.189  0.6178 -2.7998  3.2722
   27MOL   H61220944   7.546   0.404   1.172  1.1986 -0.7150  1.8423
   27MOL   H61320945   7.577   0.282   0.957 -0.4690  1.9351 -2.8013
   27MOL   H61420946   7.407   0.238   0.964  1.0505  0.8216 -1.7787
   27MOL   H61520947   7.323   0.456   1.165  0.4442  0.0868  1.1792
   27MOL   H61620948   7.267   0.284   1.177 -1.0294 -0.1641 -1.0399
   27MOL   H61720949   7.252   0.399   1.397 -1.0036 -2.4917 -1.8176
   27MOL   H61820950   7.417   0.451   1.375 -0.1327  0.0195 -1.1704
   27MOL   H61920951   7.333   0.156   1.403  0.7672 -0.6395  0.1769
   27MOL   H62020952   7.313   0.239   1.634  0.2647  4.2349  0.0920
   27MOL   H62120953   7.464   0.143   1.606  1.2718  0.3515  0.3347
   27MOL   H62220954   7.371   0.722   1.726 -0.2751 -1.3053  2.3180
   27MOL   H62320955   7.523   0.907   1.786  0.7733  0.5778 -1.9119
   27MOL   H62420956   7.853   0.649   1.699  0.2673 -0.8330  1.3773
   27MOL   H62520957   7.696   0.452   1.671 -0.8129 -0.9740 -0.8790
   27MOL   C62620958   8.029   0.531   2.111 -0.4759  0.0827  0.2698
   27MOL   C62720959   7.991   0.670   2.059  0.8934 -0.3936 -0.1467
   27MOL   C62820960   0.074   0.764   2.023  0.2667 -0.4692  0.4105
   27MOL   C62920961   0.018   0.909   1.998  0.3558 -0.1190  0.7217
   27MOL   O63020962   0.003   0.930   1.860  0.0214 -0.0099 -0.2720
   27MOL   C63120963   0.194   0.759   2.118 -0.0372 -0.1207  0.2316
   27MOL   C63220964   0.222   0.618   2.151 -1.0253 -0.4735 -0.1798
   27MOL   C63320965   0.103   0.544   2.212  0.4056  0.1859 -0.3793
   27MOL   C63420966   0.154   0.409   2.259 -0.7303 -0.5012  0.1890
   27MOL   O63520967   0.066   0.373   2.359  0.3127 -0.6569  0.9565
   27MOL   C63620968   0.105   0.353   2.482  0.9028 -0.4880 -0.1204
   27MOL   O63720969   0.221   0.326   2.516 -0.4176  0.0740  0.0749
   27MOL   C63820970   0.004   0.390   2.585  0.0317 -0.9383 -0.1185
   27MOL   C63920971   7.910   0.444   2.549 -0.2315  0.4780 -0.1063
   27MOL   C64020972   7.829   0.485   2.656 -0.5534  0.6402 -0.4489
   27MOL   C64120973   7.868   0.466   2.795  0.5659 -0.0220 -0.2644
   27MOL   C64220974   7.778   0.514   2.898 -0.3684 -0.2798  0.4349
   27MOL   O64320975   7.677   0.579   2.878  0.2381  0.0984  0.5255
   27MOL   O64420976   7.816   0.482   3.024 -0.1781 -0.0594  0.1253
   27MOL   C64520977   7.995   0.416   2.823  0.1862  0.3127 -0.4461
   27MOL   C64620978   0.044   0.382   2.718  0.2685 -0.2749 -0.2473
   27MOL   H64720979   7.941   0.480   2.149  1.0208 -1.3229  1.9413
   27MOL   H64820980   0.029   0.471   2.026 -2.5530 -0.3183 -0.3415
   27MOL   H64920981   7.927   0.649   1.973  0.3062 -0.0722  0.2112
   27MOL   H65020982   7.937   0.729   2.133 -0.5304 -3.4034  1.3136
   27MOL   H65120983   0.110   0.716   1.932 -0.6445  1.3341 -0.9273
   27MOL   H65220984   7.956   0.916   2.047 -0.6648  3.1319 -1.6434
   27MOL   H65320985   0.069   0.998   2.034 -0.1553  0.3212  0.3586
   27MOL   H65420986   0.279   0.803   2.066 -0.0964 -1.1261 -0.7381
   27MOL   H65520987   0.157   0.808   2.209 -2.4157 -0.3184 -0.5869
   27MOL   H65620988   0.307   0.617   2.220 -1.5338 -1.1484  0.4453
   27MOL   H65720989   0.257   0.571   2.059 -1.6859  0.5893 -0.9833
   27MOL   H65820990   0.072   0.609   2.295  1.2545 -1.7972  1.5309
   27MOL   H65920991   0.137   0.347   2.171 -0.9309  0.7358 -0.6533
   27MOL   H66020992   0.257   0.419   2.291  0.0738 -1.5240 -1.9651
   27MOL   H66120993   7.884   0.459   2.445  1.5861  2.3418 -0.3502
   27MOL   H66220994   7.727   0.518   2.640 -0.3976  0.9456 -0.8194
   27MOL   H66320995   8.031   0.403   2.924  0.2354 -1.3381 -0.6592
   27MOL   H66420996   0.138   0.341   2.751  0.4923  0.5421  0.1324
   27MOL   C66520997   7.330   0.671   3.049 -0.0977 -0.4092 -0.7807
   27MOL   C66620998   7.456   0.642   3.126 -0.0925 -0.3975 -0.4138
   27MOL   C66720999   7.511   0.492   3.131 -0.8014 -0.0581  0.3304
   27MOL   C66821000   7.647   0.474   3.210  0.0468  0.8577  0.1801
   27MOL   O66921001   7.745   0.557   3.140 -0.5485 -0.2780  0.2448
   27MOL   C67021002   7.393   0.404   3.178  0.8229  0.1899 -0.1604
   27MOL   C67121003   7.258   0.428   3.093 -0.6583  0.3247  0.5480
   27MOL   C67221004   7.217   0.579   3.098  0.0902 -0.1350  0.4125
   27MOL   C67321005   7.082   0.603   3.019  1.0039 -0.4698 -0.4944
   27MOL   O67421006   7.047   0.738   3.028 -0.4532 -0.2440  0.0875
   27MOL   C67521007   6.970   0.782   3.133  0.6127  0.1328  0.4773
   27MOL   O67621008   6.906   0.708   3.205  0.1619 -0.2457  0.2373
   27MOL   C67721009   6.979   0.928   3.158  0.1807 -0.7200  0.6668
   27MOL   C67821010   7.092   1.011   3.127  0.6689  0.3097  0.2119
   27MOL   C67921011   7.087   1.152   3.140 -0.4469 -0.3834  0.2669
   27MOL   C68021012   6.972   1.213   3.191 -0.1805 -0.0908 -0.4654
   27MOL   C68121013   6.967   1.358   3.206 -0.0864 -0.4108  0.1885
   27MOL   O68221014   6.864   1.424   3.223  0.1172  0.0216 -0.3046
   27MOL   O68321015   7.092   1.422   3.211 -0.0143  0.2129 -0.3533
   27MOL   C68421016   6.862   1.133   3.234  0.3613 -0.4591 -0.0306
   27MOL   C68521017   6.865   0.991   3.215 -0.2704  0.2189 -0.4594
   27MOL   H68621018   7.298   0.773   3.073  2.2051 -0.1996  1.6383
   27MOL   H68721019   7.348   0.662   2.942  1.9511 -0.6583 -0.4329
   27MOL   H68821020   7.545   0.696   3.092 -0.3957  1.2720  1.3595
   27MOL   H68921021   7.439   0.664   3.231 -0.5902 -1.2414 -0.3121
   27MOL   H69021022   7.520   0.456   3.029 -0.0687 -1.3810  0.8396
   27MOL   H69121023   7.641   0.511   3.312  0.7337  0.4992  0.3483
   27MOL   H69221024   7.669   0.368   3.213  0.9369  1.0397  0.0855
   27MOL   H69321025   7.423   0.301   3.161  1.0306  0.2480 -0.1377
   27MOL   H69421026   7.365   0.427   3.281 -0.4074 -0.5389 -0.3224
   27MOL   H69521027   7.180   0.357   3.122 -1.6567  1.0284 -0.3977
   27MOL   H69621028   7.277   0.393   2.991  1.7937  0.5675  0.8945
   27MOL   H69721029   7.191   0.607   3.200  0.3455  1.7153 -0.0105
   27MOL   H69821030   7.106   0.579   2.915  4.5267  0.8333 -0.0589
   27MOL   H69921031   7.002   0.535   3.051  2.0457  0.0612  3.5375
   27MOL   H70021032   7.179   0.960   3.088  0.4027 -2.5194  3.1138
   27MOL   H70121033   7.164   1.217   3.102 -2.3298  2.3025  0.9474
   27MOL   H70221034   6.770   1.177   3.270  0.6829  0.6391 -0.5185
   27MOL   H70321035   6.778   0.931   3.239  0.7780 -1.9390 -1.9084
   27MOL   C70421036   7.128   2.000   3.241 -0.1860  0.2161  0.2731
   27MOL   C70521037   7.156   1.855   3.222  0.1037 -0.0513 -0.3477
   27MOL   C70621038   7.048   1.780   3.134  0.2289 -0.1125  0.0074
   27MOL   C70721039   7.084   1.637   3.112 -0.1197  0.5289 -0.0984
   27MOL   O70821040   7.096   1.568   3.240  0.5261 -0.2895  0.2323
   27MOL   C70921041   6.911   1.801   3.194 -0.3988 -0.1681 -0.0648
   27MOL   C71021042   6.876   1.947   3.230 -0.0952 -0.3536 -0.0284
   27MOL   C71121043   6.985   2.028   3.303 -0.4204  0.0779 -0.1320
   27MOL   C71221044   6.960   2.175   3.316 -0.2426  0.0642 -0.1833
   27MOL   O71321045   6.942   2.243   3.183 -0.3254  0.1380 -0.0959
   27MOL   C71421046   6.924   2.373   3.181 -0.1252 -0.9117 -0.9632
   27MOL   O71521047   6.926   2.439   3.285  0.0646  0.7135 -0.4119
   27MOL   C71621048   6.906   2.426   3.037  0.0479 -0.2696 -0.0853
   27MOL   C71721049   6.931   2.344   2.921 -1.3370 -0.0350 -0.0549
   27MOL   C71821050   6.907   2.395   2.792  0.2098  0.4938  0.1083
   27MOL   C71921051   6.865   2.531   2.766  0.3648  0.0781 -0.5558
   27MOL   C72021052   6.857   2.591   2.633  0.8609  0.3014 -0.0992
   27MOL   O72121053   6.816   2.707   2.622 -0.7105  0.3167  0.0574
   27MOL   O72221054   6.892   2.509   2.539  0.1530  0.3691 -0.4222
   27MOL   C72321055   6.843   2.606   2.884 -0.1386 -0.5328 -0.0132
   27MOL   C72421056   6.864   2.553   3.011 -0.2721  0.1061  0.2037
   27MOL   H72521057   7.213   2.039   3.297 -1.4812  2.3621  0.8140
   27MOL   H72621058   7.139   2.043   3.141 -2.6314  0.8849  0.2411
   27MOL   H72721059   7.255   1.847   3.176  0.0226 -1.9799 -0.2543
   27MOL   H72821060   7.165   1.796   3.313 -0.7817 -0.8120 -0.7383
   27MOL   H72921061   7.034   1.830   3.038 -0.6002  1.2031  0.8005
   27MOL   H73021062   6.995   1.594   3.065  0.6994  0.5093 -1.6514
   27MOL   H73121063   7.171   1.629   3.048 -1.8373  0.8086 -2.5488
   27MOL   H73221064   6.838   1.752   3.130  0.5789 -1.5251 -0.1565
   27MOL   H73321065   6.903   1.743   3.286 -2.3065 -1.8747 -1.2649
   27MOL   H73421066   6.784   1.947   3.288 -0.5189  1.1365 -0.6908
   27MOL   H73521067   6.847   1.996   3.137 -2.0126 -0.9126  0.2467
   27MOL   H73621068   6.996   1.999   3.408 -0.0754  0.3808 -0.0832
   27MOL   H73721069   6.881   2.195   3.388  0.8085 -3.7513  2.2179
   27MOL   H73821070   7.048   2.220   3.362 -1.3492  0.9249  1.1048
   27MOL   H73921071   6.948   2.238   2.918  1.0341  0.3387 -3.1438
   27MOL   H74021072   6.929   2.328   2.710 -0.1082 -0.5619  0.8728
   27MOL   H74121073   6.817   2.710   2.873  0.0032 -0.4608  0.3314
   27MOL   H74221074   6.850   2.621   3.094  1.9018  0.9331 -0.0781
   27MOL   C74321075   6.687   2.455   1.963  0.0167  0.4941 -0.1557
   27MOL   C74421076   6.689   2.432   2.108 -0.4606  0.8706 -0.8460
   27MOL   C74521077   6.803   2.510   2.183 -0.0249  0.2214 -0.1366
   27MOL   C74621078   6.794   2.476   2.331 -0.8532 -0.3292 -0.0919
   27MOL   O74721079   6.889   2.563   2.403  0.1206 -0.5497  0.6501
   27MOL   C74821080   6.937   2.481   2.116  0.5721 -0.5580  0.0063
   27MOL   C74921081   6.936   2.526   1.966  0.3683  0.8774 -0.0948
   27MOL   C75021082   6.827   2.446   1.896  1.1267  0.1559  0.0810
   27MOL   C75121083   6.823   2.482   1.742  0.0725  0.6789  0.2649
   27MOL   O75221084   6.789   2.618   1.731 -0.3816  0.0915 -0.6951
   27MOL   C75321085   6.709   2.664   1.630  0.2937  0.5038  0.7876
   27MOL   O75421086   6.666   2.591   1.540  0.4740  0.4855  0.0420
   27MOL   C75521087   6.676   2.809   1.641  0.0994  0.5367  0.2619
   27MOL   C75621088   6.631   2.883   1.530  0.8723  0.1462 -0.4758
   27MOL   C75721089   6.603   3.020   1.541 -0.4484 -0.0579 -0.1223
   27MOL   C75821090   6.607   3.087   1.666  0.6597 -0.2547  0.1901
   27MOL   C75921091   6.566   3.233   1.671 -0.1907 -0.2422 -0.0783
   27MOL   O76021092   6.486   3.289   1.599 -0.4193 -0.3031  0.0963
   27MOL   O76121093   6.631   3.302   1.763  0.4213 -0.1408  0.1187
   27MOL   C76221094   6.648   3.012   1.785 -1.0710  0.2083  0.0938
   27MOL   C76321095   6.685   2.876   1.764 -0.6966 -0.1139  0.2513
   27MOL   H76421096   6.620   2.381   1.921  1.5401 -0.9754 -0.0601
   27MOL   H76521097   6.654   2.559   1.958  3.0653  1.5587  0.4860
   27MOL   H76621098   6.593   2.466   2.144 -0.2836 -0.2927  0.8317
   27MOL   H76721099   6.708   2.328   2.135  1.4195  1.8975  2.0386
   27MOL   H76821100   6.773   2.615   2.180  0.2185  0.3298  1.0002
   27MOL   H76921101   6.692   2.502   2.359 -0.9447  0.2787 -0.9449
   27MOL   H77021102   6.811   2.371   2.351 -0.0876  0.4026  3.2947
   27MOL   H77121103   7.017   2.530   2.172  0.6969  0.2632 -0.8677
   27MOL   H77221104   6.964   2.376   2.121  0.7448 -0.6240 -1.9952
   27MOL   H77321105   7.025   2.508   1.906 -0.3516 -0.5603 -0.7523
   27MOL   H77421106   6.911   2.631   1.958 -0.9510  0.4848 -1.3081
   27MOL   H77521107   6.861   2.343   1.903 -1.4311 -0.7819 -0.7776
   27MOL   H77621108   6.915   2.458   1.689 -0.3457  0.2990 -0.2911
   27MOL   H77721109   6.739   2.427   1.699  1.4456 -0.8547 -0.5410
   27MOL   H77821110   6.634   2.831   1.435 -2.2838  0.2726 -0.6997
   27MOL   H77921111   6.564   3.073   1.455 -0.4268 -0.6432 -0.4981
   27MOL   H78021112   6.668   3.064   1.877 -1.6091 -2.3517  1.7197
   27MOL   H78121113   6.718   2.821   1.851 -0.8065  0.4590  0.6602
   27MOL   H78221114   6.589   3.383   1.789  0.5887  1.0350 -3.0819
   28MOL     C121115   2.212   0.983   1.367 -0.3719 -0.3224  0.4527
   28MOL     C221116   2.106   1.082   1.312 -0.0416 -0.4746  0.0290
   28MOL     C321117   1.981   1.092   1.403  0.0337 -0.8345  0.6464
   28MOL     C421118   1.879   1.199   1.361 -0.3639  0.3027 -0.2388
   28MOL     O521119   1.816   1.178   1.233 -0.1750 -0.0417  0.2434
   28MOL     C621120   1.924   0.949   1.425 -0.5216  0.0444 -0.1890
   28MOL     C721121   2.030   0.861   1.489 -0.9589 -0.5280  0.6050
   28MOL     C821122   2.151   0.850   1.392 -0.0270  0.4072 -0.0058
   28MOL     C921123   2.255   0.749   1.440 -0.2177  0.4400 -0.6229
   28MOL    O1021124   2.376   0.753   1.370 -0.3318 -0.0043 -0.3664
   28MOL    C1121125   2.492   0.735   1.440  0.5776  0.8036 -0.5087
   28MOL    O1221126   2.508   0.665   1.538  0.4583 -0.3933 -0.3511
   28MOL    C1321127   2.604   0.796   1.373  0.4854  0.2634  0.2764
   28MOL    C1421128   2.727   0.801   1.449  0.4203 -0.2487 -0.4613
   28MOL    C1521129   2.835   0.877   1.415 -0.6572 -0.6460 -0.1889
   28MOL    C1621130   2.827   0.956   1.297  0.2537  0.8988 -0.3071
   28MOL    C1721131   2.936   1.051   1.254 -0.0764  0.1075  0.3728
   28MOL    O1821132   2.949   1.097   1.141 -0.9324  0.5522 -0.0104
   28MOL    O1921133   3.024   1.084   1.352 -0.2737  0.1885  0.3528
   28MOL    C2021134   2.713   0.944   1.216  0.5382 -0.1940 -0.2736
   28MOL    C2121135   2.602   0.864   1.253 -0.1360 -0.0229  0.0825
   28MOL    H2221136   2.278   0.976   1.280 -1.4132  0.6454 -0.4457
   28MOL    H2321137   2.276   1.009   1.451  0.8490 -0.5249 -0.3958
   28MOL    H2421138   2.155   1.179   1.302 -1.1498  0.2688  1.6616
   28MOL    H2521139   2.088   1.044   1.211 -1.9411  2.0652 -0.6361
   28MOL    H2621140   2.023   1.126   1.498  2.2540 -0.1185 -0.5642
   28MOL    H2721141   1.805   1.217   1.439  0.1620 -1.1381  0.5939
   28MOL    H2821142   1.932   1.294   1.354 -0.6346  0.5091  0.5110
   28MOL    H2921143   1.831   0.958   1.480 -0.3725 -1.9070  0.4383
   28MOL    H3021144   1.898   0.909   1.327 -1.9262  1.3091 -0.3481
   28MOL    H3121145   1.992   0.759   1.500  1.2525 -1.6094 -1.3938
   28MOL    H3221146   2.053   0.910   1.583 -1.7993  0.5836  0.2397
   28MOL    H3321147   2.124   0.822   1.290  0.0232 -0.2703  0.1704
   28MOL    H3421148   2.274   0.757   1.547 -0.9319  1.7149 -0.5861
   28MOL    H3521149   2.207   0.652   1.426  0.7982 -0.2444  0.4746
   28MOL    H3621150   2.747   0.741   1.536  1.1474  0.7409  0.0579
   28MOL    H3721151   2.921   0.879   1.480 -0.5851 -0.4300 -0.2897
   28MOL    H3821152   2.713   1.013   1.133  1.8568 -1.2863 -1.2119
   28MOL    H3921153   2.512   0.864   1.193 -1.3887 -1.8345  1.8684
   28MOL    H4021154   1.877   1.213   1.170 -0.0444 -4.2210 -2.1277
   28MOL    C4121155   3.293   1.648   1.361  0.4923 -0.1766 -0.7234
   28MOL    C4221156   3.168   1.562   1.336 -0.7007  0.0104  0.0315
   28MOL    C4321157   3.210   1.407   1.320  0.9528 -0.4466 -0.3482
   28MOL    C4421158   3.092   1.303   1.304  0.4097 -0.0248 -0.0951
   28MOL    O4521159   3.134   1.172   1.305  0.4836 -0.7539 -0.1312
   28MOL    C4621160   3.321   1.387   1.219 -0.1777 -0.4529 -0.6805
   28MOL    C4721161   3.442   1.481   1.245 -0.1117  0.3936 -0.5224
   28MOL    C4821162   3.401   1.627   1.255  0.6690 -0.3089  0.4479
   28MOL    C4921163   3.530   1.705   1.294  0.3597 -0.2689 -0.3956
   28MOL    O5021164   3.637   1.692   1.196  0.1370  0.3011 -0.1154
   28MOL    C5121165   3.709   1.796   1.169  0.2582 -0.3135 -0.4255
   28MOL    O5221166   3.704   1.901   1.235  0.6283 -0.4253 -0.5372
   28MOL    C5321167   3.800   1.788   1.052  0.2858  0.6505  0.2423
   28MOL    C5421168   3.890   1.887   1.035 -0.4993 -0.4191 -0.3416
   28MOL    C5521169   3.999   1.875   0.945  0.2828 -0.2238  0.7700
   28MOL    C5621170   4.009   1.756   0.868 -0.4016 -0.0991 -0.0945
   28MOL    C5721171   4.123   1.724   0.776 -0.1188  0.4475  0.0171
   28MOL    O5821172   4.118   1.630   0.706 -0.0951 -0.2565 -0.1705
   28MOL    O5921173   4.220   1.813   0.772 -1.0061 -0.0602  0.5015
   28MOL    C6021174   3.904   1.660   0.869  0.2873 -0.1861 -0.4815
   28MOL    C6121175   3.794   1.678   0.964  0.2099 -0.1063  0.0907
   28MOL    H6221176   3.265   1.753   1.372 -1.5648 -1.0176  2.7907
   28MOL    H6321177   3.340   1.620   1.455  0.5243  0.7871 -0.4429
   28MOL    H6421178   3.100   1.577   1.419  1.4236  1.2105  1.6073
   28MOL    H6521179   3.099   1.593   1.257  1.1147  2.4550 -0.6550
   28MOL    H6621180   3.259   1.371   1.410 -0.1187  0.6649  0.6970
   28MOL    H6721181   3.015   1.310   1.382  1.5785 -2.0738  1.2880
   28MOL    H6821182   3.041   1.327   1.211  2.2648  2.4873 -0.5186
   28MOL    H6921183   3.363   1.287   1.209 -0.4155 -0.7249  0.9307
   28MOL    H7021184   3.286   1.407   1.118 -2.0477 -0.0645  0.0280
   28MOL    H7121185   3.511   1.470   1.161 -1.1256 -1.5981 -1.1363
   28MOL    H7221186   3.503   1.456   1.332 -0.8062  4.8069  1.3629
   28MOL    H7321187   3.372   1.675   1.162 -2.0361  2.7965  2.7557
   28MOL    H7421188   3.512   1.812   1.307  0.5863 -0.0190 -2.0055
   28MOL    H7521189   3.560   1.673   1.393 -0.7595 -1.5790 -0.4617
   28MOL    H7621190   3.897   1.970   1.104 -0.6043 -0.5075 -0.2242
   28MOL    H7721191   4.079   1.947   0.953 -0.2004  0.3909  0.0609
   28MOL    H7821192   3.912   1.568   0.812 -2.2352 -0.0059 -1.2119
   28MOL    H7921193   3.731   1.591   0.968  0.8066 -0.4846  1.4916
   28MOL    C8021194   4.698   1.911   0.472 -0.1475  0.0486 -0.3856
   28MOL    C8121195   4.564   1.920   0.558  0.4369  0.2605 -0.1102
   28MOL    C8221196   4.435   1.883   0.479  0.0572 -0.3149  0.0706
   28MOL    C8321197   4.311   1.882   0.569 -0.0583  0.1394  0.2843
   28MOL    O8421198   4.331   1.794   0.677 -0.1430  0.9508  0.1915
   28MOL    C8521199   4.422   1.979   0.358 -0.1275 -0.3025  0.2444
   28MOL    C8621200   4.546   1.969   0.278 -0.4111  0.4784 -0.8117
   28MOL    C8721201   4.685   2.008   0.357 -0.0606 -0.5372  0.2471
   28MOL    C8821202   4.807   2.005   0.264  0.5339 -0.0368 -0.1187
   28MOL    O8921203   4.909   2.079   0.327  0.3004 -0.1263 -0.5851
   28MOL    C9021204   5.028   2.091   0.260 -0.3689 -0.8204 -1.2131
   28MOL    O9121205   5.038   2.059   0.139 -0.3167  0.0902 -0.6608
   28MOL    C9221206   5.139   2.146   0.345  0.1840 -0.5472 -0.2512
   28MOL    C9321207   5.262   2.180   0.288  0.0440  1.0028 -0.2326
   28MOL    C9421208   5.361   2.237   0.370 -0.4682 -0.7482 -0.2003
   28MOL    C9521209   5.345   2.255   0.511  0.4168 -0.5411  0.0137
   28MOL    C9621210   5.451   2.305   0.598 -0.3206 -0.2447 -0.2255
   28MOL    O9721211   5.442   2.306   0.718  0.1569 -0.4510  0.0799
   28MOL    O9821212   5.560   2.350   0.535 -0.0098  0.1255 -0.0612
   28MOL    C9921213   5.220   2.223   0.568 -0.4875  0.5635  0.3458
   28MOL   C10021214   5.121   2.164   0.488 -0.1419  0.3560  0.6452
   28MOL   H10121215   4.785   1.946   0.528  0.7763 -1.5097 -0.8087
   28MOL   H10221216   4.710   1.806   0.442  1.7914  0.5205 -1.3260
   28MOL   H10321217   4.580   1.834   0.624 -0.1597 -0.1687 -0.5095
   28MOL   H10421218   4.551   2.018   0.602 -0.0800  0.4594 -0.6970
   28MOL   H10521219   4.447   1.784   0.435 -0.9503 -0.4346  0.0438
   28MOL   H10621220   4.283   1.982   0.602  1.4334  0.3610  0.9330
   28MOL   H10721221   4.228   1.846   0.509  0.7066 -1.0671 -0.0667
   28MOL   H10821222   4.340   1.961   0.288  1.6482  1.0007 -2.2279
   28MOL   H10921223   4.404   2.082   0.390 -1.5870  0.2070 -2.1264
   28MOL   H11021224   4.536   2.023   0.184 -1.1638 -2.4467 -2.4770
   28MOL   H11121225   4.562   1.864   0.253 -0.6010  0.2430  0.0480
   28MOL   H11221226   4.675   2.111   0.392 -3.3005 -1.2573  1.6063
   28MOL   H11321227   4.846   1.906   0.242 -3.1854 -1.6907  0.3778
   28MOL   H11421228   4.793   2.061   0.171 -3.7263  1.1772  1.1393
   28MOL   H11521229   5.291   2.150   0.188  0.3805  1.8427 -0.3944
   28MOL   H11621230   5.451   2.265   0.318 -1.7604  0.4904 -1.8368
   28MOL   H11721231   5.204   2.238   0.674 -0.2129  2.9401  0.0573
   28MOL   H11821232   5.028   2.131   0.533 -0.0333 -2.3663 -0.9826
   28MOL   C11921233   5.980   2.277   0.377  0.2457 -0.1576 -0.4668
   28MOL   C12021234   5.857   2.273   0.467 -0.6102  0.5706 -0.4775
   28MOL   C12121235   5.869   2.354   0.596  1.2891 -0.1115  0.4936
   28MOL   C12221236   5.740   2.357   0.682  0.0926 -0.4518 -0.6920
   28MOL   O12321237   5.646   2.440   0.613 -0.0721  0.4750 -0.0387
   28MOL   C12421238   5.998   2.332   0.671  0.4401  0.2646  0.3833
   28MOL   C12521239   6.124   2.346   0.579  0.0258 -0.6177  0.4628
   28MOL   C12621240   6.108   2.247   0.454 -0.4645 -0.3748 -0.5537
   28MOL   C12721241   6.243   2.250   0.375 -0.2824  0.2129  0.0770
   28MOL   O12821242   6.252   2.377   0.297  0.2307  0.6656  0.5321
   28MOL   C12921243   6.319   2.375   0.186 -0.3980 -0.7177 -0.1635
   28MOL   O13021244   6.380   2.277   0.147  0.4420  0.2961  0.3602
   28MOL   C13121245   6.309   2.506   0.108  0.1830  0.0841  0.0994
   28MOL   C13221246   6.216   2.612   0.141  1.1119 -0.0532 -0.1961
   28MOL   C13321247   6.206   2.727   0.055  0.3811  0.2955  0.0962
   28MOL   C13421248   6.287   2.738   7.973 -0.0421  0.7686  0.4377
   28MOL   C13521249   6.275   2.852   7.880  0.0300  0.3395 -0.1272
   28MOL   O13621250   6.335   2.868   7.779 -0.2587  0.0067 -0.3543
   28MOL   O13721251   6.181   2.945   7.926  0.6373 -0.5228 -0.2270
   28MOL   C13821252   6.366   2.632   7.933 -0.5279  0.1440 -0.0305
   28MOL   C13921253   6.378   2.514   8.017 -0.1954  0.5883  0.2287
   28MOL   H14021254   5.974   2.202   0.297 -0.1908 -0.2435 -0.3566
   28MOL   H14121255   5.987   2.370   0.322 -0.8653  0.4847  0.4592
   28MOL   H14221256   5.777   2.302   0.399 -0.5176  2.0489  0.0092
   28MOL   H14321257   5.841   2.171   0.502  0.3651  0.5337 -0.1144
   28MOL   H14421258   5.854   2.456   0.561 -1.0225 -0.7644 -0.4853
   28MOL   H14521259   5.699   2.259   0.706  1.0058 -0.0395  2.9422
   28MOL   H14621260   5.758   2.408   0.777  1.9671 -0.5274 -0.9903
   28MOL   H14721261   5.998   2.402   0.755  1.2286 -0.3598  0.9098
   28MOL   H14821262   6.003   2.230   0.709 -0.0975 -0.6242 -1.8664
   28MOL   H14921263   6.218   2.312   0.622 -0.7774 -0.7702  2.1293
   28MOL   H15021264   6.133   2.451   0.552 -0.1212 -0.6745  0.1913
   28MOL   H15121265   6.098   2.151   0.504 -1.7603 -0.5395 -1.0870
   28MOL   H15221266   6.324   2.245   0.448 -0.9135 -0.7907  0.7236
   28MOL   H15321267   6.259   2.167   0.306  2.4763 -0.4742  1.4476
   28MOL   H15421268   6.159   2.606   0.232  0.1660  1.1501 -0.6901
   28MOL   H15521269   6.139   2.806   0.084 -1.4236 -0.2077 -2.5159
   28MOL   H15621270   6.417   2.632   7.838 -1.6721 -2.2697 -0.6768
   28MOL   H15721271   6.440   2.430   7.990 -2.9972 -1.8017  0.8882
   28MOL   C15821272   6.130   3.496   7.671  0.2664 -1.2703  0.1040
   28MOL   C15921273   6.184   3.358   7.706  0.1398  0.6843 -0.1191
   28MOL   C16021274   6.182   3.327   7.852  1.0174  0.1185  0.8642
   28MOL   C16121275   6.228   3.182   7.901  1.0984 -0.2271 -0.2230
   28MOL   O16221276   6.162   3.073   7.835  0.4807  0.1655 -0.3630
   28MOL   C16321277   6.243   3.442   7.938  0.0336  0.3313 -0.2114
   28MOL   C16421278   6.197   3.583   7.893  0.0898 -0.5838  0.1233
   28MOL   C16521279   6.212   3.604   7.739 -0.6661 -0.2151 -0.5181
   28MOL   C16621280   6.169   3.749   7.694 -0.0765 -0.1874  0.6241
   28MOL   O16721281   6.165   3.762   7.550 -0.3084 -0.0986  0.4025
   28MOL   C16821282   6.072   3.832   7.497 -0.0656 -0.3925  0.0827
   28MOL   O16921283   5.996   3.899   7.562  0.4827  0.1639  0.2261
   28MOL   C17021284   6.067   3.834   7.351 -0.1444 -0.0095 -0.7194
   28MOL   C17121285   6.130   3.731   7.282 -0.8275  0.0410 -0.6478
   28MOL   C17221286   6.124   3.728   7.140  0.2695  0.2537  0.1439
   28MOL   C17321287   6.046   3.824   7.067  0.0824  0.2404 -0.5231
   28MOL   C17421288   6.031   3.826   6.917 -0.5277  0.3111 -0.3455
   28MOL   O17521289   5.988   3.930   6.857  0.4509  0.7014  0.9571
   28MOL   O17621290   6.062   3.707   6.864 -0.1891  0.3578 -0.3769
   28MOL   C17721291   5.991   3.934   7.141  0.4301  0.1444 -0.1250
   28MOL   C17821292   5.998   3.936   7.280  0.1555 -0.4145  0.1359
   28MOL   H17921293   6.135   3.501   7.562  3.0212 -0.3506  0.2267
   28MOL   H18021294   6.026   3.509   7.699  1.0969 -0.0234  2.7396
   28MOL   H18121295   6.110   3.283   7.678 -1.4039  1.5953  1.4692
   28MOL   H18221296   6.281   3.330   7.663 -0.5335 -1.2275 -0.4561
   28MOL   H18321297   6.079   3.330   7.885  0.2443  2.4880 -1.5471
   28MOL   H18421298   6.334   3.173   7.880  1.5547  1.1815  1.3853
   28MOL   H18521299   6.221   3.164   8.008 -1.1218 -0.1963 -0.3455
   28MOL   H18621300   6.223   3.428   0.009  1.7937 -1.2812 -0.0617
   28MOL   H18721301   6.351   3.427   7.934 -0.0135 -1.1648  2.5070
   28MOL   H18821302   6.248   3.658   7.954 -2.5703 -0.7840  2.7089
   28MOL   H18921303   6.090   3.592   7.914 -0.0328  1.5185 -1.3365
   28MOL   H19021304   6.316   3.588   7.710 -0.5960 -0.7782  0.0419
   28MOL   H19121305   6.074   3.776   7.739  1.0178  1.1097  2.2485
   28MOL   H19221306   6.243   3.816   7.739 -0.6793  0.6611  0.3562
   28MOL   H19321307   6.180   3.649   7.332 -1.4707  0.0606  0.0394
   28MOL   H19421308   6.161   3.646   7.081 -0.7895  0.0078 -0.1761
   28MOL   H19521309   5.931   4.005   7.087 -0.3018 -0.1630  0.2854
   28MOL   H19621310   5.954   4.020   7.333 -0.9834  0.0462 -1.5076
   28MOL   C19721311   6.445   3.504   6.556 -0.5211 -0.1832 -0.0282
   28MOL   C19821312   6.344   3.621   6.540 -0.3012  0.6666 -0.3005
   28MOL   C19921313   6.229   3.608   6.644  1.0552 -0.1594 -0.1598
   28MOL   C20021314   6.121   3.711   6.636  1.0569  0.1226 -0.7928
   28MOL   O20121315   6.008   3.696   6.717  0.5747  0.5882  0.5735
   28MOL   C20221316   6.166   3.457   6.635  0.4686 -0.6662  0.4048
   28MOL   C20321317   6.267   3.341   6.655 -0.4589  0.3051  0.2933
   28MOL   C20421318   6.379   3.362   6.553 -0.0939 -0.5228 -0.2744
   28MOL   C20521319   6.490   3.253   6.573 -0.0612  0.1048  0.7744
   28MOL   O20621320   6.552   3.253   6.704  0.0695 -0.3551  0.0683
   28MOL   C20721321   6.650   3.167   6.719  0.7618 -0.8225  0.2125
   28MOL   O20821322   6.701   3.097   6.632 -0.3505 -0.2319  0.4729
   28MOL   C20921323   6.690   3.171   6.859 -0.1417  0.7804  0.0258
   28MOL   C21021324   6.616   3.247   6.955  1.3940  0.7278  0.8563
   28MOL   C21121325   6.644   3.243   7.093 -0.1553 -0.0800 -0.3221
   28MOL   C21221326   6.749   3.159   7.134 -0.6390 -0.3128  0.2091
   28MOL   C21321327   6.784   3.154   7.282 -0.0217  0.3959  0.2232
   28MOL   O21421328   6.771   3.245   7.357  0.3471 -0.2554 -0.1111
   28MOL   O21521329   6.832   3.034   7.306 -0.1230  0.1429 -0.4461
   28MOL   C21621330   6.820   3.074   7.041  1.2552 -0.0915 -0.9716
   28MOL   C21721331   6.789   3.082   6.906  0.3242 -0.5047  0.5848
   28MOL   H21821332   6.514   3.501   6.472  0.5544  0.8343  0.8098
   28MOL   H21921333   6.497   3.526   6.649 -0.3206  0.9152 -0.3943
   28MOL   H22021334   6.397   3.714   6.558  0.3470 -0.0825  1.7438
   28MOL   H22121335   6.298   3.636   6.442  0.9367 -2.9605 -1.5120
   28MOL   H22221336   6.272   3.620   6.744 -0.2980  0.8349  0.3225
   28MOL   H22321337   6.166   3.808   6.660 -1.5748  1.7963 -2.3554
   28MOL   H22421338   6.090   3.721   6.532 -0.9077  1.8887 -0.0779
   28MOL   H22521339   6.102   3.443   6.723  1.0505  0.5709  1.0388
   28MOL   H22621340   6.108   3.447   6.543  2.0386 -1.7001 -0.5041
   28MOL   H22721341   6.228   3.241   6.634  0.3115  0.3103 -1.2396
   28MOL   H22821342   6.299   3.335   6.759 -1.0640  0.0783  0.4720
   28MOL   H22921343   6.339   3.352   6.452 -0.8871 -0.0752 -0.0057
   28MOL   H23021344   6.444   3.156   6.555 -1.6865  0.7439  1.4306
   28MOL   H23121345   6.565   3.267   6.496 -3.7385  0.0357 -2.9576
   28MOL   H23221346   6.535   3.313   6.928  1.4127  0.9741  1.4043
   28MOL   H23321347   6.598   3.311   7.163  0.6479 -1.7184  1.8633
   28MOL   H23421348   6.890   3.000   7.077  0.6265  0.0425  0.5458
   28MOL   H23521349   6.854   3.035   6.833  0.1084 -0.8829  0.6354
   28MOL   C23621350   6.544   2.638   7.500 -1.4198 -0.8389  0.0081
   28MOL   C23721351   6.590   2.774   7.552  0.6281  1.2410 -0.2368
   28MOL   C23821352   6.710   2.832   7.469 -0.5961 -0.7263  0.0589
   28MOL   C23921353   6.766   2.962   7.524 -0.2871 -0.0040  0.9932
   28MOL   O24021354   6.874   3.013   7.449  0.0237  0.6126  0.0164
   28MOL   C24121355   6.830   2.736   7.461  0.3948  1.1825  0.1426
   28MOL   C24221356   6.782   2.602   7.414  0.0073 -0.1206  0.8576
   28MOL   C24321357   6.664   2.541   7.487  0.0911 -0.1482  0.4209
   28MOL   C24421358   6.615   2.399   7.455 -0.4026  0.1094  0.2050
   28MOL   O24521359   6.558   2.394   7.327 -0.0827  0.5314  0.4191
   28MOL   C24621360   6.469   2.300   7.289 -0.6726 -0.0470 -1.0810
   28MOL   O24721361   6.429   2.213   7.369 -0.4200  0.2462  0.2936
   28MOL   C24821362   6.420   2.318   7.153 -0.0828 -0.1314  0.7507
   28MOL   C24921363   6.348   2.210   7.094  0.4780 -0.1468  0.1609
   28MOL   C25021364   6.295   2.216   6.964 -0.4074  0.0050  0.2709
   28MOL   C25121365   6.316   2.339   6.889 -0.8959  0.8744  0.0579
   28MOL   C25221366   6.271   2.354   6.750  0.0701 -0.8837  0.4992
   28MOL   O25321367   6.323   2.430   6.668 -0.0513  0.2418 -0.1720
   28MOL   O25421368   6.161   2.278   6.716  0.0806  0.0720  0.1435
   28MOL   C25521369   6.396   2.442   6.947 -0.7236  0.0177  0.2438
   28MOL   C25621370   6.446   2.434   7.077 -0.0371 -0.7591  0.8210
   28MOL   H25721371   6.465   2.595   7.561 -1.9687  0.9788  0.6041
   28MOL   H25821372   6.493   2.647   7.404 -2.2081  0.4197  0.5404
   28MOL   H25921373   6.510   2.848   7.557 -0.8177 -0.2710 -0.5831
   28MOL   H26021374   6.624   2.770   7.656  1.2388 -0.3418 -0.4899
   28MOL   H26121375   6.665   2.829   7.369  0.6839 -1.7347 -0.5022
   28MOL   H26221376   6.691   3.041   7.534 -0.4347 -0.4339  3.8163
   28MOL   H26321377   6.800   2.953   7.627  1.1363 -1.5806  0.3955
   28MOL   H26421378   6.908   2.772   7.394  1.0962 -0.7686 -0.1230
   28MOL   H26521379   6.874   2.730   7.560  1.5890 -0.7516 -0.4776
   28MOL   H26621380   6.872   2.541   7.419 -1.3943 -2.5618 -1.9890
   28MOL   H26721381   6.773   2.596   7.305  4.4341  0.2577  0.3833
   28MOL   H26821382   6.702   2.526   7.588 -0.6809 -1.8842  0.4724
   28MOL   H26921383   6.690   2.323   7.478  0.1223  0.7758  0.7527
   28MOL   H27021384   6.538   2.364   7.524 -0.0736 -1.6413 -0.3034
   28MOL   H27121385   6.338   2.117   7.149 -3.2096 -0.3108 -0.6516
   28MOL   H27221386   6.240   2.137   6.916  0.8549 -0.5169 -0.3605
   28MOL   H27321387   6.416   2.534   6.894  1.3417 -0.3642  0.3307
   28MOL   H27421388   6.511   2.514   7.109  0.7465 -1.3041  0.6263
   28MOL   C27521389   5.729   2.606   6.798  1.1179  0.5266 -0.0355
   28MOL   C27621390   5.776   2.482   6.721  0.2076 -0.3043  0.2348
   28MOL   C27721391   5.926   2.479   6.700 -0.3357  0.1218 -0.1435
   28MOL   C27821392   5.966   2.366   6.611  0.5076 -0.0396  0.2429
   28MOL   O27921393   6.098   2.321   6.586 -0.0716  0.0411  0.3333
   28MOL   C28021394   5.981   2.609   6.639  0.2096 -0.5296 -0.0597
   28MOL   C28121395   5.923   2.736   6.714  0.2305 -0.0701 -0.2525
   28MOL   C28221396   5.768   2.740   6.735 -0.1645 -0.7532  0.5696
   28MOL   C28321397   5.715   2.866   6.813  0.0702  1.0292 -0.0147
   28MOL   O28421398   5.737   2.973   6.734 -0.1681 -1.1517 -0.8236
   28MOL   C28521399   5.785   3.081   6.786  1.0185  0.0165 -0.1071
   28MOL   O28621400   5.833   3.092   6.895  0.5447 -0.6631 -0.5189
   28MOL   C28721401   5.784   3.204   6.701 -0.7432  0.3545  1.0751
   28MOL   C28821402   5.779   3.332   6.771 -0.9700 -0.5696  0.2943
   28MOL   C28921403   5.783   3.449   6.691 -0.0683  0.1306  0.2832
   28MOL   C29021404   5.800   3.447   6.548  0.0635 -0.3841 -0.5023
   28MOL   C29121405   5.808   3.569   6.463 -0.4691 -0.2391  0.3381
   28MOL   O29221406   5.831   3.572   6.345 -0.2730  0.1378  0.6867
   28MOL   O29321407   5.803   3.686   6.539 -0.0193  0.2756  0.4334
   28MOL   C29421408   5.816   3.320   6.494  0.5063  0.0347  0.6042
   28MOL   C29521409   5.790   3.198   6.558 -0.3076  0.3456 -0.2627
   28MOL   H29621410   5.620   2.605   6.810  1.1306  1.6979  0.2095
   28MOL   H29721411   5.763   2.605   6.901  0.1461  1.4594  0.3096
   28MOL   H29821412   5.727   2.392   6.758  1.0094 -0.1541  1.7259
   28MOL   H29921413   5.731   2.498   6.623  1.4621 -1.1317 -0.4882
   28MOL   H30021414   5.965   2.464   6.801  1.9123 -0.4201 -1.0788
   28MOL   H30121415   5.906   2.278   6.634  0.6743 -0.4741 -0.9185
   28MOL   H30221416   5.941   2.380   6.506 -0.1178  1.0749  0.5331
   28MOL   H30321417   6.088   2.601   6.619 -0.0869  0.1246 -1.9294
   28MOL   H30421418   5.946   2.619   6.537 -0.6496  1.1854  0.3830
   28MOL   H30521419   5.947   2.821   6.650 -1.4500 -0.3036 -1.2282
   28MOL   H30621420   5.970   2.746   6.812 -0.2136  0.4198 -0.0847
   28MOL   H30721421   5.719   2.746   6.637 -0.6798  0.6962  0.8979
   28MOL   H30821422   5.609   2.863   6.839 -0.5799  0.6108 -2.5883
   28MOL   H30921423   5.775   2.856   6.903  0.1439  0.8112 -0.0866
   28MOL   H31021424   5.757   3.338   6.877 -3.7106  0.9006 -0.3155
   28MOL   H31121425   5.780   3.545   6.741  1.4278 -0.3890  1.4088
   28MOL   H31221426   5.831   3.307   6.387 -0.3378  0.0809  0.4769
   28MOL   H31321427   5.792   3.104   6.505 -1.2921 -0.4641  1.1139
   28MOL   C31421428   5.908   4.229   6.360 -0.0121 -0.2875 -0.4120
   28MOL   C31521429   5.870   4.097   6.425 -0.7898 -0.1461  0.0041
   28MOL   C31621430   5.811   3.997   6.337  0.0205  0.4796  0.4977
   28MOL   C31721431   5.755   3.881   6.414  0.1186  0.1191  0.2674
   28MOL   O31821432   5.863   3.797   6.464  0.3329  0.5206 -0.4214
   28MOL   C31921433   5.708   4.065   6.244  0.3545 -0.6506 -0.2355
   28MOL   C32021434   5.751   4.190   6.170  0.3971  0.3442 -0.2253
   28MOL   C32121435   5.803   4.292   6.271  0.2732 -0.2797 -1.0252
   28MOL   C32221436   5.851   4.420   6.193 -0.6115 -0.5592  0.5907
   28MOL   O32321437   5.908   4.524   6.271 -0.0993 -0.8197 -0.5208
   28MOL   C32421438   5.924   4.650   6.211 -0.2570 -0.1351  0.4336
   28MOL   O32521439   5.902   4.661   6.090  0.6230  0.3337 -0.4299
   28MOL   C32621440   5.975   4.751   6.296  0.5381 -0.0944 -0.0514
   28MOL   C32721441   5.972   4.889   6.244  0.6001 -0.3700 -0.8714
   28MOL   C32821442   6.031   4.992   6.319 -0.2742 -0.1506  0.0269
   28MOL   C32921443   6.093   4.959   6.442 -0.7030  0.1792  0.1216
   28MOL   C33021444   6.176   5.057   6.520 -0.4275 -0.0527  0.0781
   28MOL   O33121445   6.229   5.042   6.630 -0.0280 -0.3440  0.3086
   28MOL   O33221446   6.175   5.181   6.459  0.3646  0.3956  0.5256
   28MOL   C33321447   6.106   4.823   6.488  0.5560  0.1464 -0.3327
   28MOL   C33421448   6.041   4.724   6.419  0.2560 -0.0500 -0.0536
   28MOL   H33521449   5.929   4.302   6.438 -0.4872 -0.6776  0.0818
   28MOL   H33621450   6.000   4.213   6.304  2.1212  1.8552  2.3054
   28MOL   H33721451   5.953   4.062   6.486  1.6475  4.4379 -0.5254
   28MOL   H33821452   5.793   4.126   6.497 -1.4854 -2.4802  0.2705
   28MOL   H33921453   5.886   3.946   6.277 -2.3907 -1.5314 -0.9456
   28MOL   H34021454   5.698   3.927   6.495  3.2543  3.2720  0.8087
   28MOL   H34121455   5.699   3.826   6.338  0.5571  0.6555 -0.4396
   28MOL   H34221456   5.664   3.997   6.171  1.4984 -2.5503  0.8138
   28MOL   H34321457   5.618   4.079   6.304  0.7757 -1.2309  0.5433
   28MOL   H34421458   5.674   4.222   6.100 -0.0367 -0.7474 -0.2379
   28MOL   H34521459   5.841   4.160   6.116  1.7166  0.2456  1.9809
   28MOL   H34621460   5.719   4.317   6.336 -0.1009  0.3803 -1.7621
   28MOL   H34721461   5.922   4.394   6.114  0.3078  2.9178  0.2150
   28MOL   H34821462   5.763   4.461   6.143 -1.4799 -3.1644 -0.1391
   28MOL   H34921463   5.926   4.908   6.148 -1.8603  0.4268  0.4099
   28MOL   H35021464   6.041   5.094   6.284  1.7872  0.1760  1.4265
   28MOL   H35121465   6.160   4.801   6.579  0.4368  2.4283  0.3264
   28MOL   H35221466   6.052   4.622   6.453 -1.7656  0.1778  1.3718
   28MOL   C35321467   6.162   5.765   6.508  0.3452 -0.0060 -0.0791
   28MOL   C35421468   6.125   5.630   6.578 -0.3160 -0.0275 -0.4049
   28MOL   C35521469   6.200   5.510   6.508  0.7728  1.0096 -0.5338
   28MOL   C35621470   6.155   5.384   6.583  0.3355 -0.3447 -0.4716
   28MOL   O35721471   6.247   5.284   6.541  0.0248 -0.0393 -0.3821
   28MOL   C35821472   6.158   5.509   6.364 -0.1063 -0.0672  0.2971
   28MOL   C35921473   6.188   5.642   6.292 -0.3143 -0.5858  0.1707
   28MOL   C36021474   6.122   5.764   6.361 -0.3964  0.7299 -0.5228
   28MOL   C36121475   6.171   5.897   6.302  0.1810  0.4840  0.2008
   28MOL   O36221476   6.098   5.925   6.185  0.0896 -0.4400 -0.4041
   28MOL   C36321477   6.158   5.978   6.081 -0.5310  0.1327 -0.3560
   28MOL   O36421478   6.278   5.988   6.067 -0.2837 -0.1993 -0.0171
   28MOL   C36521479   6.063   6.016   5.967  0.3679  0.0327  0.3433
   28MOL   C36621480   5.923   6.019   5.981  0.1369  0.0750  0.1316
   28MOL   C36721481   5.839   6.064   5.879  0.6814 -0.2811 -0.5710
   28MOL   C36821482   5.896   6.104   5.754  0.7040  0.1355 -0.2343
   28MOL   C36921483   5.809   6.158   5.643 -0.5702  0.3776 -0.4173
   28MOL   O37021484   5.840   6.171   5.524  0.5493  0.5252 -0.1516
   28MOL   O37121485   5.676   6.177   5.692 -0.2778 -0.5763  0.1886
   28MOL   C37221486   6.038   6.091   5.736 -0.5069  0.0918 -0.3368
   28MOL   C37321487   6.120   6.044   5.839 -0.1615 -0.7688 -1.3006
   28MOL   H37421488   6.115   5.852   6.554 -1.0640 -0.2636 -1.0325
   28MOL   H37521489   6.268   5.792   6.518  0.3493 -0.5831  1.5501
   28MOL   H37621490   6.162   5.641   6.679  2.1572 -0.7756 -1.1983
   28MOL   H37721491   6.016   5.628   6.581 -0.3091  1.5791  1.7735
   28MOL   H37821492   6.307   5.528   6.511  0.8807  0.3055  0.0380
   28MOL   H37921493   6.185   5.399   6.687  0.5734  1.8430 -0.8256
   28MOL   H38021494   6.049   5.361   6.577  0.4411 -0.2392 -2.9015
   28MOL   H38121495   6.216   5.434   6.310 -3.1439 -1.1374 -1.5689
   28MOL   H38221496   6.054   5.486   6.343 -0.3321  1.4034 -0.2853
   28MOL   H38321497   6.156   5.634   6.188  0.5979 -1.1117 -0.0752
   28MOL   H38421498   6.295   5.656   6.277 -0.9356  1.9165 -2.4350
   28MOL   H38521499   6.014   5.753   6.354 -0.6659 -1.3678  4.9522
   28MOL   H38621500   6.140   5.979   6.366  0.3786 -0.0165  0.9537
   28MOL   H38721501   6.278   5.918   6.302  0.1911  0.4347  0.3048
   28MOL   H38821502   5.879   5.980   6.072 -2.4259 -1.5323 -1.7067
   28MOL   H38921503   5.734   6.067   5.901  0.1995 -0.7967 -2.7844
   28MOL   H39021504   6.076   6.105   5.636 -2.3284  0.2280 -1.0283
   28MOL   H39121505   6.225   6.022   5.825  0.4122 -0.0906  1.6203
   28MOL   C39221506   5.315   5.854   5.448  0.1125  0.2472 -0.1776
   28MOL   C39321507   5.307   6.001   5.501  0.2141 -0.2761  0.1752
   28MOL   C39421508   5.437   6.032   5.576  0.0097  0.0645  0.9686
   28MOL   C39521509   5.449   6.187   5.613  0.4097 -0.1879  0.7209
   28MOL   O39621510   5.579   6.246   5.600  0.4310 -0.2385 -0.0750
   28MOL   C39721511   5.448   5.936   5.698  0.3547 -0.4511 -0.3756
   28MOL   C39821512   5.440   5.790   5.660 -0.2707  0.0071 -0.0824
   28MOL   C39921513   5.321   5.766   5.563 -0.4859  0.6038 -0.8479
   28MOL   C40021514   5.319   5.617   5.514 -0.1468 -0.3959  0.0492
   28MOL   O40121515   5.351   5.527   5.620  0.1355 -0.2575 -0.4971
   28MOL   C40221516   5.356   5.387   5.595  0.1318  0.4315 -0.3116
   28MOL   O40321517   5.355   5.334   5.483  0.3102  0.2890 -0.4992
   28MOL   C40421518   5.370   5.308   5.725 -0.0116  0.1204 -0.1482
   28MOL   C40521519   5.375   5.381   5.847  0.2313 -0.6685  0.5090
   28MOL   C40621520   5.416   5.316   5.960 -0.6994 -0.1288 -0.3458
   28MOL   C40721521   5.444   5.175   5.967  0.6720 -0.2855 -0.5901
   28MOL   C40821522   5.496   5.117   6.092  0.5978  0.1470  0.5167
   28MOL   O40921523   5.515   5.180   6.194  0.4898  0.0998 -0.3038
   28MOL   O41021524   5.505   4.988   6.085 -0.1653 -0.0857 -0.1734
   28MOL   C41121525   5.417   5.099   5.847  0.3058 -0.6246 -0.4252
   28MOL   C41221526   5.381   5.166   5.731 -0.1819  0.0509 -0.1071
   28MOL   H41321527   5.230   5.829   5.384 -0.9138 -0.7364  1.5370
   28MOL   H41421528   5.394   5.836   5.375  1.9737 -0.0470  1.8821
   28MOL   H41521529   5.303   6.061   5.409  0.4450 -1.4894 -0.6388
   28MOL   H41621530   5.218   6.030   5.556 -0.4336  0.8429 -1.3985
   28MOL   H41721531   5.509   6.016   5.495 -0.3717 -2.5105  1.0961
   28MOL   H41821532   5.384   6.251   5.554  0.6569 -1.5670 -1.0988
   28MOL   H41921533   5.395   6.189   5.708  1.5565  4.1373  1.3676
   28MOL   H42021534   5.539   5.954   5.755 -0.8073 -0.0843  1.4073
   28MOL   H42121535   5.373   5.963   5.772  2.0110  0.6654  0.9421
   28MOL   H42221536   5.429   5.741   5.757  0.9701 -1.2332 -0.5589
   28MOL   H42321537   5.527   5.751   5.608  0.1911  2.7983 -1.5369
   28MOL   H42421538   5.225   5.781   5.612 -0.4589  0.8833 -0.8773
   28MOL   H42521539   5.222   5.591   5.473 -0.3451  1.5220 -0.7484
   28MOL   H42621540   5.391   5.603   5.434 -1.3983 -0.7555 -1.0227
   28MOL   H42721541   5.366   5.489   5.853  1.9530 -0.4075 -1.1306
   28MOL   H42821542   5.412   5.370   6.053  0.2120 -2.3555  1.0471
   28MOL   H42921543   5.424   4.991   5.845 -2.4946 -0.8260 -0.5775
   28MOL   H43021544   5.355   5.111   5.642 -2.2949  0.7636  0.0343
   28MOL   C43121545   5.191   4.568   6.186 -0.0117 -0.7703  0.6277
   28MOL   C43221546   5.238   4.700   6.245 -0.3186 -0.2894  0.9684
   28MOL   C43321547   5.385   4.737   6.207  0.2276  0.3899  0.1830
   28MOL   C43421548   5.430   4.870   6.274  0.0637 -0.2052  0.7742
   28MOL   O43521549   5.546   4.913   6.216  0.4550  0.6104  0.2113
   28MOL   C43621550   5.467   4.610   6.243 -0.1830  0.1982 -0.0735
   28MOL   C43721551   5.411   4.476   6.173 -0.0902  0.0787  0.3076
   28MOL   C43821552   5.272   4.442   6.217  0.0269  0.1055 -0.1049
   28MOL   C43921553   5.226   4.306   6.161  0.2644 -0.0435  0.0315
   28MOL   O44021554   5.086   4.303   6.188 -0.0184  0.1964 -0.0467
   28MOL   C44121555   5.010   4.213   6.116  0.2726 -0.5167  0.5244
   28MOL   O44221556   5.056   4.150   6.019 -0.5309 -0.5635  0.1611
   28MOL   C44321557   4.870   4.213   6.159  0.2424 -0.7901  0.5442
   28MOL   C44421558   4.769   4.156   6.082 -0.4686 -0.1958  0.0968
   28MOL   C44521559   4.639   4.166   6.124 -0.5509 -0.4523 -0.0114
   28MOL   C44621560   4.601   4.241   6.239  0.9755  0.3461  0.7521
   28MOL   C44721561   4.456   4.255   6.261  0.5540  0.4410  0.3695
   28MOL   O44821562   4.416   4.287   6.372 -0.0134 -0.0586 -0.0503
   28MOL   O44921563   4.382   4.230   6.154 -0.0924  0.4213  0.1355
   28MOL   C45021564   4.700   4.291   6.322 -0.1258  0.2688 -0.0190
   28MOL   C45121565   4.835   4.282   6.279 -0.6920  0.3042  0.6589
   28MOL   H45221566   5.093   4.541   6.226 -0.5465  0.1451 -0.0459
   28MOL   H45321567   5.178   4.574   6.078  1.4211  0.1102  0.5011
   28MOL   H45421568   5.169   4.783   6.229 -1.3818 -1.3065  0.2600
   28MOL   H45521569   5.224   4.699   6.353 -0.1993  0.3674  0.9910
   28MOL   H45621570   5.378   4.748   6.099  1.4947  0.5780  0.1062
   28MOL   H45721571   5.350   4.944   6.266  0.7766  0.3135 -2.1122
   28MOL   H45821572   5.445   4.857   6.381 -0.6060 -1.0295  0.7725
   28MOL   H45921573   5.570   4.621   6.209 -0.4567  1.5757 -0.5020
   28MOL   H46021574   5.474   4.602   6.352 -0.4279  1.2760  0.0245
   28MOL   H46121575   5.480   4.394   6.189 -1.4448 -1.2938 -0.6696
   28MOL   H46221576   5.408   4.494   6.065  0.2376  0.1555  0.3119
   28MOL   H46321577   5.275   4.441   6.326  1.4327  1.5388 -0.0979
   28MOL   H46421578   5.244   4.293   6.055 -1.5243 -0.5729 -0.2323
   28MOL   H46521579   5.269   4.219   6.211  2.1092  0.4236 -0.7167
   28MOL   H46621580   4.801   4.099   5.996  2.2491  2.4342 -0.7350
   28MOL   H46721581   4.562   4.112   6.071 -0.6883 -1.2183  0.9559
   28MOL   H46821582   4.682   4.334   6.419 -1.7675 -0.7438  0.1379
   28MOL   H46921583   4.906   4.326   6.348  2.8863 -2.5094 -1.0655
   28MOL   C47021584   3.805   4.412   6.003 -0.1365  0.9040 -0.2458
   28MOL   C47121585   3.958   4.417   6.002  0.1540  0.3660 -0.3914
   28MOL   C47221586   4.020   4.333   6.116 -0.1430  0.8335 -0.3796
   28MOL   C47321587   4.176   4.330   6.106 -0.0109 -0.4535  0.0125
   28MOL   O47421588   4.237   4.227   6.185 -0.4473  0.1293  0.2273
   28MOL   C47521589   3.961   4.374   6.251  0.0998 -0.1253  0.1135
   28MOL   C47621590   3.807   4.372   6.243 -0.2987  0.5787 -0.5315
   28MOL   C47721591   3.742   4.456   6.134 -0.3451 -0.0897 -0.2469
   28MOL   C47821592   3.585   4.465   6.129 -0.0383 -0.1111  0.2597
   28MOL   O47921593   3.540   4.519   6.001 -0.0996  0.6558  0.3173
   28MOL   C48021594   3.410   4.509   5.966  0.1211  0.8593  0.5335
   28MOL   O48121595   3.327   4.455   6.039  0.1789 -0.4333  0.1765
   28MOL   C48221596   3.386   4.562   5.826 -0.2346  0.1079 -0.3661
   28MOL   C48321597   3.483   4.619   5.740 -0.2035 -0.1278 -0.0705
   28MOL   C48421598   3.451   4.647   5.606  0.2192  0.9506 -0.0582
   28MOL   C48521599   3.325   4.626   5.557 -0.3817  0.0637 -0.3304
   28MOL   C48621600   3.299   4.655   5.412  0.4790 -0.7186 -0.0567
   28MOL   O48721601   3.376   4.726   5.341  0.0714  0.1912 -0.1937
   28MOL   O48821602   3.188   4.590   5.355 -0.2380 -0.2139 -0.1296
   28MOL   C48921603   3.228   4.569   5.644  0.4024 -0.2897 -0.0377
   28MOL   C49021604   3.262   4.542   5.778  0.7456 -0.6851  0.3433
   28MOL   H49121605   3.772   4.472   5.918 -1.7942  1.0544  0.4824
   28MOL   H49221606   3.768   4.313   5.974 -0.9638  1.0007  0.4756
   28MOL   H49321607   3.999   4.380   5.908 -1.9764 -0.6169 -0.9534
   28MOL   H49421608   3.976   4.525   6.009  2.6748  0.0090 -0.8885
   28MOL   H49521609   3.984   4.230   6.108 -0.0946  0.7900 -0.0239
   28MOL   H49621610   4.198   4.315   6.000 -2.3891  0.6265 -0.6705
   28MOL   H49721611   4.211   4.427   6.141 -2.1283  0.3410 -0.0201
   28MOL   H49821612   3.997   4.309   6.331  2.2414 -1.8493 -2.1746
   28MOL   H49921613   3.998   4.474   6.274  1.0573  0.2240 -2.8284
   28MOL   H50021614   3.772   4.398   6.343 -0.3134 -2.8649  0.4413
   28MOL   H50121615   3.779   4.267   6.239  1.1756  0.1384  0.0677
   28MOL   H50221616   3.765   4.561   6.149  0.6848 -0.4412  0.6778
   28MOL   H50321617   3.538   4.369   6.153  0.9115 -1.0753 -1.6156
   28MOL   H50421618   3.550   4.528   6.210 -0.3991 -0.3212  0.2702
   28MOL   H50521619   3.578   4.646   5.784  0.2430  1.4046 -1.8721
   28MOL   H50621620   3.528   4.691   5.544 -1.3990  1.4509 -1.7736
   28MOL   H50721621   3.127   4.564   5.606 -0.2082 -0.0922  1.5269
   28MOL   H50821622   3.184   4.506   5.844  1.4026  1.5545  2.3937
   28MOL   C50921623   3.270   4.625   4.774 -0.4292  0.0288  1.4112
   28MOL   C51021624   3.237   4.673   4.923 -0.5587 -1.0520 -0.7816
   28MOL   C51121625   3.117   4.586   4.985  0.2411 -0.1380 -0.0527
   28MOL   C51221626   3.088   4.615   5.132  0.9397 -0.1401  0.2897
   28MOL   O51321627   3.201   4.575   5.203 -0.0702 -0.4409  0.1097
   28MOL   C51421628   2.999   4.589   4.892  0.2066  0.2409  0.3529
   28MOL   C51521629   3.023   4.553   4.744  0.6699 -0.4500 -0.4841
   28MOL   C51621630   3.145   4.630   4.683  0.2431  0.5488  0.3847
   28MOL   C51721631   3.173   4.565   4.548  0.4027 -0.3702  0.5499
   28MOL   O51821632   3.078   4.590   4.448  0.5599 -0.6702  0.4441
   28MOL   C51921633   3.006   4.487   4.397 -0.7651  0.0793  0.2583
   28MOL   O52021634   2.995   4.379   4.458  0.2747 -0.2252  0.6499
   28MOL   C52121635   2.941   4.508   4.266 -0.1169 -0.0770 -0.1784
   28MOL   C52221636   2.909   4.399   4.179  0.0910  0.2237  0.1129
   28MOL   C52321637   2.856   4.423   4.050  0.3424  0.2792 -0.0317
   28MOL   C52421638   2.833   4.555   4.012 -0.0996  0.2493 -0.7133
   28MOL   C52521639   2.775   4.586   3.879 -0.0647  0.6143 -0.7854
   28MOL   O52621640   2.750   4.501   3.795 -0.4850 -0.3679  0.4227
   28MOL   O52721641   2.748   4.721   3.856 -0.3967 -0.2368  0.4567
   28MOL   C52821642   2.858   4.664   4.101 -0.1703  0.3070  0.0048
   28MOL   C52921643   2.912   4.641   4.233 -1.0415 -0.3850  0.3134
   28MOL   H53021644   3.338   4.694   4.725  0.5754 -0.2271  2.4144
   28MOL   H53121645   3.307   4.522   4.769  0.4980  0.4085  0.4243
   28MOL   H53221646   3.333   4.655   4.971 -1.3082  0.7092  1.5309
   28MOL   H53321647   3.216   4.780   4.921 -0.4360 -1.0465 -1.7072
   28MOL   H53421648   3.163   4.487   4.988  3.7273  1.3825 -0.9772
   28MOL   H53521649   3.040   4.711   5.156  1.9387  0.3981  0.1725
   28MOL   H53621650   3.015   4.540   5.161  0.7795 -0.7629 -1.6926
   28MOL   H53721651   2.915   4.529   4.926  0.4802 -0.3048  0.0736
   28MOL   H53821652   2.967   4.693   4.898  0.1261  0.1627  1.4276
   28MOL   H53921653   2.931   4.574   4.691  0.4878  1.0923  0.3796
   28MOL   H54021654   3.032   4.445   4.744  5.8096 -0.1600  1.6778
   28MOL   H54121655   3.118   4.735   4.672  0.8829  0.7859  1.0879
   28MOL   H54221656   3.272   4.598   4.515  0.8029  0.0141  2.0885
   28MOL   H54321657   3.187   4.460   4.574 -1.1851 -0.4689  1.0400
   28MOL   H54421658   2.909   4.297   4.214  2.0528  0.7319  1.7052
   28MOL   H54521659   2.837   4.344   3.979 -0.8354 -0.0209  0.6010
   28MOL   H54621660   2.830   4.766   4.078 -0.7760  0.8550  2.9472
   28MOL   H54721661   2.938   4.726   4.294 -0.0953 -0.6191  0.2501
   28MOL   C54821662   2.551   5.065   3.424  0.8332 -0.3686 -0.3408
   28MOL   C54921663   2.608   4.994   3.554 -0.0507  0.7044 -0.6838
   28MOL   C55021664   2.520   4.895   3.628  0.9515  0.6244  0.2170
   28MOL   C55121665   2.567   4.822   3.755 -0.2173 -1.2453  0.9131
   28MOL   O55221666   2.687   4.758   3.725 -0.4060  0.2068  0.0416
   28MOL   C55321667   2.396   4.982   3.655 -0.2100  0.0024 -0.6485
   28MOL   C55421668   2.327   5.043   3.531 -0.0634 -0.0385 -0.1342
   28MOL   C55521669   2.414   5.134   3.446  0.4112  0.3421  0.2889
   28MOL   C55621670   2.343   5.183   3.316 -0.0688 -0.3550 -0.9428
   28MOL   O55721671   2.328   5.069   3.225  0.3078  0.1037  0.4895
   28MOL   C55821672   2.216   5.053   3.150 -0.5987 -0.4115 -0.4980
   28MOL   O55921673   2.152   5.152   3.111 -0.5186 -0.1885  0.4605
   28MOL   C56021674   2.195   4.908   3.109  0.1427  0.3785 -0.3590
   28MOL   C56121675   2.248   4.800   3.185  0.1564  0.2085  0.6133
   28MOL   C56221676   2.228   4.667   3.147  0.2230 -0.1544  0.2134
   28MOL   C56321677   2.145   4.645   3.031 -0.7212  0.4573  0.2932
   28MOL   C56421678   2.110   4.511   2.974  0.6045 -0.5271 -0.5488
   28MOL   O56521679   2.011   4.486   2.900  0.4592  0.1020 -0.5035
   28MOL   O56621680   2.187   4.414   3.013 -1.0576  0.7718  0.0327
   28MOL   C56721681   2.103   4.753   2.949 -0.6839  0.6076  0.1072
   28MOL   C56821682   2.129   4.883   2.987  0.8067  0.1863  0.2774
   28MOL   H56921683   2.624   5.137   3.388  0.3577 -0.5196 -1.6435
   28MOL   H57021684   2.548   4.978   3.359 -0.3438  0.6362 -1.6557
   28MOL   H57121685   2.693   4.942   3.510 -0.3801 -1.4795  1.1921
   28MOL   H57221686   2.647   5.062   3.631  1.7048 -1.8303  0.7441
   28MOL   H57321687   2.479   4.820   3.561 -0.7123  1.2795  0.4651
   28MOL   H57421688   2.588   4.897   3.831 -1.3233  0.2598 -0.2176
   28MOL   H57521689   2.485   4.756   3.783 -2.4647  2.1683  2.7655
   28MOL   H57621690   2.310   4.931   3.701  0.8003 -0.7247  0.4538
   28MOL   H57721691   2.426   5.061   3.724 -1.6671 -0.5372  0.6528
   28MOL   H57821692   2.236   5.096   3.557 -0.3718 -1.1418  1.0936
   28MOL   H57921693   2.294   4.963   3.464  1.6335  0.5548 -1.7088
   28MOL   H58021694   2.423   5.217   3.516 -3.3463  0.8574  0.2562
   28MOL   H58121695   2.247   5.228   3.341  0.9168  1.2766 -0.0101
   28MOL   H58221696   2.399   5.265   3.271 -0.3955  0.8579  0.7965
   28MOL   H58321697   2.305   4.820   3.275  0.3734  0.7224  0.3595
   28MOL   H58421698   2.272   4.584   3.201 -1.0327 -1.1658 -0.2993
   28MOL   H58521699   2.051   4.723   2.859  1.9336 -1.4731 -0.7987
   28MOL   H58621700   2.083   4.962   2.929  1.0099 -0.4650 -0.7955
   28MOL   C58721701   1.762   4.008   3.033 -0.0828 -0.9455 -0.3288
   28MOL   C58821702   1.846   4.134   3.052 -0.4921 -0.5362  0.1344
   28MOL   C58921703   1.995   4.106   3.099 -0.2257  0.0259  0.4398
   28MOL   C59021704   2.077   4.238   3.120 -0.5221 -0.3746 -0.2222
   28MOL   O59121705   2.123   4.282   2.994 -0.2823  0.3532  0.5595
   28MOL   C59221706   1.986   4.016   3.225  0.0993 -0.1389 -0.3046
   28MOL   C59321707   1.901   3.890   3.211  0.0023  0.2898 -0.4020
   28MOL   C59421708   1.759   3.929   3.167 -0.5628  0.0812  0.2472
   28MOL   C59521709   1.659   3.808   3.170 -0.3509 -0.4391  0.1368
   28MOL   O59621710   1.686   3.722   3.062  0.5683  0.2461 -0.4025
   28MOL   C59721711   1.584   3.704   2.982 -0.2167 -0.3533  0.9304
   28MOL   O59821712   1.464   3.725   3.003 -0.0175  0.1448 -0.2604
   28MOL   C59921713   1.623   3.630   2.853 -0.8724 -0.0564  0.5173
   28MOL   C60021714   1.759   3.616   2.815  0.0155 -0.7357 -0.0327
   28MOL   C60121715   1.796   3.560   2.692  1.1222  0.3070 -0.2196
   28MOL   C60221716   1.696   3.521   2.600 -0.0011 -0.4795  0.2710
   28MOL   C60321717   1.716   3.460   2.462  0.0591 -0.3416  0.9326
   28MOL   O60421718   1.631   3.407   2.389 -0.2873  0.1519 -0.1725
   28MOL   O60521719   1.843   3.477   2.423 -0.1407  0.2457 -0.5872
   28MOL   C60621720   1.557   3.536   2.637  0.1550  0.4098 -0.5569
   28MOL   C60721721   1.525   3.590   2.762 -0.2876  0.0277  0.5090
   28MOL   H60821722   1.663   4.037   2.999 -0.8233 -1.6078  1.2322
   28MOL   H60921723   1.805   3.945   2.954  2.9417  1.1713 -0.4721
   28MOL   H61021724   1.837   4.194   2.961  1.2408  1.6223  1.3568
   28MOL   H61121725   1.789   4.187   3.128 -0.2617  3.4183 -2.3097
   28MOL   H61221726   2.045   4.040   3.028 -0.9458  0.6662 -0.6788
   28MOL   H61321727   2.010   4.307   3.171 -0.4642 -1.1469  0.9073
   28MOL   H61421728   2.156   4.218   3.193 -0.0679  2.3857  0.0961
   28MOL   H61521729   2.082   3.990   3.272 -0.8044 -1.7951  0.6800
   28MOL   H61621730   1.938   4.068   3.307  1.0470  1.7299 -0.9207
   28MOL   H61721731   1.896   3.814   3.288  1.8816 -1.8530 -2.3034
   28MOL   H61821732   1.942   3.826   3.132 -0.1365  0.2859 -0.4719
   28MOL   H61921733   1.715   4.000   3.236 -0.2441 -0.0422  0.5823
   28MOL   H62021734   1.665   3.754   3.264 -0.6411 -1.2906 -0.3298
   28MOL   H62121735   1.557   3.848   3.170 -0.6631 -1.2065 -0.9146
   28MOL   H62221736   1.834   3.651   2.885 -1.6810  2.6176  0.2321
   28MOL   H62321737   1.902   3.556   2.675  1.2597 -1.9181  0.9898
   28MOL   H62421738   1.480   3.491   2.576 -1.3172 -0.3876  1.8357
   28MOL   H62521739   1.421   3.610   2.783 -0.2963  1.5230 -0.8194
   28MOL   C62621740   2.172   3.766   2.128 -0.4138  0.0217  0.0318
   28MOL   C62721741   2.033   3.712   2.144 -0.1154  0.1175  0.4752
   28MOL   C62821742   2.027   3.572   2.194 -0.0888  0.3151 -0.1745
   28MOL   C62921743   1.882   3.516   2.188  0.1465  0.2164  0.1368
   28MOL   O63021744   1.877   3.418   2.291 -0.1557 -0.4119  0.0242
   28MOL   C63121745   2.102   3.477   2.108  0.0761 -0.1207 -0.4845
   28MOL   C63221746   2.252   3.528   2.100  0.7725  0.4081  0.2045
   28MOL   C63321747   2.254   3.665   2.038 -0.4946 -0.3342 -0.6455
   28MOL   C63421748   2.402   3.714   2.010  0.1877  0.7050  0.2574
   28MOL   O63521749   2.385   3.849   1.972  0.8061 -0.9296  0.4074
   28MOL   C63621750   2.381   3.878   1.834 -0.0547  0.4946  0.0205
   28MOL   O63721751   2.395   3.796   1.747  0.0853  0.4399 -0.5377
   28MOL   C63821752   2.360   4.020   1.795 -0.3319 -0.1841  0.0355
   28MOL   C63921753   2.283   4.104   1.878 -0.1882  0.0645  0.6855
   28MOL   C64021754   2.259   4.238   1.845  0.6312  0.2660  0.3359
   28MOL   C64121755   2.308   4.285   1.715  0.0726  0.1591  0.5517
   28MOL   C64221756   2.302   4.436   1.689 -0.2918 -0.1224  0.8036
   28MOL   O64321757   2.223   4.513   1.748  0.5436 -0.7019  0.0740
   28MOL   O64421758   2.396   4.475   1.602 -0.1608 -0.2705 -0.4067
   28MOL   C64521759   2.373   4.199   1.625 -0.6579  0.6342 -0.0153
   28MOL   C64621760   2.400   4.065   1.669  0.2662  0.6108 -0.2422
   28MOL   H64721761   2.180   3.870   2.098  1.6967 -0.0592  0.2060
   28MOL   H64821762   2.222   3.766   2.226 -0.8861 -1.1610  0.2769
   28MOL   H64921763   1.981   3.770   2.220  0.4126  1.0249  0.1537
   28MOL   H65021764   1.976   3.708   2.052 -0.4583 -0.5584  0.7119
   28MOL   H65121765   2.052   3.573   2.301  0.0461  2.7477 -0.2113
   28MOL   H65221766   1.812   3.592   2.223  1.1696  1.1575  0.1424
   28MOL   H65321767   1.851   3.485   2.088  0.5069  0.5594 -0.0800
   28MOL   H65421768   2.092   3.375   2.146 -0.4784  0.1223  0.0341
   28MOL   H65521769   2.053   3.472   2.011 -1.6727 -1.1710  0.4325
   28MOL   H65621770   2.317   3.459   2.046 -1.8976 -1.5240 -0.6348
   28MOL   H65721771   2.292   3.520   2.201 -0.8014 -0.9897  0.7499
   28MOL   H65821772   2.199   3.656   1.945  1.3825  1.6231 -2.0103
   28MOL   H65921773   2.467   3.713   2.098  0.2282 -0.2205  0.2210
   28MOL   H66021774   2.442   3.655   1.928 -3.1313 -0.6231 -0.4438
   28MOL   H66121775   2.246   4.074   1.975  0.1709  3.1934  1.8670
   28MOL   H66221776   2.210   4.310   1.909  0.3226  2.3482 -2.1273
   28MOL   H66321777   2.423   4.220   1.532  2.5504 -4.8953  0.2041
   28MOL   H66421778   2.454   3.997   1.605  1.2765  1.3039 -0.1397
   28MOL   C66521779   2.635   4.540   1.203  0.6458 -0.3785 -0.1270
   28MOL   C66621780   2.529   4.593   1.307  0.0830  0.0414 -0.0407
   28MOL   C66721781   2.395   4.524   1.311  0.3952 -0.3249  0.2433
   28MOL   C66821782   2.311   4.591   1.427 -0.1786  0.4057 -0.0972
   28MOL   O66921783   2.381   4.606   1.550  0.0321  0.4913 -0.1747
   28MOL   C67021784   2.331   4.540   1.168 -0.5839 -0.0359  0.0636
   28MOL   C67121785   2.428   4.481   1.058 -0.8322  0.5174  1.5934
   28MOL   C67221786   2.574   4.538   1.066  0.2738 -0.0861  0.0365
   28MOL   C67321787   2.659   4.449   0.972  0.6096 -0.2438  0.8046
   28MOL   O67421788   2.786   4.506   0.950 -0.4532  0.0873  0.3024
   28MOL   C67521789   2.902   4.436   0.976  0.7133 -0.1720  0.0622
   28MOL   O67621790   2.898   4.320   1.020 -0.0165  0.1694  0.0819
   28MOL   C67721791   3.033   4.513   0.963 -0.2047  0.0547  0.0811
   28MOL   C67821792   3.150   4.440   0.981 -0.1715  0.3819 -0.0185
   28MOL   C67921793   3.279   4.501   0.960  0.4866 -0.2237 -0.0034
   28MOL   C68021794   3.284   4.645   0.935  0.1032  0.3057 -0.3659
   28MOL   C68121795   3.418   4.712   0.921  0.4262 -0.1518  0.4545
   28MOL   O68221796   3.434   4.827   0.959 -0.4491 -0.1118 -0.1159
   28MOL   O68321797   3.505   4.635   0.858  0.2867  0.0515  0.4908
   28MOL   C68421798   3.163   4.715   0.923  0.3114 -0.0355  0.1888
   28MOL   C68521799   3.044   4.655   0.933 -0.1994 -0.0368  0.0768
   28MOL   H68621800   2.716   4.613   1.196  0.4914 -0.2134 -0.2088
   28MOL   H68721801   2.682   4.447   1.235 -0.2466 -1.4296 -1.7974
   28MOL   H68821802   2.580   4.588   1.403 -0.2163 -1.3347  0.0564
   28MOL   H68921803   2.524   4.699   1.284 -0.2638  0.0983  0.3129
   28MOL   H69021804   2.411   4.421   1.343 -1.6215 -0.2403  1.5957
   28MOL   H69121805   2.264   4.682   1.389  0.5377  0.2512 -1.4058
   28MOL   H69221806   2.222   4.530   1.444 -0.4009  0.5726 -0.6404
   28MOL   H69321807   2.237   4.485   1.163 -0.4276 -1.1110  5.5409
   28MOL   H69421808   2.316   4.643   1.137  2.1763  0.4162  0.0695
   28MOL   H69521809   2.390   4.486   0.956  1.5242 -1.0141  0.6072
   28MOL   H69621810   2.436   4.372   1.063 -2.1889  0.3348  0.2670
   28MOL   H69721811   2.573   4.641   1.031 -2.2159  0.0708  0.4628
   28MOL   H69821812   2.656   4.346   1.008 -0.0780 -0.9852 -1.2885
   28MOL   H69921813   2.598   4.444   0.881  0.3095  2.4502  0.8021
   28MOL   H70021814   3.158   4.335   1.005  1.0322  0.3484 -0.5044
   28MOL   H70121815   3.366   4.441   0.978  0.1137 -0.7496  0.0641
   28MOL   H70221816   3.171   4.818   0.892 -1.0812 -0.1205 -0.4477
   28MOL   H70321817   2.951   4.701   0.904 -0.6876 -0.6663  0.6176
   28MOL   C70421818   4.062   4.552   0.759  0.3392 -0.7513  0.3850
   28MOL   C70521819   3.908   4.549   0.784 -0.5524 -0.4801  0.5681
   28MOL   C70621820   3.873   4.613   0.922  0.5741  0.1106  0.0190
   28MOL   C70721821   3.720   4.610   0.949 -0.5533  0.2343  0.0270
   28MOL   O70821822   3.646   4.687   0.850  0.0865 -0.1859  0.1109
   28MOL   C70921823   3.945   4.530   1.032 -0.1443  0.2351 -0.1118
   28MOL   C71021824   4.092   4.542   1.018 -0.2359  0.7466 -0.1457
   28MOL   C71121825   4.142   4.497   0.881  0.0960  0.5336  0.1049
   28MOL   C71221826   4.293   4.494   0.875 -0.1486  0.2919 -0.8483
   28MOL   O71321827   4.346   4.631   0.871  0.3329  0.1358  0.2931
   28MOL   C71421828   4.373   4.689   0.983 -0.4933  0.9420 -0.5261
   28MOL   O71521829   4.375   4.632   1.100  0.1717 -0.2522  0.0656
   28MOL   C71621830   4.397   4.836   0.962  0.7409  0.0921 -0.6791
   28MOL   C71721831   4.334   4.905   0.857 -1.1448  0.3899 -0.3284
   28MOL   C71821832   4.346   5.043   0.845  0.0039  0.0711  0.2539
   28MOL   C71921833   4.407   5.117   0.949 -0.0645 -0.1268  0.0348
   28MOL   C72021834   4.419   5.265   0.939  0.3094 -0.6591 -0.4980
   28MOL   O72121835   4.366   5.327   0.848  0.8200 -0.2287  0.0862
   28MOL   O72221836   4.490   5.320   1.036 -0.4375  0.0246 -0.3283
   28MOL   C72321837   4.458   5.047   1.064  0.3675 -0.1605  0.3919
   28MOL   C72421838   4.463   4.905   1.065  1.0647 -0.4426 -0.0616
   28MOL   H72521839   4.070   4.486   0.673  1.4992  0.4981 -0.5021
   28MOL   H72621840   4.090   4.654   0.732  1.4219 -1.0020  0.5483
   28MOL   H72721841   3.845   4.585   0.702  0.6330 -0.7403 -0.4686
   28MOL   H72821842   3.869   4.447   0.785 -2.0495  0.0027 -1.9334
   28MOL   H72921843   3.901   4.718   0.926  0.6279  0.0491  1.4787
   28MOL   H73021844   3.688   4.507   0.939 -0.8629  0.5684 -2.6326
   28MOL   H73121845   3.688   4.634   1.051 -2.4852  0.6759 -0.6558
   28MOL   H73221846   3.914   4.571   1.128  0.5058  0.9042 -0.1783
   28MOL   H73321847   3.921   4.425   1.016 -0.7850  0.6021 -1.6290
   28MOL   H73421848   4.133   4.490   1.105  1.1278  0.9450 -0.6498
   28MOL   H73521849   4.116   4.648   1.030 -1.3142  0.6998  2.6131
   28MOL   H73621850   4.108   4.394   0.884  0.6551  0.3337 -0.3490
   28MOL   H73721851   4.340   4.433   0.952 -1.1323  0.4140 -0.1388
   28MOL   H73821852   4.324   4.451   0.780  0.3918 -0.8872 -0.1478
   28MOL   H73921853   4.285   4.869   0.768  0.3157 -2.1277 -0.1497
   28MOL   H74021854   4.305   5.088   0.756  1.6098 -0.5396 -0.8152
   28MOL   H74121855   4.504   5.095   1.149 -0.1833 -0.4665  0.8651
   28MOL   H74221856   4.504   4.855   1.152 -0.9016 -0.2965  0.9612
   28MOL   C74321857   4.381   5.850   0.849  0.3103 -0.0118  0.7278
   28MOL   C74421858   4.358   5.713   0.906 -1.0011 -0.0583 -0.4250
   28MOL   C74521859   4.442   5.690   1.036  0.3391  0.4178 -0.4630
   28MOL   C74621860   4.438   5.544   1.089 -0.0204 -0.0193  1.6266
   28MOL   O74721861   4.528   5.457   1.005 -0.0024  0.2971  0.3708
   28MOL   C74821862   4.586   5.752   1.035 -0.6194  0.6422 -0.5518
   28MOL   C74921863   4.584   5.895   0.995 -0.4263  0.2813 -0.5203
   28MOL   C75021864   4.523   5.912   0.857  0.5707 -0.1432 -0.5028
   28MOL   C75121865   4.521   6.064   0.820  0.2741  0.7025  0.6424
   28MOL   O75221866   4.654   6.111   0.783 -0.5096 -0.5021 -0.1294
   28MOL   C75321867   4.705   6.104   0.660 -0.5187 -0.5375 -0.0374
   28MOL   O75421868   4.650   6.053   0.570 -0.2981  0.1399  0.2059
   28MOL   C75521869   4.833   6.183   0.645 -0.4567  0.4615  0.1934
   28MOL   C75621870   4.895   6.238   0.750 -0.3704 -0.3035 -0.2886
   28MOL   C75721871   5.029   6.280   0.738  0.6223 -0.0877  0.0200
   28MOL   C75821872   5.078   6.303   0.612  0.2238 -0.8128 -0.3781
   28MOL   C75921873   5.209   6.370   0.600 -0.3418  0.2676  0.5918
   28MOL   O76021874   5.265   6.424   0.696 -0.2765  0.0317 -0.4748
   28MOL   O76121875   5.256   6.380   0.475  0.2193  0.4495 -0.1163
   28MOL   C76221876   5.017   6.249   0.499 -0.6281  0.5666  1.1117
   28MOL   C76321877   4.896   6.177   0.517 -0.0109 -0.7272 -0.2856
   28MOL   H76421878   4.358   5.857   0.743  0.2418 -2.4171  0.5608
   28MOL   H76521879   4.320   5.914   0.913 -1.4372 -0.5187 -0.4027
   28MOL   H76621880   4.251   5.695   0.922 -0.5462 -2.0829  0.4482
   28MOL   H76721881   4.379   5.638   0.830  1.4305 -1.1012  1.2289
   28MOL   H76821882   4.378   5.747   1.103  2.1296 -1.6062  3.1009
   28MOL   H76921883   4.495   5.533   1.182  1.6880 -0.1069  0.5910
   28MOL   H77021884   4.339   5.500   1.100 -0.5561  0.8430  0.4331
   28MOL   H77121885   4.632   5.745   1.134 -0.6090  2.1744 -0.4425
   28MOL   H77221886   4.638   5.691   0.961  0.8430 -1.1928  1.9178
   28MOL   H77321887   4.688   5.927   0.993  0.2406 -1.8229 -1.1712
   28MOL   H77421888   4.536   5.955   1.073 -0.8625  1.4587 -1.6847
   28MOL   H77521889   4.591   5.875   0.780  0.5315  1.4977 -1.3663
   28MOL   H77621890   4.463   6.055   0.728 -0.6240  1.7431  1.0873
   28MOL   H77721891   4.467   6.127   0.891 -2.2387  0.5290 -1.0155
   28MOL   H77821892   4.850   6.239   0.848 -0.4924  1.4221 -0.3474
   28MOL   H77921893   5.073   6.331   0.823 -0.2007 -1.3553  1.2194
   28MOL   H78021894   5.060   6.258   0.401 -0.2891  0.4473  1.2517
   28MOL   H78121895   4.845   6.129   0.435  1.0523 -0.0434 -1.3715
   28MOL   H78221896   5.304   6.459   0.454  0.9455  0.3016  0.9325
   29MOL     C121897   0.700   6.539   3.593 -0.1657  0.5485 -0.1608
   29MOL     C221898   0.718   6.537   3.748  0.3900  0.3170 -1.1427
   29MOL     C321899   0.611   6.622   3.825 -0.2295 -0.4246 -0.2503
   29MOL     C421900   0.614   6.608   3.979 -0.2693  0.2178  0.4329
   29MOL     O521901   0.494   6.637   4.039 -0.1713 -0.3590 -0.1474
   29MOL     C621902   0.621   6.768   3.773 -0.2599 -0.3999 -0.0916
   29MOL     C721903   0.607   6.774   3.619 -0.1710 -0.3828  0.6259
   29MOL     C821904   0.713   6.680   3.543  0.3108 -0.1395 -0.1528
   29MOL     C921905   0.719   6.674   3.392 -0.2484 -0.3855 -0.1170
   29MOL    O1021906   0.722   6.797   3.318  0.1837  0.0900 -0.3025
   29MOL    C1121907   0.839   6.848   3.285 -0.1784 -0.2239  0.9015
   29MOL    O1221908   0.947   6.793   3.310  0.7309 -0.1341  0.2333
   29MOL    C1321909   0.841   6.977   3.205  0.8151 -0.6675 -0.7770
   29MOL    C1421910   0.954   7.003   3.128 -0.1636 -0.3278  0.3316
   29MOL    C1521911   0.964   7.117   3.050  0.0986  0.4224  0.1117
   29MOL    C1621912   0.863   7.215   3.061 -0.0735  0.5462 -0.0522
   29MOL    C1721913   0.878   7.329   2.973 -0.0361 -0.4276 -0.3055
   29MOL    O1821914   0.987   7.367   2.922 -0.3277 -0.1430 -0.2136
   29MOL    O1921915   0.767   7.398   2.958  0.3170  0.3600  0.2515
   29MOL    C2021916   0.741   7.187   3.141 -0.8029 -0.6104 -0.5329
   29MOL    C2121917   0.731   7.068   3.220 -0.1002 -0.3318 -0.6423
   29MOL    H2221918   0.771   6.470   3.547 -1.4815 -1.1576  0.3131
   29MOL    H2321919   0.606   6.497   3.557 -0.3621  0.8906 -0.0511
   29MOL    H2421920   0.694   6.434   3.777 -2.4023  0.8029 -1.5809
   29MOL    H2521921   0.820   6.560   3.780 -1.0847  0.0466  4.2424
   29MOL    H2621922   0.516   6.584   3.789 -1.1662  0.5048  1.2299
   29MOL    H2721923   0.637   6.504   4.001  2.2379  0.6107 -0.1474
   29MOL    H2821924   0.683   6.674   4.032  0.9403 -1.6237  1.2391
   29MOL    H2921925   0.541   6.820   3.827  0.5496  0.0199  0.7210
   29MOL    H3021926   0.709   6.815   3.817 -0.9690  0.6711  0.2062
   29MOL    H3121927   0.625   6.878   3.593 -0.1731 -1.1591 -2.7483
   29MOL    H3221928   0.510   6.739   3.582  0.1191 -1.0838  0.5102
   29MOL    H3321929   0.810   6.717   3.574  0.2041 -0.7863  0.9910
   29MOL    H3421930   0.802   6.611   3.361 -0.0197 -0.1294 -0.0275
   29MOL    H3521931   0.633   6.619   3.355 -0.2161 -0.8362  0.4729
   29MOL    H3621932   1.029   6.925   3.129 -0.3047 -0.4573  0.6703
   29MOL    H3721933   1.057   7.133   2.999  0.1043 -0.0783 -0.0432
   29MOL    H3821934   0.659   7.257   3.144 -2.1049 -2.1557  1.2653
   29MOL    H3921935   0.645   7.050   3.283  0.5174  2.8253  1.2413
   29MOL    H4021936   0.485   6.583   4.117  0.3642  1.7276  1.4130
   29MOL    C4121937   0.373   7.682   2.885  0.9368 -0.1389  0.1444
   29MOL    C4221938   0.523   7.679   2.857 -0.6089 -0.6565 -0.5084
   29MOL    C4321939   0.609   7.648   2.985  0.6110 -0.3979  0.3993
   29MOL    C4421940   0.757   7.634   2.951  0.0457 -0.4314 -0.8169
   29MOL    O4521941   0.779   7.519   2.868 -0.4371 -0.3582 -0.0456
   29MOL    C4621942   0.576   7.758   3.093 -0.1710 -0.3597 -0.6153
   29MOL    C4721943   0.423   7.750   3.116  0.2574  0.0663 -0.3493
   29MOL    C4821944   0.353   7.797   2.992  0.1489  0.3357  0.4094
   29MOL    C4921945   0.201   7.819   3.029 -0.5456 -0.2080  0.0197
   29MOL    O5021946   0.124   7.865   2.924 -0.6198 -0.4353  0.4971
   29MOL    C5121947   0.058   7.985   2.934 -0.2621  0.2152 -0.4357
   29MOL    O5221948   0.062   0.025   3.032 -0.3049 -0.0156 -0.2276
   29MOL    C5321949   8.015   8.021   2.812  0.3160  0.6656  0.6083
   29MOL    C5421950   8.027   7.936   2.699 -0.6797 -0.2820 -0.5030
   29MOL    C5521951   7.964   7.977   2.578 -0.9496  0.7973  0.0951
   29MOL    C5621952   7.872   0.048   2.575 -0.1899 -0.4129 -0.0684
   29MOL    C5721953   7.812   0.090   2.449  0.6952 -0.7646  0.4556
   29MOL    O5821954   7.706   0.154   2.445  0.2428 -0.5562 -0.0143
   29MOL    O5921955   7.888   0.067   2.340 -0.2900  0.6127 -0.0024
   29MOL    C6021956   7.858   0.123   2.694 -0.1421 -0.4656  0.4170
   29MOL    C6121957   7.930   0.099   2.809 -0.6349 -0.1086 -0.0301
   29MOL    H6221958   0.315   7.711   2.797  1.6243  1.5577  0.2362
   29MOL    H6321959   0.347   7.580   2.912 -1.5156  0.6566  0.8551
   29MOL    H6421960   0.552   7.604   2.783  0.2497 -0.8063 -0.0235
   29MOL    H6521961   0.563   7.774   2.824  1.9149 -0.7309  2.2002
   29MOL    H6621962   0.578   7.550   3.024 -0.7944 -0.4287 -0.7644
   29MOL    H6721963   0.809   7.723   2.915  0.7527 -0.6191 -0.2733
   29MOL    H6821964   0.814   7.613   3.042  0.4876  0.8194 -0.7930
   29MOL    H6921965   0.626   7.734   3.187  0.0624 -0.7962 -0.8492
   29MOL    H7021966   0.616   7.856   3.067  0.1233 -0.5367 -0.8389
   29MOL    H7121967   0.385   7.806   3.202 -1.3239  0.3887 -1.2385
   29MOL    H7221968   0.402   7.645   3.139 -1.4094  0.3655 -0.4130
   29MOL    H7321969   0.386   7.892   2.949  3.0055 -0.2334  1.2103
   29MOL    H7421970   0.160   7.718   3.038 -2.3955  0.7590  2.7747
   29MOL    H7521971   0.202   7.876   3.121  0.7851  1.3717 -0.9379
   29MOL    H7621972   0.045   7.842   2.703 -1.8508 -1.0267 -1.8888
   29MOL    H7721973   7.969   7.916   2.488  0.6008  0.7305  0.2148
   29MOL    H7821974   7.781   0.199   2.697 -1.3080 -1.2697 -4.0830
   29MOL    H7921975   7.919   0.158   2.899 -2.9390 -1.3746  0.5552
   29MOL    C8021976   7.701   0.125   1.809  0.0825 -0.0195 -0.3776
   29MOL    C8121977   7.707   0.129   1.959  0.4130  0.8394 -0.6056
   29MOL    C8221978   7.824   0.218   2.008  0.2279 -0.4616 -0.1801
   29MOL    C8321979   7.828   0.224   2.166  0.9980  0.6700  0.8554
   29MOL    O8421980   7.814   0.089   2.215  0.1071 -0.2518  0.1106
   29MOL    C8521981   7.956   0.164   1.957 -0.2258 -0.5350  0.0320
   29MOL    C8621982   7.947   0.170   1.804 -0.3891  0.5088 -0.4511
   29MOL    C8721983   7.835   0.072   1.751 -0.0276 -0.5188 -0.8916
   29MOL    C8821984   7.836   0.047   1.603  0.1783  0.5297  0.7212
   29MOL    O8921985   7.734   7.990   1.578 -0.3420 -0.0781  0.0312
   29MOL    C9021986   7.763   7.857   1.573  0.0264  0.5044 -0.6500
   29MOL    O9121987   7.874   7.810   1.578  0.0217 -0.4329  0.1152
   29MOL    C9221988   7.645   7.771   1.550 -0.5875 -0.0549 -0.3939
   29MOL    C9321989   7.518   7.825   1.513 -0.9874 -0.1423 -0.0064
   29MOL    C9421990   7.416   7.734   1.491  0.5867  0.2610  0.3075
   29MOL    C9521991   7.424   7.591   1.512  0.3250 -0.0046 -0.3307
   29MOL    C9621992   7.310   7.501   1.481  0.9072 -0.5914 -0.3253
   29MOL    O9721993   7.317   7.378   1.484 -0.7141 -0.3797  0.3109
   29MOL    O9821994   7.203   7.571   1.441 -0.5370  0.4676  0.1347
   29MOL    C9921995   7.548   7.542   1.560  0.6483 -0.1273 -0.3384
   29MOL   C10021996   7.659   7.631   1.569  0.5881 -0.1526 -0.7826
   29MOL   H10121997   7.614   0.068   1.776 -0.1078 -0.3556  0.6799
   29MOL   H10221998   7.674   0.229   1.791 -1.3830 -0.2864  0.1431
   29MOL   H10321999   7.614   0.168   1.999 -1.6798 -2.2444 -2.2935
   29MOL   H10422000   7.727   0.030   2.002  1.2354  0.9300 -0.7667
   29MOL   H10522001   7.811   0.314   1.958  2.7916 -0.5943 -1.1762
   29MOL   H10622002   7.923   0.260   2.207  2.4290 -1.2582 -0.6419
   29MOL   H10722003   7.745   0.284   2.203  0.4806  1.0270 -0.8312
   29MOL   H10822004   0.001   0.235   1.979  0.1085 -1.6402  2.4602
   29MOL   H10922005   7.991   0.078   2.014 -0.5321 -0.6853 -0.0075
   29MOL   H11022006   8.034   0.125   1.757 -0.2210 -1.6886  1.8770
   29MOL   H11122007   7.936   0.271   1.764 -0.1033  0.4697 -0.6305
   29MOL   H11222008   7.857   8.012   1.799 -0.7092  0.2371  0.9580
   29MOL   H11322009   7.807   0.132   1.541 -0.8822 -0.1978  0.1994
   29MOL   H11422010   7.930   0.013   1.560 -1.4551 -2.5181 -0.6244
   29MOL   H11522011   7.492   7.928   1.495  1.9763  0.1745 -2.9316
   29MOL   H11622012   7.321   7.779   1.466 -0.0794 -1.9648 -1.2885
   29MOL   H11722013   7.570   7.438   1.575 -1.6304 -0.6109 -0.2971
   29MOL   H11822014   7.754   7.588   1.595 -0.8864 -2.8608  0.3497
   29MOL   C11922015   6.770   7.342   1.125 -0.2765  0.2232 -0.3935
   29MOL   C12022016   6.855   7.435   1.206  0.4873  0.0321 -0.4475
   29MOL   C12122017   6.904   7.367   1.339 -0.4557 -0.2956 -0.3466
   29MOL   C12222018   6.993   7.468   1.430 -0.3696  0.6522 -0.1080
   29MOL   O12322019   7.112   7.487   1.361 -0.5460 -0.2150  0.8008
   29MOL   C12422020   6.781   7.319   1.411 -0.0442 -0.0396  0.1175
   29MOL   C12522021   6.692   7.221   1.333  0.5674  0.3653  0.1067
   29MOL   C12622022   6.651   7.290   1.203  0.0943 -0.6394 -0.1370
   29MOL   C12722023   6.560   7.203   1.125  0.1113  0.2540  0.2740
   29MOL   O12822024   6.514   7.256   1.006  0.1023  0.0978 -0.1528
   29MOL   C12922025   6.399   7.211   0.948  1.0961  0.0677 -0.0225
   29MOL   O13022026   6.321   7.135   1.006 -0.2214 -0.2454 -0.3042
   29MOL   C13122027   6.364   7.267   0.813 -0.0832  0.2432 -0.0652
   29MOL   C13222028   6.237   7.258   0.750  0.1015  0.1157  0.5932
   29MOL   C13322029   6.206   7.319   0.628 -0.5391  0.0721 -0.3648
   29MOL   C13422030   6.309   7.381   0.554 -0.6027 -0.1892 -0.3165
   29MOL   C13522031   6.277   7.443   0.425 -0.0708  0.4680  0.3788
   29MOL   O13622032   6.159   7.450   0.378 -0.3742  0.2588  0.0218
   29MOL   O13722033   6.386   7.480   0.361 -0.6524 -0.1977  0.0572
   29MOL   C13822034   6.437   7.392   0.618 -0.5314 -0.4129 -0.3457
   29MOL   C13922035   6.465   7.341   0.748 -0.2934  0.0723 -0.5516
   29MOL   H14022036   6.743   7.381   1.026  1.1936 -1.9194 -1.6637
   29MOL   H14122037   6.825   7.250   1.110 -2.1670 -1.0132  0.0762
   29MOL   H14222038   6.938   7.471   1.146  0.0066  1.7456 -0.1092
   29MOL   H14322039   6.805   7.530   1.224  0.0908 -0.0002 -1.3702
   29MOL   H14422040   6.950   7.275   1.303  0.2194 -0.1844  0.2031
   29MOL   H14522041   6.939   7.561   1.447 -0.3492  0.4121  1.3404
   29MOL   H14622042   7.007   7.414   1.524 -1.3069 -1.7852 -1.3170
   29MOL   H14722043   6.809   7.276   1.507  0.4013 -1.3692 -0.5945
   29MOL   H14822044   6.734   7.416   1.429 -0.4886 -0.4466  1.1747
   29MOL   H14922045   6.602   7.201   1.392  1.2734 -2.3852  0.3385
   29MOL   H15022046   6.737   7.123   1.317  0.8831  0.3412  1.0992
   29MOL   H15122047   6.583   7.365   1.241  2.4754  0.6244  1.7841
   29MOL   H15222048   6.602   7.105   1.102  0.9971  0.8894 -0.8830
   29MOL   H15322049   6.480   7.189   1.197  1.0345 -0.6443  1.1428
   29MOL   H15422050   6.156   7.214   0.807 -3.4364  1.0129 -3.5073
   29MOL   H15522051   6.105   7.319   0.589 -1.3317  2.3699  1.5220
   29MOL   H15622052   6.517   7.443   0.566  0.1518  1.7183  2.6492
   29MOL   H15722053   6.565   7.354   0.786 -1.0973  0.7116  1.4571
   29MOL   C15822054   6.367   7.997   0.011 -0.1665 -0.4656  0.1965
   29MOL   C15922055   6.402   7.929   0.145  0.5420 -0.1057  0.1513
   29MOL   C16022056   6.354   7.782   0.141  0.0846  0.0894 -0.6524
   29MOL   C16122057   6.373   7.704   0.275 -0.2992 -0.0557 -0.2117
   29MOL   O16222058   6.359   7.565   0.236  0.8849  0.1464 -0.8635
   29MOL   C16322059   6.208   7.778   0.100 -0.2234  0.0087 -0.1531
   29MOL   C16422060   6.167   7.852   8.001 -0.4513 -0.4934  0.7136
   29MOL   C16522061   6.212   7.996   8.022 -0.3063 -0.9880 -0.5548
   29MOL   C16622062   6.166   0.047   7.897 -0.4532  0.7133  0.7520
   29MOL   O16722063   6.210   0.178   7.916  0.8967  0.0416 -0.1760
   29MOL   C16822064   6.124   0.282   7.893 -0.0492 -0.6722 -0.3591
   29MOL   O16922065   6.027   0.273   7.819 -0.0625  0.2045 -0.2988
   29MOL   C17022066   6.176   0.405   7.953 -0.4622 -0.0603  0.5435
   29MOL   C17122067   6.298   0.408   8.028 -0.3718  0.2815 -0.1703
   29MOL   C17222068   6.337   0.525   0.064  0.2845 -0.0442  0.8864
   29MOL   C17322069   6.263   0.645   0.043 -0.1458  0.1592  0.6522
   29MOL   C17422070   6.312   0.765   0.116  0.5122  0.1998 -0.7449
   29MOL   O17522071   6.402   0.770   0.199  0.5652  0.1102 -0.1720
   29MOL   O17622072   6.236   0.873   0.102 -0.2985 -0.1323 -0.2353
   29MOL   C17722073   6.140   0.636   8.004 -0.2995 -0.4750  0.1017
   29MOL   C17822074   6.102   0.522   7.932 -0.4702  0.3726  0.3908
   29MOL   H17922075   6.411   0.061   0.019 -0.5818 -0.1893 -0.8355
   29MOL   H18022076   6.423   7.938   7.974  1.6270  0.4417  0.8249
   29MOL   H18122077   6.509   7.923   0.162  0.7635 -1.0972 -1.5032
   29MOL   H18222078   6.360   7.990   0.225 -0.1274  1.0595 -1.0571
   29MOL   H18322079   6.417   7.730   0.069  0.9713  0.9322 -0.4888
   29MOL   H18422080   6.475   7.712   0.312 -1.1421  2.6974  1.7355
   29MOL   H18522081   6.295   7.731   0.347  0.6596 -1.3529  1.3403
   29MOL   H18622082   6.168   7.677   0.105 -0.3287  0.1104  1.2708
   29MOL   H18722083   6.148   7.821   0.181  1.1052  0.5935  0.5396
   29MOL   H18822084   6.063   7.859   7.968 -0.3825 -1.6151  0.2282
   29MOL   H18922085   6.215   7.811   7.912 -0.2321  2.3018 -0.5012
   29MOL   H19022086   6.157   0.009   0.068 -1.0122  1.4267 -2.4191
   29MOL   H19122087   6.219   0.004   7.812  1.6907 -0.4178  2.6232
   29MOL   H19222088   6.057   0.038   7.895 -0.2943 -1.6819  1.1999
   29MOL   H19322089   6.357   0.318   0.008  1.5626  1.7229  1.1058
   29MOL   H19422090   6.424   0.519   0.127 -0.4924 -1.0417  1.8710
   29MOL   H19522091   6.077   0.724   8.003 -0.0511 -0.2726 -3.2480
   29MOL   H19622092   6.004   0.526   7.887  0.2722  2.3859 -1.1561
   29MOL   C19722093   6.219   1.280   7.782 -0.1319  0.7906  0.6861
   29MOL   C19822094   6.304   1.245   7.907  0.1430  0.3174 -0.2064
   29MOL   C19922095   6.247   1.123   7.981 -0.0136  0.6663 -0.4678
   29MOL   C20022096   6.343   1.074   0.056  0.1357  0.1355  0.1242
   29MOL   O20122097   6.286   1.001   0.164 -0.4303  0.5386  0.4893
   29MOL   C20222098   6.104   1.156   8.033  0.8237 -0.4993 -0.2432
   29MOL   C20322099   6.011   1.187   7.911 -0.1182 -0.1393 -0.6265
   29MOL   C20422100   6.068   1.306   7.826  0.6295  0.7383 -0.0549
   29MOL   C20522101   5.978   1.334   7.700  0.2447 -0.0752  0.3237
   29MOL   O20622102   6.039   1.430   7.615 -0.6872  0.2429  0.7084
   29MOL   C20722103   5.983   1.468   7.500  0.0857 -0.0775  0.3205
   29MOL   O20822104   5.874   1.426   7.464  0.0591  0.1752 -0.0170
   29MOL   C20922105   6.078   1.556   7.416  0.5566  0.3185 -0.2526
   29MOL   C21022106   6.017   1.631   7.312 -0.1527  0.6329  0.6066
   29MOL   C21122107   6.097   1.707   7.227 -1.0561 -0.4395 -0.0221
   29MOL   C21222108   6.237   1.719   7.254  0.6931  0.5895  0.2320
   29MOL   C21322109   6.317   1.813   7.168 -0.2894 -0.0924  0.5044
   29MOL   O21422110   6.272   1.895   7.096  0.5529 -0.1879 -0.4065
   29MOL   O21522111   6.455   1.799   7.179 -0.9422  0.0476 -0.8939
   29MOL   C21622112   6.301   1.649   7.356 -0.4879  0.8155 -0.0183
   29MOL   C21722113   6.220   1.560   7.434  0.9445 -0.0581 -0.0626
   29MOL   H21822114   6.258   1.363   7.723  2.6851 -1.3885 -0.6597
   29MOL   H21922115   6.209   1.196   7.713 -1.8199  1.4727  0.0759
   29MOL   H22022116   6.406   1.230   7.872  1.1008  1.6315  1.8972
   29MOL   H22122117   6.317   1.335   7.967 -0.5963  0.2207  0.1046
   29MOL   H22222118   6.231   1.046   7.906 -0.6668  0.6143 -0.2778
   29MOL   H22322119   6.425   1.013   0.018  1.3004  1.5849  0.2561
   29MOL   H22422120   6.390   1.158   0.108 -2.1058  0.5557  1.5360
   29MOL   H22522121   6.070   1.074   0.062  0.7800  0.2142  0.6524
   29MOL   H22622122   6.112   1.241   0.066  0.5396 -1.2153  0.6990
   29MOL   H22722123   5.911   1.214   7.946  0.3101 -0.4481  0.8815
   29MOL   H22822124   5.992   1.091   7.861 -0.2891  0.7546 -2.3057
   29MOL   H22922125   6.074   1.398   7.884 -0.0343  0.4047  0.5460
   29MOL   H23022126   5.952   1.246   7.641  0.5259  0.5555 -0.7566
   29MOL   H23122127   5.877   1.367   7.726  0.1654  0.9987 -1.2674
   29MOL   H23222128   5.909   1.626   7.306 -0.0455 -3.3262  0.6326
   29MOL   H23322129   6.052   1.763   7.147  0.5191  1.8481  0.6560
   29MOL   H23422130   6.407   1.659   7.371 -0.4098 -1.2350  0.9372
   29MOL   H23522131   6.271   1.500   7.508  0.0369 -0.8643 -0.0848
   29MOL   C23622132   6.985   1.894   7.108 -0.0998  0.0219 -0.0769
   29MOL   C23722133   6.842   1.916   7.067  0.4387  0.3975  0.2785
   29MOL   C23822134   6.749   1.927   7.195 -0.3480 -0.1356  0.3331
   29MOL   C23922135   6.609   1.980   7.162 -0.2553 -0.2138  0.1409
   29MOL   O24022136   6.530   1.892   7.083  0.4840 -0.5635 -0.5648
   29MOL   C24122137   6.751   1.795   7.276 -0.3333  0.5900 -0.2201
   29MOL   C24222138   6.900   1.762   7.312  0.3862  0.0520  0.2643
   29MOL   C24322139   6.992   1.760   7.187  0.3485  0.1477  0.2254
   29MOL   C24422140   7.138   1.723   7.238 -0.9058  0.2886  0.3169
   29MOL   O24522141   7.189   1.832   7.309  0.0906 -0.5740 -0.2640
   29MOL   C24622142   7.317   1.852   7.331  0.4146  0.8659  0.4930
   29MOL   O24722143   7.404   1.770   7.290 -0.5960  0.0277 -0.3745
   29MOL   C24822144   7.343   1.978   7.397 -0.1782 -0.3158 -0.5335
   29MOL   C24922145   7.244   2.073   7.425  0.6475 -0.0867 -0.3083
   29MOL   C25022146   7.269   2.188   7.503 -0.8292 -0.2529 -0.2249
   29MOL   C25122147   7.392   2.207   7.566  0.7332 -0.0296  0.7336
   29MOL   C25222148   7.416   2.299   7.673  0.1355 -0.0937 -0.0962
   29MOL   O25322149   7.490   2.265   7.767  0.3246  0.0935  0.1963
   29MOL   O25422150   7.340   2.402   7.666 -0.5072  0.5659  0.2203
   29MOL   C25522151   7.494   2.115   7.526 -0.2494  0.2457 -0.2045
   29MOL   C25622152   7.472   2.002   7.443  0.7891 -0.1406  0.1159
   29MOL   H25722153   7.061   1.901   7.030 -1.0786  1.4417 -0.9219
   29MOL   H25822154   7.006   1.972   7.181 -2.3432  0.2029  0.4019
   29MOL   H25922155   6.839   2.000   6.997  0.3663 -0.1362 -0.3702
   29MOL   H26022156   6.816   1.822   7.017 -0.4758  0.9290 -0.2742
   29MOL   H26122157   6.783   2.010   7.257 -0.8625  1.8865 -2.0378
   29MOL   H26222158   6.563   2.001   7.258  0.1381  0.9403  0.0848
   29MOL   H26322159   6.615   2.070   7.100  0.2885 -0.3034  0.0676
   29MOL   H26422160   6.685   1.802   7.362  1.2536  1.8486  0.9256
   29MOL   H26522161   6.726   1.709   7.214  0.1257 -0.1594  0.6252
   29MOL   H26622162   6.899   1.667   7.365 -2.3314  0.4758  1.0283
   29MOL   H26722163   6.936   1.842   7.377 -0.4135 -0.3430  1.2097
   29MOL   H26822164   6.967   1.682   7.115  1.2202  1.0151 -1.0306
   29MOL   H26922165   7.143   1.636   7.303  3.9430  0.4558  0.3508
   29MOL   H27022166   7.212   1.706   7.160 -0.8041  1.8569  0.0516
   29MOL   H27122167   7.144   2.064   7.385  0.3574 -0.2784  0.4524
   29MOL   H27222168   7.190   2.258   7.525  0.4629  1.3812 -0.7313
   29MOL   H27322169   7.590   2.136   7.570 -0.1407  1.1000 -0.8352
   29MOL   H27422170   7.546   1.924   7.430  0.6059 -0.0260 -1.7364
   29MOL   C27522171   7.097   2.847   7.829 -0.1074  0.2674  0.0277
   29MOL   C27622172   7.157   2.713   7.788 -0.1533 -0.2655  0.3871
   29MOL   C27722173   7.180   2.621   7.910 -0.8357 -0.4564 -0.1921
   29MOL   C27822174   7.235   2.485   7.870 -0.2429  0.1837  0.3638
   29MOL   O27922175   7.348   2.502   7.788  0.6503 -0.2868  0.0781
   29MOL   C28022176   7.272   2.689   8.023  0.3653  0.0564 -0.1599
   29MOL   C28122177   7.207   2.819   0.026  0.0946  0.2351 -0.1404
   29MOL   C28222178   7.190   2.907   7.932 -0.4228 -0.0332 -0.0022
   29MOL   C28322179   7.132   3.037   7.980 -0.2001  0.4065  0.5871
   29MOL   O28422180   7.095   3.121   7.871 -0.4832 -0.0084 -0.1632
   29MOL   C28522181   7.083   3.251   7.896 -0.4172  0.0905  0.4793
   29MOL   O28622182   7.091   3.305   8.008 -0.4025  0.0851 -0.4982
   29MOL   C28722183   7.053   3.333   7.770 -0.1315 -0.4618 -0.4338
   29MOL   C28822184   7.045   3.473   7.791 -0.2303 -0.1062  0.6776
   29MOL   C28922185   6.999   3.563   7.686 -0.6751 -0.3700  0.9680
   29MOL   C29022186   6.971   3.496   7.556 -0.5170  0.6768  0.1118
   29MOL   C29122187   6.931   3.562   7.432  0.6340 -0.1941  0.8245
   29MOL   O29222188   6.950   3.517   7.316  0.5612 -0.3519 -0.6494
   29MOL   O29322189   6.871   3.677   7.465 -0.5006  0.6217  0.5307
   29MOL   C29422190   7.000   3.358   7.542 -0.0472  0.0840  0.1454
   29MOL   C29522191   7.024   3.274   7.650  0.2796 -0.0416 -0.6599
   29MOL   H29622192   7.088   2.899   7.734 -0.9675  0.5077  0.2385
   29MOL   H29722193   7.002   2.832   7.880 -0.1400  1.2378  0.2603
   29MOL   H29822194   7.095   2.664   7.713  0.7741 -0.5105 -0.2260
   29MOL   H29922195   7.250   2.720   7.732 -0.2512 -0.0258  0.2526
   29MOL   H30022196   7.087   2.598   7.961 -1.8512  3.4484 -0.0831
   29MOL   H30122197   7.263   2.442   7.966 -0.8815  0.0831  0.5090
   29MOL   H30222198   7.168   2.411   7.825  1.5841 -1.4819  0.3377
   29MOL   H30322199   7.277   2.620   0.072 -2.4121 -1.4865 -1.2086
   29MOL   H30422200   7.376   2.700   7.993  0.8352 -0.8771  1.0901
   29MOL   H30522201   7.270   2.867   0.101 -1.6229  0.3026  1.2974
   29MOL   H30622202   7.108   2.808   0.072  0.1826  0.9492  0.2278
   29MOL   H30722203   7.285   2.914   7.879 -0.2174 -1.3538  0.1760
   29MOL   H30822204   7.049   3.032   0.015 -0.6358 -0.1476  0.0362
   29MOL   H30922205   7.214   3.087   8.033 -0.3028 -0.8477  1.9587
   29MOL   H31022206   7.065   3.527   7.882  3.1056 -0.0103 -0.0634
   29MOL   H31122207   6.996   3.670   7.701  1.9491 -0.2015  0.4887
   29MOL   H31222208   6.993   3.306   7.447 -0.2244 -1.6436  1.0817
   29MOL   H31322209   7.026   3.168   7.628 -0.0669 -0.0215 -0.7956
   29MOL   C31422210   6.798   4.093   7.042  0.3420 -0.6647 -0.0814
   29MOL   C31522211   6.788   4.006   7.166 -0.4869  0.1695  0.3148
   29MOL   C31622212   6.921   3.970   7.229 -0.6167  0.3825  0.8409
   29MOL   C31722213   6.904   3.891   7.361  0.0615  0.3101  0.1276
   29MOL   O31822214   6.841   3.768   7.343  0.4134  0.1177 -0.6280
   29MOL   C31922215   7.013   3.902   7.129 -0.4812 -0.0975  0.2292
   29MOL   C32022216   7.018   3.990   6.995 -0.2596  0.2519  0.8260
   29MOL   C32122217   6.879   4.012   6.937 -0.0664  0.2326 -0.0421
   29MOL   C32222218   6.895   4.085   6.810  0.6672 -0.2612  0.4308
   29MOL   O32322219   6.785   4.067   6.726 -0.6053 -0.4736  0.0852
   29MOL   C32422220   6.778   3.964   6.641  0.1190 -0.5505  0.0158
   29MOL   O32522221   6.858   3.872   6.641 -0.1162 -0.8768 -0.0162
   29MOL   C32622222   6.659   3.967   6.555 -0.0622 -0.9320 -0.2174
   29MOL   C32722223   6.553   4.062   6.573 -0.9930  0.0476  0.1114
   29MOL   C32822224   6.448   4.054   6.484 -0.4414 -0.2171  0.8259
   29MOL   C32922225   6.445   3.963   6.379  0.0093  0.2485  0.0794
   29MOL   C33022226   6.328   3.965   6.284  0.3417 -0.5032 -0.1096
   29MOL   O33122227   6.247   4.057   6.297  0.4757 -0.0587 -0.3745
   29MOL   O33222228   6.339   3.876   6.184  0.4100 -0.4844 -0.5559
   29MOL   C33322229   6.548   3.867   6.369 -0.3178 -0.0021  0.2892
   29MOL   C33422230   6.651   3.867   6.455  0.0220 -0.2018 -0.7442
   29MOL   H33522231   6.698   4.108   7.000  0.4213  2.0035  0.6252
   29MOL   H33622232   6.846   4.189   7.064  0.9553 -0.5255 -1.8793
   29MOL   H33722233   6.715   4.046   7.236  0.7652  1.7393  0.7593
   29MOL   H33822234   6.735   3.915   7.138  0.6819 -0.6586  0.7709
   29MOL   H33922235   6.962   4.068   7.251 -0.4329  0.7248 -0.9395
   29MOL   H34022236   7.000   3.889   7.413 -0.9561  1.4827  2.1092
   29MOL   H34122237   6.836   3.947   7.426  0.4506 -0.2036  0.9819
   29MOL   H34222238   7.117   3.900   7.159 -0.6741  1.1705  1.0180
   29MOL   H34322239   6.986   3.798   7.110  0.4288 -0.2966 -0.0075
   29MOL   H34422240   7.079   3.943   6.918 -2.9055 -1.5985 -0.2364
   29MOL   H34522241   7.069   4.085   7.008  0.4979 -0.1193  0.5788
   29MOL   H34622242   6.832   3.915   6.917 -0.9393  1.2098 -2.9885
   29MOL   H34722243   6.915   4.191   6.827 -0.0322 -0.0994  0.2643
   29MOL   H34822244   6.985   4.045   6.764 -0.2596 -0.6874 -1.0323
   29MOL   H34922245   6.549   4.142   6.645 -2.0899  1.3171 -1.3517
   29MOL   H35022246   6.375   4.134   6.492  1.0904  1.4261 -1.1070
   29MOL   H35122247   6.561   3.795   6.289 -0.3205 -0.8947  1.0854
   29MOL   H35222248   6.733   3.799   6.439 -0.4836 -0.6550 -1.4603
   29MOL   C35322249   5.811   3.669   5.922  0.5818  0.1118  0.4267
   29MOL   C35422250   5.913   3.669   6.038  0.4286  0.1144 -0.3833
   29MOL   C35522251   6.030   3.771   6.008 -0.3715 -0.6969  0.3838
   29MOL   C35622252   6.139   3.772   6.112  0.5417  0.1931  0.3252
   29MOL   O35722253   6.226   3.874   6.083 -0.2064 -0.7402 -0.0338
   29MOL   C35822254   6.096   3.732   5.871 -0.0928 -0.0880  0.6621
   29MOL   C35922255   6.000   3.701   5.752  0.3865  0.9676  0.4021
   29MOL   C36022256   5.880   3.614   5.794  0.5248  0.0219  0.1017
   29MOL   C36122257   5.779   3.602   5.678 -0.1009 -0.1519 -0.7139
   29MOL   O36222258   5.662   3.540   5.735  0.3648 -0.1897 -0.2277
   29MOL   C36322259   5.640   3.412   5.714  0.5942 -0.1829 -0.5960
   29MOL   O36422260   5.715   3.344   5.648  0.0747  0.3600  0.5559
   29MOL   C36522261   5.522   3.367   5.796  0.2356 -0.3788  0.2236
   29MOL   C36622262   5.461   3.445   5.897 -0.5311 -0.3380  0.1970
   29MOL   C36722263   5.375   3.379   5.987  0.1761 -0.0400  0.6614
   29MOL   C36822264   5.327   3.246   5.964 -0.9678 -0.3510  0.2542
   29MOL   C36922265   5.235   3.180   6.061  0.2488  0.1673  0.1112
   29MOL   O37022266   5.171   3.076   6.037  0.5847  0.0583  0.1059
   29MOL   O37122267   5.243   3.234   6.177  0.3413  0.3032  0.0194
   29MOL   C37222268   5.378   3.176   5.852  0.0923 -0.0533 -0.5661
   29MOL   C37322269   5.468   3.237   5.768 -0.0780 -0.2768  0.4066
   29MOL   H37422270   5.729   3.606   5.957  1.0441 -0.8642 -0.1947
   29MOL   H37522271   5.764   3.765   5.906 -1.8482 -1.2619 -1.0111
   29MOL   H37622272   5.847   3.699   6.119 -0.2942 -0.2489 -0.8336
   29MOL   H37722273   5.951   3.569   6.058 -1.9225 -1.1320 -1.9032
   29MOL   H37822274   5.974   3.864   5.996  1.0685  0.0123 -1.1668
   29MOL   H37922275   6.080   3.782   6.203  0.4819  0.3519  0.2698
   29MOL   H38022276   6.190   3.676   6.106 -1.8365 -1.3650  3.4606
   29MOL   H38122277   6.144   3.825   5.838  1.9482 -0.8396  1.4608
   29MOL   H38222278   6.180   3.663   5.878  0.2280  0.4242  2.1272
   29MOL   H38322279   6.054   3.664   5.665 -0.5386 -0.1906  0.3121
   29MOL   H38422280   5.960   3.797   5.721 -2.1299 -0.2449 -0.2445
   29MOL   H38522281   5.911   3.516   5.829 -0.2175  0.9870  3.6669
   29MOL   H38622282   5.750   3.698   5.635  1.1384  0.2999 -0.5563
   29MOL   H38722283   5.816   3.553   5.588  0.0044 -0.8920 -0.2689
   29MOL   H38822284   5.500   3.543   5.918 -0.3391 -0.0829 -1.2563
   29MOL   H38922285   5.341   3.433   6.075 -2.2565 -0.4948  0.0433
   29MOL   H39022286   5.341   3.077   5.828 -1.7700  0.2731  0.8391
   29MOL   H39122287   5.504   3.173   5.688 -0.7965  0.9404 -0.9039
   29MOL   C39222288   5.060   3.457   6.600  0.1146  0.6404 -0.1979
   29MOL   C39322289   5.076   3.335   6.514  0.1632  0.1212  0.5126
   29MOL   C39422290   5.037   3.360   6.362 -0.0782  0.0969 -0.7998
   29MOL   C39522291   5.036   3.224   6.285 -0.9873 -0.1630  0.5686
   29MOL   O39622292   5.166   3.162   6.282  0.4133  1.1117  0.2314
   29MOL   C39722293   4.907   3.443   6.339 -0.7621 -0.8308  0.0832
   29MOL   C39822294   4.881   3.556   6.435 -0.2487 -0.4234 -0.2823
   29MOL   C39922295   4.907   3.509   6.585  0.3714 -0.6645  0.5036
   29MOL   C40022296   4.885   3.632   6.678 -0.4731 -0.0286 -0.9230
   29MOL   O40122297   4.928   3.598   6.810 -0.2922  0.1210 -0.4626
   29MOL   C40222298   4.925   3.697   6.908  0.0204  0.1595  0.0720
   29MOL   O40322299   4.879   3.813   6.890 -0.4069 -0.1881  0.6791
   29MOL   C40422300   4.990   3.652   7.034  0.9402  0.1135  0.0173
   29MOL   C40522301   4.966   3.516   7.079  0.2591  0.5015  0.6005
   29MOL   C40622302   5.028   3.483   7.205 -1.1816  0.0624  0.4327
   29MOL   C40722303   5.112   3.573   7.278 -0.0890  0.3133  0.1391
   29MOL   C40822304   5.187   3.515   7.389 -0.3651  0.2000 -0.0940
   29MOL   O40922305   5.154   3.407   7.443  0.1854  0.2640 -0.3912
   29MOL   O41022306   5.293   3.585   7.430  0.0567 -0.4661  0.0212
   29MOL   C41122307   5.122   3.707   7.233 -0.3889 -0.2518  0.1710
   29MOL   C41222308   5.064   3.746   7.109  0.3102 -0.3974 -0.2721
   29MOL   H41322309   5.099   3.432   6.699  1.4538  0.8125 -0.6715
   29MOL   H41422310   5.129   3.536   6.570 -0.1362  0.7976 -0.3616
   29MOL   H41522311   5.176   3.295   6.524 -0.2901 -1.0378  0.4969
   29MOL   H41622312   5.014   3.258   6.561 -0.2714  1.4308  2.1524
   29MOL   H41722313   5.117   3.420   6.321 -0.4844  2.2381  1.4560
   29MOL   H41822314   4.978   3.155   6.346  1.6217 -3.0991 -0.0845
   29MOL   H41922315   4.998   3.232   6.183 -1.5067  0.6689  0.8259
   29MOL   H42022316   4.895   3.492   6.242  0.4904  0.1443  0.3945
   29MOL   H42122317   4.821   3.378   6.353 -3.1769  1.8167 -1.7634
   29MOL   H42222318   4.786   3.602   6.407 -1.4319 -2.2636  0.6691
   29MOL   H42322319   4.939   3.646   6.416 -1.8231  0.2833 -1.9479
   29MOL   H42422320   4.831   3.437   6.616 -0.9924  1.7251  2.9249
   29MOL   H42522321   4.940   3.715   6.635 -0.3001 -0.4735 -1.5729
   29MOL   H42622322   4.778   3.656   6.672 -0.5772 -0.2030  0.1490
   29MOL   H42722323   4.906   3.446   7.023 -0.6267  0.1205  1.9987
   29MOL   H42822324   5.018   3.381   7.240 -2.2173  0.4630  1.3179
   29MOL   H42922325   5.185   3.777   7.285  0.0869 -1.1950  0.8702
   29MOL   H43022326   5.083   3.847   7.074  1.1156 -0.2313  0.6291
   29MOL   C43122327   5.475   3.952   7.631 -0.2394 -0.4965 -0.4194
   29MOL   C43222328   5.393   3.820   7.614 -0.3928 -0.3997  0.2309
   29MOL   C43322329   5.446   3.697   7.683  0.3325  0.5723  0.8136
   29MOL   C43422330   5.354   3.579   7.653 -0.2436  0.6772  0.2804
   29MOL   O43522331   5.385   3.518   7.526 -0.6003  0.2328  0.0089
   29MOL   C43622332   5.592   3.675   7.643  0.8385 -0.1347 -0.3332
   29MOL   C43722333   5.670   3.800   7.666  0.5269  0.2130  0.4017
   29MOL   C43822334   5.615   3.926   7.593  0.0248 -0.3848 -0.2088
   29MOL   C43922335   5.706   4.045   7.628  0.3621 -0.2584 -0.6606
   29MOL   O44022336   5.664   4.169   7.573 -0.0039  0.3997 -0.6265
   29MOL   C44122337   5.709   4.279   7.611 -0.2972  0.0084  0.4884
   29MOL   O44222338   5.800   4.294   7.695 -0.0654 -0.3004  0.3850
   29MOL   C44322339   5.635   4.399   7.560  0.2059 -0.1566 -0.2643
   29MOL   C44422340   5.514   4.386   7.489 -0.0143  0.2998  0.4839
   29MOL   C44522341   5.444   4.497   7.443  0.1124  0.3058 -0.4531
   29MOL   C44622342   5.498   4.622   7.470  0.1604  0.3152  0.2214
   29MOL   C44722343   5.424   4.742   7.421  0.0907  0.1105  0.7475
   29MOL   O44822344   5.301   4.733   7.407 -0.6105 -0.1556  0.0928
   29MOL   O44922345   5.505   4.852   7.404 -0.3289  0.2435  0.0334
   29MOL   C45022346   5.626   4.639   7.530 -0.5413 -0.0300  0.5075
   29MOL   C45122347   5.692   4.526   7.576 -0.2642 -0.2259  0.2155
   29MOL   H45222348   5.439   4.035   7.570  1.6034  0.1066 -0.7449
   29MOL   H45322349   5.460   3.983   7.735 -0.8451  0.2378 -0.7182
   29MOL   H45422350   5.289   3.832   7.644 -0.7151 -1.0786 -0.5813
   29MOL   H45522351   5.375   3.803   7.508  1.6934 -0.7672 -0.0905
   29MOL   H45622352   5.441   3.711   7.791 -1.7221  1.4165  0.6369
   29MOL   H45722353   5.367   3.493   7.718 -1.4918 -2.0606 -2.9584
   29MOL   H45822354   5.248   3.601   7.666 -0.8470 -1.1666 -1.3685
   29MOL   H45922355   5.631   3.593   7.704 -0.4160 -1.6025 -1.4498
   29MOL   H46022356   5.612   3.649   7.539  0.0611 -1.6526 -0.1228
   29MOL   H46122357   5.776   3.781   7.648  0.1956  0.3740 -1.8190
   29MOL   H46222358   5.664   3.824   7.772  0.3972  0.0705  0.4268
   29MOL   H46322359   5.623   3.902   7.487 -1.7231 -1.8327 -0.0333
   29MOL   H46422360   5.689   4.058   7.734  2.7339  0.1202 -0.3040
   29MOL   H46522361   5.811   4.033   7.601 -0.0976 -0.6401 -2.3939
   29MOL   H46622362   5.475   4.286   7.474  1.5746 -0.4854  1.4098
   29MOL   H46722363   5.358   4.494   7.378  0.3440  1.8413 -0.8480
   29MOL   H46822364   5.661   4.736   7.562  0.3995  0.1000 -0.8679
   29MOL   H46922365   5.779   4.551   7.635 -0.4847 -2.3983  1.5382
   29MOL   C47022366   5.293   5.246   7.703 -0.0761  0.2297 -0.1381
   29MOL   C47122367   5.349   5.229   7.558  0.4304 -0.4108 -0.3594
   29MOL   C47222368   5.427   5.102   7.542  0.1196  0.5349 -0.4836
   29MOL   C47322369   5.484   5.086   7.407  0.6920  0.2952 -0.5101
   29MOL   O47422370   5.436   4.969   7.355 -0.2016  0.3407  0.1384
   29MOL   C47522371   5.545   5.105   7.645 -0.0164 -0.0416  0.3628
   29MOL   C47622372   5.490   5.125   7.784  0.3834 -1.0561  0.4026
   29MOL   C47722373   5.403   5.254   7.808 -0.0542 -0.4872  0.7400
   29MOL   C47822374   5.345   5.274   7.952 -0.5522 -0.4043 -0.8515
   29MOL   O47922375   5.283   5.155   7.990  0.2066  0.0459 -0.8087
   29MOL   C48022376   5.336   5.067   0.042 -0.2802 -0.8475  0.2697
   29MOL   O48122377   5.424   5.101   0.120 -0.5728 -0.2158 -0.0212
   29MOL   C48222378   5.276   4.929   0.039 -0.0173 -0.1729 -0.2591
   29MOL   C48322379   5.179   4.902   7.977 -0.2779  0.7538  0.3097
   29MOL   C48422380   5.124   4.775   7.960  0.1898  0.7573 -0.1103
   29MOL   C48522381   5.173   4.672   0.014  0.6235 -0.0461  0.1781
   29MOL   C48622382   5.128   4.535   0.002  0.5821  0.0144  0.0403
   29MOL   O48722383   5.158   4.448   0.079  0.1277 -0.1917 -0.1899
   29MOL   O48822384   5.043   4.504   7.933 -0.4270  0.2479 -0.0875
   29MOL   C48922385   5.272   4.701   0.111 -0.0628 -0.1448 -0.2526
   29MOL   C49022386   5.320   4.830   0.119 -0.7722  0.1245  0.0713
   29MOL   H49122387   5.230   5.335   7.703 -0.6142 -0.1341  1.9073
   29MOL   H49222388   5.227   5.161   7.722  0.7585 -0.9309 -2.2056
   29MOL   H49322389   5.259   5.234   7.496 -0.3082  0.4103  0.7508
   29MOL   H49422390   5.397   5.324   7.534 -1.2041  1.3694  3.0213
   29MOL   H49522391   5.368   5.013   7.564 -0.4782  1.1177  0.3150
   29MOL   H49622392   5.434   5.160   7.344  0.0987  0.0011 -0.3938
   29MOL   H49722393   5.592   5.094   7.400  0.8624 -0.3222  1.0529
   29MOL   H49822394   5.599   5.011   7.639 -0.0772 -0.1353  1.3085
   29MOL   H49922395   5.626   5.177   7.628 -0.2831  0.2624  0.3784
   29MOL   H50022396   5.578   5.142   7.845  0.1293  0.2593  0.4209
   29MOL   H50122397   5.440   5.034   7.817  2.3323 -1.7364  1.5478
   29MOL   H50222398   5.467   5.341   7.792 -1.0094  0.3733  1.5957
   29MOL   H50322399   5.425   5.305   8.019  0.0165  0.3543 -1.8910
   29MOL   H50422400   5.280   5.361   7.958 -0.9570 -0.7903  0.8226
   29MOL   H50522401   5.140   4.977   7.909 -2.3411 -0.4247  0.1418
   29MOL   H50622402   5.045   4.760   7.888 -0.1467  0.4641  0.3165
   29MOL   H50722403   5.309   4.621   0.173  2.1322  1.1329  0.1679
   29MOL   H50822404   5.409   4.841   0.181 -1.1117  0.0712  0.5745
   29MOL   C50922405   4.628   4.315   0.230 -0.4598  0.6362 -0.1309
   29MOL   C51022406   4.747   4.394   0.161  0.5580  0.9794 -0.3503
   29MOL   C51122407   4.701   4.426   0.016 -0.0583  1.1209 -0.3702
   29MOL   C51222408   4.812   4.491   7.966 -0.0582 -0.3603  0.1159
   29MOL   O51322409   4.931   4.414   7.971 -0.5762 -0.1904  0.4416
   29MOL   C51422410   4.651   4.301   7.974 -0.0372  0.3557  0.6458
   29MOL   C51522411   4.559   4.214   0.011  0.5305 -0.1744 -0.2985
   29MOL   C51622412   4.598   4.179   0.156  0.7208  0.5412  0.3710
   29MOL   C51722413   4.495   4.089   0.224  0.2923 -0.3013  0.3872
   29MOL   O51822414   4.375   4.165   0.221 -0.1543 -0.1079  0.1349
   29MOL   C51922415   4.314   4.202   0.335 -0.2057 -0.0877  0.2330
   29MOL   O52022416   4.357   4.175   0.448 -0.2377 -0.0421 -0.7878
   29MOL   C52122417   4.188   4.283   0.311  0.2155 -0.1340 -0.2401
   29MOL   C52222418   4.145   4.317   0.186  0.1035  0.0475  0.0436
   29MOL   C52322419   4.031   4.395   0.167  0.1290  0.0588 -0.2703
   29MOL   C52422420   3.951   4.425   0.280 -0.5594 -0.4286  0.7769
   29MOL   C52522421   3.823   4.502   0.260  0.2223  1.0069  0.1815
   29MOL   O52622422   3.756   4.504   0.155  0.5465 -0.0121  0.1392
   29MOL   O52722423   3.785   4.561   0.375  0.1462 -0.0897  0.7036
   29MOL   C52822424   3.992   4.386   0.408 -0.1500  0.2156 -0.0327
   29MOL   C52922425   4.117   4.325   0.423  0.7164 -0.6183 -0.1960
   29MOL   H53022426   4.659   4.291   0.332 -0.7136  1.4120  0.1246
   29MOL   H53122427   4.540   4.378   0.228 -0.7573  0.2223 -0.1487
   29MOL   H53222428   4.780   4.477   0.224 -0.9268  1.0532  0.3420
   29MOL   H53322429   4.837   4.333   0.174  0.1782  0.6957  0.9729
   29MOL   H53422430   4.611   4.485   0.030 -0.0846  0.6245  1.6868
   29MOL   H53522431   4.787   4.490   7.860 -2.9211  2.0460  0.6984
   29MOL   H53622432   4.821   4.594   8.001  1.2282  0.2554 -1.9539
   29MOL   H53722433   4.615   4.333   7.877  0.8980  0.0031  0.1771
   29MOL   H53822434   4.742   4.243   7.961  0.4140  1.4099 -1.0401
   29MOL   H53922435   4.546   4.128   7.981  1.0138  0.1688 -0.8473
   29MOL   H54022436   4.462   4.263   0.012  1.2135  1.1890  2.2750
   29MOL   H54122437   4.690   4.122   0.170 -0.2503 -1.7407 -2.2230
   29MOL   H54222438   4.481   4.001   0.161 -1.6008  1.5546 -1.8814
   29MOL   H54322439   4.526   4.047   0.319  0.4861 -0.2919  0.3277
   29MOL   H54422440   4.202   4.281   0.102 -1.0570 -0.6468 -0.4649
   29MOL   H54522441   4.000   4.441   0.075  1.1515  0.4341 -0.4240
   29MOL   H54622442   3.936   4.399   0.500  0.4375 -1.3451  0.5590
   29MOL   H54722443   4.153   4.296   0.521 -0.1368 -3.4268 -0.6702
   29MOL   C54822444   3.227   4.654   0.533 -0.6233 -0.1431  0.2433
   29MOL   C54922445   3.382   4.641   0.521 -0.0418 -0.2672 -0.4233
   29MOL   C55022446   3.432   4.507   0.475  0.0085 -0.5504 -0.5526
   29MOL   C55122447   3.584   4.492   0.475 -0.3519  0.2304 -0.5924
   29MOL   O55222448   3.639   4.584   0.382 -0.1501  0.2129  0.7359
   29MOL   C55322449   3.361   4.392   0.549 -0.1003  0.1674  0.2506
   29MOL   C55422450   3.209   4.401   0.554  0.3871 -0.3062 -0.0559
   29MOL   C55522451   3.156   4.534   0.606 -0.3399  0.0384  0.0375
   29MOL   C55622452   3.002   4.550   0.586  0.9656  0.3110  0.4990
   29MOL   O55722453   2.945   4.679   0.621 -0.4231 -0.1407 -0.1901
   29MOL   C55822454   2.812   4.684   0.657  0.2290 -0.2160  0.6806
   29MOL   O55922455   2.739   4.583   0.657 -0.1771  0.2959 -0.0292
   29MOL   C56022456   2.771   4.822   0.699 -0.0250  0.4996 -0.3081
   29MOL   C56122457   2.847   4.940   0.670 -0.2987 -0.0874 -0.1189
   29MOL   C56222458   2.797   5.067   0.682 -0.0755 -0.4507 -0.3809
   29MOL   C56322459   2.667   5.087   0.737  0.2284  0.9037 -0.5786
   29MOL   C56422460   2.616   5.224   0.746  0.1952 -0.2413  0.1465
   29MOL   O56522461   2.636   5.315   0.662  0.1780 -0.3582  0.0680
   29MOL   O56622462   2.548   5.232   0.858 -0.7158  0.2807 -0.1377
   29MOL   C56722463   2.581   4.974   0.766 -0.2657 -0.7205 -0.3127
   29MOL   C56822464   2.637   4.844   0.748  0.7401  0.3228  0.5800
   29MOL   H56922465   3.196   4.748   0.578  1.9035  1.6391 -1.6133
   29MOL   H57022466   3.183   4.663   0.434 -0.0779  1.0907  0.1100
   29MOL   H57122467   3.435   4.718   0.464 -0.6532 -0.1800 -0.8769
   29MOL   H57222468   3.423   4.645   0.622  0.0319 -2.4916 -0.3504
   29MOL   H57322469   3.398   4.501   0.371  2.0274  1.1678 -1.3476
   29MOL   H57422470   3.629   4.508   0.572 -3.1658  0.3440  0.7418
   29MOL   H57522471   3.611   4.392   0.441 -0.3742  0.8831 -2.6173
   29MOL   H57622472   3.389   4.302   0.495  0.5701  1.2178 -1.1829
   29MOL   H57722473   3.395   4.386   0.653  1.9159  3.4076 -0.1457
   29MOL   H57822474   3.162   4.331   0.622  1.0671 -1.3237 -0.6158
   29MOL   H57922475   3.160   4.373   0.461 -1.6345  2.2972  0.1663
   29MOL   H58022476   3.183   4.550   0.710  2.0813 -1.3838 -0.3334
   29MOL   H58122477   2.985   4.528   0.481 -3.2626  0.4556  1.0993
   29MOL   H58222478   2.950   4.473   0.642 -0.8745  0.1478 -1.3776
   29MOL   H58322479   2.946   4.921   0.631 -0.1113  0.2760  0.1750
   29MOL   H58422480   2.861   5.149   0.655  0.1882 -0.1708  1.0889
   29MOL   H58522481   2.476   4.990   0.784 -0.3431 -0.0421 -1.2958
   29MOL   H58622482   2.572   4.758   0.754  2.1200 -1.0273 -2.5153
   29MOL   C58722483   2.334   5.755   0.896  0.2688 -0.4366 -0.2189
   29MOL   C58822484   2.352   5.606   0.931 -0.3161 -0.3654  0.1713
   29MOL   C58922485   2.507   5.574   0.938  0.4990  0.0381 -0.6436
   29MOL   C59022486   2.553   5.434   0.980  0.5170  0.7430 -0.0064
   29MOL   O59122487   2.479   5.355   0.885  0.8589 -0.1986  0.1220
   29MOL   C59222488   2.567   5.609   0.797 -0.0078 -0.3948 -0.4822
   29MOL   C59322489   2.534   5.758   0.762 -0.3844  0.2072  1.1536
   29MOL   C59422490   2.383   5.790   0.755 -0.0102 -0.1570  0.1299
   29MOL   C59522491   2.353   5.932   0.713 -0.5794 -0.2817 -0.2943
   29MOL   O59622492   2.414   5.953   0.585  0.0328  0.1858  0.1206
   29MOL   C59722493   2.426   6.071   0.534 -0.2686 -0.1092 -0.1111
   29MOL   O59822494   2.413   6.175   0.593 -0.6701  0.5549  0.0960
   29MOL   C59922495   2.443   6.067   0.387 -0.3811  0.3615 -0.0668
   29MOL   C60022496   2.442   6.187   0.308  0.1543 -0.7760  0.0048
   29MOL   C60122497   2.463   6.188   0.174 -0.1947 -0.0283 -0.4188
   29MOL   C60222498   2.489   6.067   0.108 -0.1561 -0.3508  0.6289
   29MOL   C60322499   2.524   6.060   7.998  0.5457  0.0915 -0.1110
   29MOL   O60422500   2.547   5.948   7.947 -0.2426  0.0728  0.0356
   29MOL   O60522501   2.537   6.177   7.936 -0.3311  0.2029  0.2893
   29MOL   C60622502   2.494   5.944   0.179 -0.4583 -0.8055  0.1728
   29MOL   C60722503   2.469   5.943   0.317  0.2632 -0.3572  0.3668
   29MOL   H60822504   2.229   5.784   0.891  0.1661 -0.8629 -0.5018
   29MOL   H60922505   2.380   5.815   0.975  1.1368  0.8620 -1.6957
   29MOL   H61022506   2.304   5.568   1.021 -3.7085 -1.9390 -2.2058
   29MOL   H61122507   2.312   5.555   0.844 -1.1754 -1.0457  0.9626
   29MOL   H61222508   2.544   5.640   1.016 -0.8145  0.9615 -0.7862
   29MOL   H61322509   2.661   5.429   0.966  0.4001 -1.4837 -0.2262
   29MOL   H61422510   2.525   5.400   1.079  0.6164  1.7571  0.3815
   29MOL   H61522511   2.675   5.594   0.796  0.5844  3.3713  0.1927
   29MOL   H61622512   2.542   5.549   0.710 -1.1059  0.3481 -0.6912
   29MOL   H61722513   2.586   5.785   0.670  0.8916 -2.1829  1.1357
   29MOL   H61822514   2.563   5.824   0.843 -2.5902  1.4239  0.9810
   29MOL   H61922515   2.331   5.720   0.690 -2.6297  1.4909  0.3751
   29MOL   H62022516   2.244   5.944   0.713 -0.5397  0.1530  0.7517
   29MOL   H62122517   2.398   5.995   0.790 -0.1448 -0.2635 -0.5653
   29MOL   H62222518   2.434   6.284   0.356  1.1811 -0.5806 -0.2258
   29MOL   H62322519   2.460   6.285   0.127 -0.3931 -0.1943 -0.7577
   29MOL   H62422520   2.524   5.847   0.142  2.3892 -1.7428  4.5744
   29MOL   H62522521   2.474   5.854   0.378 -0.0063 -1.0407 -0.5824
   29MOL   C62622522   2.634   6.357   7.412 -0.6151 -0.5627 -0.6958
   29MOL   C62722523   2.629   6.334   7.559 -0.2267 -0.7073  0.1459
   29MOL   C62822524   2.698   6.203   7.597 -0.2147 -0.1213  0.0291
   29MOL   C62922525   2.694   6.185   7.750  0.9198  0.1878 -0.6900
   29MOL   O63022526   2.558   6.165   7.787  0.4036 -0.6078  0.2952
   29MOL   C63122527   2.652   6.083   7.522 -0.4974  0.0064 -0.3403
   29MOL   C63222528   2.666   6.114   7.371  0.5065  0.1334  0.1233
   29MOL   C63322529   2.586   6.236   7.327  0.1160 -0.1561 -0.3156
   29MOL   C63422530   2.604   6.276   7.187  0.9171 -0.6471  0.4444
   29MOL   O63522531   2.612   6.166   7.100 -0.4099 -0.3819 -0.4267
   29MOL   C63622532   2.544   6.163   6.987 -0.3782 -0.7308  0.4631
   29MOL   O63722533   2.482   6.263   6.943 -0.2038  0.2520  0.1446
   29MOL   C63822534   2.552   6.037   6.906  0.6050  0.1957 -0.4551
   29MOL   C63922535   2.447   6.016   6.808  0.2105  0.7516 -0.5446
   29MOL   C64022536   2.451   5.889   6.738  0.2226 -0.2250  0.2909
   29MOL   C64122537   2.553   5.792   6.765 -0.2689 -0.1997  0.5087
   29MOL   C64222538   2.554   5.663   6.696  0.1623 -0.2214  0.0136
   29MOL   O64322539   2.654   5.590   6.700 -0.1860  0.0718 -0.3659
   29MOL   O64422540   2.448   5.643   6.623 -0.7085 -0.1464  0.0214
   29MOL   C64522541   2.645   5.817   6.866 -0.0185 -0.2560 -0.1652
   29MOL   C64622542   2.648   5.936   6.936 -0.0678 -0.1461  0.1144
   29MOL   H64722543   2.580   6.450   7.396 -3.8328 -1.5236  3.6027
   29MOL   H64822544   2.741   6.365   7.389 -0.2220  0.2397  1.3134
   29MOL   H64922545   2.667   6.421   7.612 -1.6671  1.0045 -1.5939
   29MOL   H65022546   2.522   6.338   7.582  0.3894  0.9283  2.9798
   29MOL   H65122547   2.801   6.215   7.563 -0.0282  0.7397  0.8718
   29MOL   H65222548   2.752   6.103   7.793  0.5357  0.3045  0.0755
   29MOL   H65322549   2.718   6.281   7.796 -0.4162  0.5103 -0.6588
   29MOL   H65422550   2.706   5.990   7.538 -0.7286 -0.2492 -1.0143
   29MOL   H65522551   2.545   6.066   7.540  0.0165 -0.0228  3.0399
   29MOL   H65622552   2.652   6.019   7.319  0.7302  0.8124 -1.1796
   29MOL   H65722553   2.769   6.137   7.344  0.1727 -0.3517 -1.6009
   29MOL   H65822554   2.480   6.220   7.348 -0.2054  0.6390 -1.2947
   29MOL   H65922555   2.528   6.349   7.159 -0.4507 -2.3424 -0.3962
   29MOL   H66022556   2.703   6.321   7.182  0.5333  0.2979  1.2326
   29MOL   H66122557   2.364   6.080   6.786  0.7447  0.7159 -2.8678
   29MOL   H66222558   2.370   5.866   6.670 -1.0242  0.7888  1.3860
   29MOL   H66322559   2.719   5.739   6.881  0.3158  0.3986  1.6028
   29MOL   H66422560   2.727   5.963   7.004  0.6573  0.4924 -0.9752
   29MOL   C66522561   2.699   5.370   6.161 -0.2566 -0.4694 -0.2432
   29MOL   C66622562   2.674   5.468   6.272 -0.6566  0.2785 -0.5908
   29MOL   C66722563   2.527   5.509   6.273  0.1481 -0.1321 -0.0541
   29MOL   C66822564   2.486   5.605   6.386 -0.7331 -0.1752 -0.3155
   29MOL   O66922565   2.478   5.538   6.511 -0.2819 -0.1980 -0.4147
   29MOL   C67022566   2.500   5.572   6.135 -0.0021 -0.3846  0.3420
   29MOL   C67122567   2.518   5.467   6.029  0.0765  0.0192 -0.0730
   29MOL   C67222568   2.664   5.423   6.026 -0.0238 -1.1371  0.3073
   29MOL   C67322569   2.697   5.333   5.904 -0.7810 -0.4717  0.5251
   29MOL   O67422570   2.599   5.231   5.883 -0.0560 -0.2048 -0.3127
   29MOL   C67522571   2.593   5.167   5.757 -0.1672  0.7199 -0.4623
   29MOL   O67622572   2.683   5.180   5.668 -0.4713  0.0816 -0.4924
   29MOL   C67722573   2.467   5.090   5.726 -0.1567 -0.6519 -1.1748
   29MOL   C67822574   2.441   5.034   5.597 -0.0700  0.3964  0.5551
   29MOL   C67922575   2.324   4.967   5.571  0.1385  0.1069 -0.2853
   29MOL   C68022576   2.226   4.954   5.670 -0.1882  0.1005  0.4732
   29MOL   C68122577   2.104   4.873   5.640 -0.5978 -0.1946 -0.2437
   29MOL   O68222578   2.071   4.837   5.522  0.5812  0.5662 -0.1123
   29MOL   O68322579   2.023   4.835   5.743 -0.4118  0.8427  0.5813
   29MOL   C68422580   2.245   5.011   5.798  0.5640 -0.6951 -0.2370
   29MOL   C68522581   2.369   5.069   5.823 -0.2497  0.3448 -0.4436
   29MOL   H68622582   2.806   5.349   6.164 -0.5792 -2.1329  0.3770
   29MOL   H68722583   2.650   5.275   6.182 -1.0483 -0.2033 -0.8975
   29MOL   H68822584   2.699   5.424   6.368  0.8401  1.6995 -0.3110
   29MOL   H68922585   2.736   5.558   6.276  0.4483 -0.5310  1.2405
   29MOL   H69022586   2.479   5.412   6.287  0.4032 -0.0007  1.7385
   29MOL   H69122587   2.555   5.689   6.385 -0.2750 -0.5265  1.2797
   29MOL   H69222588   2.387   5.646   6.367 -0.2569  0.6200 -1.1396
   29MOL   H69322589   2.400   5.615   6.124  0.0720  0.0882  1.4780
   29MOL   H69422590   2.570   5.655   6.127 -0.2553  0.3333  4.7129
   29MOL   H69522591   2.494   5.501   5.928 -0.7753  1.6342  0.6534
   29MOL   H69622592   2.457   5.381   6.057  0.8932  0.8290  4.5615
   29MOL   H69722593   2.732   5.506   6.011  1.5805 -2.4750 -0.0234
   29MOL   H69822594   2.696   5.402   5.820  0.2651 -0.5927  0.3987
   29MOL   H69922595   2.794   5.285   5.919  0.7480  1.8266 -1.5765
   29MOL   H70022596   2.523   5.043   5.527  0.3672  1.9877  1.2513
   29MOL   H70122597   2.311   4.913   5.478  0.6001  1.7149 -1.2903
   29MOL   H70222598   2.175   4.996   5.879 -1.2465 -1.4959 -1.9299
   29MOL   H70322599   2.390   5.096   5.925  0.5929 -0.5500 -0.3721
   29MOL   C70422600   1.601   4.611   5.438 -0.3692  0.3051 -0.6381
   29MOL   C70522601   1.742   4.655   5.502 -0.9314  0.1239  0.0820
   29MOL   C70622602   1.791   4.573   5.620 -0.1603  0.0602 -0.4918
   29MOL   C70722603   1.920   4.628   5.680 -0.0368  0.0605  0.2913
   29MOL   O70822604   1.897   4.768   5.698  0.2779 -0.2771 -0.2166
   29MOL   C70922605   1.677   4.567   5.725 -0.4557  0.5889 -0.3385
   29MOL   C71022606   1.540   4.525   5.671  0.1947 -0.9910  0.5174
   29MOL   C71122607   1.496   4.620   5.549  0.5471 -0.3409  0.7757
   29MOL   C71222608   1.365   4.581   5.492 -0.2735  0.4186 -0.3944
   29MOL   O71322609   1.361   4.467   5.406  0.2324  0.5025  0.0213
   29MOL   C71422610   1.334   4.345   5.464  0.3140 -0.2920 -0.1292
   29MOL   O71522611   1.304   4.329   5.582  0.7008  0.0811  0.2047
   29MOL   C71622612   1.342   4.235   5.369  0.3843 -0.3917 -0.3630
   29MOL   C71722613   1.406   4.257   5.249  0.1820 -0.5373  0.3774
   29MOL   C71822614   1.424   4.150   5.161  0.5739  0.7668  0.1051
   29MOL   C71922615   1.360   4.023   5.194 -0.6683 -0.4392  0.1183
   29MOL   C72022616   1.393   3.903   5.113 -0.5044  0.2889 -0.2604
   29MOL   O72122617   1.375   3.789   5.153 -0.2407  0.2369 -0.1070
   29MOL   O72222618   1.434   3.930   4.986  0.3742  0.3699  0.0063
   29MOL   C72322619   1.294   4.005   5.318  0.6214 -0.3460 -0.9116
   29MOL   C72422620   1.282   4.109   5.408  0.1471 -0.4029  0.2412
   29MOL   H72522621   1.574   4.676   5.355 -2.8284 -0.8204 -0.7679
   29MOL   H72622622   1.609   4.511   5.396 -0.2991  0.3355 -0.6975
   29MOL   H72722623   1.825   4.641   5.433  0.6945 -1.9607  2.3171
   29MOL   H72822624   1.732   4.760   5.527  1.1066  0.4353 -0.2843
   29MOL   H72922625   1.816   4.471   5.590 -1.3837 -0.2630 -0.4429
   29MOL   H73022626   1.949   4.576   5.771  0.9630  1.0938  0.5637
   29MOL   H73122627   1.996   4.611   5.604  0.8357  1.7989  0.7531
   29MOL   H73222628   1.699   4.491   5.800  0.1997 -2.8246 -3.7983
   29MOL   H73322629   1.677   4.656   5.787  0.0876 -1.4869  2.7597
   29MOL   H73422630   1.474   4.539   5.757  1.4821  0.5328  1.2782
   29MOL   H73522631   1.550   4.420   5.644  1.7964 -0.9722  1.0434
   29MOL   H73622632   1.482   4.726   5.570 -0.6229 -0.0643 -1.2562
   29MOL   H73722633   1.299   4.570   5.578 -0.0670  2.2540  0.0075
   29MOL   H73822634   1.321   4.661   5.434  0.4714  0.3655 -1.0441
   29MOL   H73922635   1.461   4.346   5.224  0.1962 -0.9267 -1.0216
   29MOL   H74022636   1.485   4.153   5.072  0.5218  0.9900  0.0752
   29MOL   H74122637   1.251   3.910   5.348 -0.2112  0.7514  1.4859
   29MOL   H74222638   1.264   4.091   5.513 -1.0272 -1.0885 -0.0690
   29MOL   C74322639   1.661   3.449   4.669 -0.3112  0.4164  0.5516
   29MOL   C74422640   1.660   3.549   4.786 -0.7883 -0.1018 -0.2729
   29MOL   C74522641   1.527   3.631   4.780 -0.1386 -0.2863  0.4094
   29MOL   C74622642   1.537   3.759   4.872  0.6516 -0.3197  0.2126
   29MOL   O74722643   1.414   3.822   4.889  0.6454 -0.7148  0.3148
   29MOL   C74822644   1.490   3.691   4.638  0.3088  0.3655 -0.2918
   29MOL   C74922645   1.489   3.577   4.539  0.3015 -0.4481  0.2171
   29MOL   C75022646   1.629   3.505   4.536  0.6296 -0.0602  1.1284
   29MOL   C75122647   1.635   3.397   4.435 -0.5135  0.3413 -0.3786
   29MOL   O75222648   1.621   3.448   4.308  0.0824 -0.5898 -0.5556
   29MOL   C75322649   1.528   3.406   4.223 -0.6561  0.6449 -0.7439
   29MOL   O75422650   1.456   3.313   4.255 -0.5376 -0.1751  0.0600
   29MOL   C75522651   1.529   3.479   4.095 -0.8351 -0.4495 -0.7629
   29MOL   C75622652   1.595   3.604   4.081  0.6755  0.0359 -0.1264
   29MOL   C75722653   1.584   3.684   3.962  0.2999 -0.4276 -0.2675
   29MOL   C75822654   1.524   3.623   3.850 -0.2224  0.3997  0.6200
   29MOL   C75922655   1.542   3.686   3.717  0.0444 -0.0618 -0.3244
   29MOL   O76022656   1.559   3.807   3.700 -0.0785 -0.2725  0.5301
   29MOL   O76122657   1.533   3.602   3.615  0.3708  0.1066 -0.0992
   29MOL   C76222658   1.469   3.492   3.863 -0.2329  0.2976  0.1186
   29MOL   C76322659   1.459   3.427   3.986  0.1827  0.1062 -0.2987
   29MOL   H76422660   1.760   3.406   4.679 -0.3308  0.2761  0.1471
   29MOL   H76522661   1.587   3.375   4.698 -0.7651  1.0565  1.0562
   29MOL   H76622662   1.660   3.486   4.875  0.4237 -0.4233 -0.4908
   29MOL   H76722663   1.746   3.616   4.791  0.6139 -1.9866  2.1233
   29MOL   H76822664   1.449   3.569   4.826  0.7104 -3.0281 -1.6970
   29MOL   H76922665   1.581   3.742   4.971  0.5579 -0.5517  0.2162
   29MOL   H77022666   1.614   3.819   4.824  0.3837  3.1904  3.8499
   29MOL   H77122667   1.395   3.744   4.633  0.1542  0.1765  0.5491
   29MOL   H77222668   1.561   3.770   4.615  1.1953 -0.0918  0.8085
   29MOL   H77322669   1.463   3.632   4.449  0.0734  0.6922  0.9668
   29MOL   H77422670   1.403   3.511   4.551 -0.1291 -0.0279 -0.5441
   29MOL   H77522671   1.705   3.582   4.518  2.5662 -1.9192  1.2035
   29MOL   H77622672   1.736   3.356   4.433 -0.5621  0.1218  1.0954
   29MOL   H77722673   1.564   3.323   4.474 -1.2138  1.0407 -0.3086
   29MOL   H77822674   1.650   3.639   4.167 -1.3252 -1.6908  1.9246
   29MOL   H77922675   1.613   3.789   3.960  1.7038 -0.8056 -1.0097
   29MOL   H78022676   1.441   3.437   3.775  1.1094 -0.2685  0.0491
   29MOL   H78122677   1.403   3.337   4.007  1.6267 -0.2317  2.2911
   29MOL   H78222678   1.564   3.645   3.537 -1.4426  0.3546 -0.7047
   30MOL     C122679   2.809   6.906   7.120 -0.2708  1.3129  0.0609
   30MOL     C222680   2.904   6.869   7.228  0.6458  0.0206 -0.0082
   30MOL     C322681   2.933   6.716   7.240  0.3292  0.1493 -0.1690
   30MOL     C422682   3.027   6.703   7.356 -0.0478 -0.9347 -0.1587
   30MOL     O522683   3.059   6.567   7.378  0.2278 -0.4087 -0.5217
   30MOL     C622684   2.797   6.658   7.273 -0.4623  0.0713  0.1924
   30MOL     C722685   2.705   6.677   7.154  0.0997 -0.4508 -0.4743
   30MOL     C822686   2.675   6.828   7.117 -0.2159  0.2440 -0.4839
   30MOL     C922687   2.604   6.848   6.985 -0.2231  0.3250  0.3071
   30MOL    O1022688   2.554   6.974   6.954 -0.1124  0.5262 -0.0618
   30MOL    C1122689   2.614   7.053   6.855 -0.8325  0.0690 -0.5880
   30MOL    O1222690   2.710   7.009   6.789  0.1484 -0.5688  0.2407
   30MOL    C1322691   2.544   7.184   6.831  0.2776 -0.0034  0.3848
   30MOL    C1422692   2.586   7.271   6.730 -0.0181  0.2555  0.9194
   30MOL    C1522693   2.539   7.406   6.711 -0.3585 -0.1397  0.5175
   30MOL    C1622694   2.432   7.445   6.796  0.3167 -0.2325 -0.0079
   30MOL    C1722695   2.375   7.584   6.768 -0.0338 -0.2319  0.0092
   30MOL    O1822696   2.441   7.668   6.705 -0.0537  0.9578 -0.0430
   30MOL    O1922697   2.258   7.604   6.821 -0.0405 -0.0310 -0.2571
   30MOL    C2022698   2.387   7.362   6.900 -0.3166 -0.2371 -0.4075
   30MOL    C2122699   2.441   7.230   6.919  0.5145 -0.6629 -0.1753
   30MOL    H2222700   2.785   7.012   7.129 -2.6141  0.7076  1.4963
   30MOL    H2322701   2.860   6.906   7.024  0.4570  2.0721  0.4420
   30MOL    H2422702   2.989   6.934   7.207  1.3401 -1.0322 -0.5436
   30MOL    H2522703   2.852   6.897   7.319  2.5525 -0.4214  1.2533
   30MOL    H2622704   2.974   6.675   7.147  0.2957  2.1475 -1.0904
   30MOL    H2722705   3.112   6.762   7.321 -0.5653  0.6249  1.1543
   30MOL    H2822706   2.974   6.746   7.441 -1.4306 -0.5342 -1.1902
   30MOL    H2922707   2.797   6.553   7.305 -1.7615  0.1585  0.4805
   30MOL    H3022708   2.757   6.715   7.357 -0.5641  0.7085 -0.2849
   30MOL    H3122709   2.608   6.628   7.161  0.4641 -1.2488 -0.9448
   30MOL    H3222710   2.759   6.623   7.077  0.3471  1.2437 -1.5305
   30MOL    H3322711   2.604   6.855   7.196 -0.6686  0.6805 -1.0342
   30MOL    H3422712   2.668   6.803   6.909 -0.2379  0.3079  0.3055
   30MOL    H3522713   2.517   6.782   6.990  0.1287 -0.1100  0.7016
   30MOL    H3622714   2.667   7.253   6.661  1.2655  0.4931  2.3366
   30MOL    H3722715   2.591   7.467   6.639 -3.7464  0.6782 -1.3352
   30MOL    H3822716   2.303   7.396   6.958  1.6081  0.9710  1.7368
   30MOL    H3922717   2.411   7.173   7.006 -1.3972 -0.4697 -0.6859
   30MOL    H4022718   3.093   6.564   7.466  1.4481  2.6518 -0.8229
   30MOL    C4122719   1.921   0.029   6.563  1.1078  0.7987  0.9935
   30MOL    C4222720   2.008   7.940   6.556  0.4213 -0.3724  0.2870
   30MOL    C4322721   2.076   7.911   6.689  0.8135 -0.0641 -0.6864
   30MOL    C4422722   2.147   7.771   6.686 -0.0473  0.0447  0.3318
   30MOL    O4522723   2.217   7.753   6.812  0.1460 -0.0261  0.7656
   30MOL    C4622724   2.168   8.030   6.725 -0.3012  0.4091 -0.5216
   30MOL    C4722725   2.088   0.121   6.732 -0.6722 -0.0326 -1.4572
   30MOL    C4822726   2.012   0.146   6.602 -0.4439 -0.7292  0.3844
   30MOL    C4922727   1.927   0.276   6.603  0.9003 -0.0651  0.1072
   30MOL    O5022728   1.824   0.268   6.705 -0.4512  0.3663  0.8690
   30MOL    C5122729   1.768   0.381   6.752 -1.5360 -0.4321  0.3249
   30MOL    O5222730   1.813   0.489   6.719 -0.1972 -0.1535 -0.4214
   30MOL    C5322731   1.648   0.362   6.843  0.4676 -0.6017  0.0793
   30MOL    C5422732   1.577   0.474   6.899  0.1472  0.2514  0.4193
   30MOL    C5522733   1.472   0.443   6.989 -0.0255  1.2689  0.0799
   30MOL    C5622734   1.441   0.307   7.026 -0.3693 -0.4111 -0.3064
   30MOL    C5722735   1.334   0.282   7.129 -0.5654  0.0131  0.7707
   30MOL    O5822736   1.300   0.167   7.165  0.2933  0.1290 -0.5112
   30MOL    O5922737   1.278   0.394   7.189 -0.3526  0.0632  0.5735
   30MOL    C6022738   1.522   0.206   6.981  0.0959 -0.2658  0.6600
   30MOL    C6122739   1.618   0.230   6.888 -0.3788 -0.0097  0.5696
   30MOL    H6222740   1.874   0.031   6.465 -0.2002 -1.6666  1.5170
   30MOL    H6322741   1.840   0.017   6.635 -0.4761  0.2279 -0.8277
   30MOL    H6422742   1.956   7.855   6.513  1.2510 -0.2628 -0.9751
   30MOL    H6522743   2.088   7.963   6.485 -1.2352  1.6480 -0.9959
   30MOL    H6622744   2.000   7.901   6.766 -0.3331 -2.7027 -2.0719
   30MOL    H6722745   2.074   7.691   6.680  2.4532 -2.3220  0.7453
   30MOL    H6822746   2.212   7.760   6.599 -0.1906  1.1782  0.0697
   30MOL    H6922747   2.213   8.015   6.823  0.4100  1.6196 -0.6489
   30MOL    H7022748   2.246   8.031   6.648  0.7225  0.7872  0.5005
   30MOL    H7122749   2.146   0.212   6.740 -1.3661  0.1996  1.8789
   30MOL    H7222750   2.016   0.130   6.813 -0.3375 -1.7085 -0.9534
   30MOL    H7322751   2.093   0.154   6.529 -1.5962 -0.1135 -0.8415
   30MOL    H7422752   1.983   0.368   6.619 -0.4302  0.7728 -0.0112
   30MOL    H7522753   1.878   0.285   6.506 -0.1154  0.2573  0.6387
   30MOL    H7622754   1.595   0.572   6.857 -0.5948  1.1564  2.1740
   30MOL    H7722755   1.406   0.523   7.020 -0.4298  0.1959  2.0391
   30MOL    H7822756   1.502   0.103   7.008 -0.6051 -0.6182 -1.1017
   30MOL    H7922757   1.667   0.150   6.836 -0.1288  1.2981 -1.2540
   30MOL    C8022758   0.796   0.345   7.549  0.8654 -0.6778  0.1866
   30MOL    C8122759   0.906   0.372   7.444  0.1305 -0.6602  0.5938
   30MOL    C8222760   1.038   0.297   7.471 -0.5757 -0.0992 -0.2483
   30MOL    C8322761   1.152   0.365   7.393  0.7527 -0.8486  0.1595
   30MOL    O8422762   1.144   0.367   7.251  0.9935 -0.3940 -0.6076
   30MOL    C8522763   1.087   0.296   7.621 -0.3707 -0.3604  0.3491
   30MOL    C8622764   0.974   0.269   7.719  0.0510 -0.7961  0.1675
   30MOL    C8722765   0.855   0.366   7.693  0.2848 -0.1494  0.3617
   30MOL    C8822766   0.742   0.345   7.793  0.0849 -0.2320 -0.2292
   30MOL    O8922767   0.679   0.475   7.796 -0.0620  0.3477  0.1250
   30MOL    C9022768   0.569   0.491   7.875  0.8787  0.0521 -0.4767
   30MOL    O9122769   0.530   0.403   7.956 -0.5514 -0.1794  0.8375
   30MOL    C9222770   0.509   0.633   7.867  0.1180  0.6085  0.2724
   30MOL    C9322771   0.397   0.670   7.950 -0.1837  0.3966 -0.2491
   30MOL    C9422772   0.358   0.803   7.965 -0.1099 -0.6001  0.2638
   30MOL    C9522773   0.416   0.903   7.894 -0.4867  0.0439 -0.1837
   30MOL    C9622774   0.389   1.048   7.918  0.5277  1.0039  0.2136
   30MOL    O9722775   0.484   1.130   7.905 -0.0871 -0.0895  0.8103
   30MOL    O9822776   0.260   1.080   7.955 -0.3558 -0.9020 -0.3620
   30MOL    C9922777   0.512   0.866   7.792 -0.4200 -0.0792 -0.4107
   30MOL   C10022778   0.556   0.736   7.777 -0.5520 -0.8740 -0.4071
   30MOL   H10122779   0.713   0.415   7.536  1.8769  0.4741 -0.2399
   30MOL   H10222780   0.744   0.252   7.526 -0.0370 -0.0701 -0.2615
   30MOL   H10322781   0.876   0.354   7.341 -0.4257  2.1103  0.2207
   30MOL   H10422782   0.930   0.478   7.453  0.1214 -0.6549  0.5563
   30MOL   H10522783   1.036   0.193   7.439 -2.5887 -0.3976  0.7537
   30MOL   H10622784   1.169   0.466   7.431 -1.8527  0.8899 -3.0213
   30MOL   H10722785   1.239   0.306   7.421  1.1118 -0.4850 -0.1884
   30MOL   H10822786   1.172   0.229   7.637 -0.1365  0.0361  0.7705
   30MOL   H10922787   1.120   0.397   7.648 -0.7897 -0.2382  0.3947
   30MOL   H11022788   1.017   0.297   7.815  1.4712  0.4086 -0.8072
   30MOL   H11122789   0.936   0.167   7.715  0.9847 -1.0995 -1.2160
   30MOL   H11222790   0.883   0.471   7.688  0.3040 -0.2360 -1.8416
   30MOL   H11322791   0.673   0.270   7.755 -0.7787  0.3614  0.1450
   30MOL   H11422792   0.776   0.313   7.891  0.4822  0.6468 -0.0708
   30MOL   H11522793   0.358   0.599   8.022 -1.6672 -0.2588 -1.6599
   30MOL   H11622794   0.280   0.835   8.032  1.6287  0.2912  1.8822
   30MOL   H11722795   0.545   0.942   7.724 -1.5037  1.9095  1.2427
   30MOL   H11822796   0.645   0.710   7.721 -0.5414 -0.1768 -0.7180
   30MOL   C11922797   0.083   1.633   7.977 -0.2472  0.3166 -0.2966
   30MOL   C12022798   0.079   1.479   7.957  0.1189  0.4314 -0.0384
   30MOL   C12122799   0.197   1.431   7.870  0.2819  0.0577 -1.0986
   30MOL   C12222800   0.192   1.281   7.865 -0.1409  0.0972  0.0971
   30MOL   O12322801   0.236   1.224   7.982  0.2900 -0.2186  0.1593
   30MOL   C12422802   0.187   1.506   7.738 -0.0304 -0.2660  0.1807
   30MOL   C12522803   0.177   1.660   7.746 -0.4753 -0.2179  0.5277
   30MOL   C12622804   0.062   1.705   7.841 -1.1816 -0.9745  0.2158
   30MOL   C12722805   0.056   1.857   7.849  0.3315  0.2628  0.1057
   30MOL   O12822806   0.047   1.907   7.715  0.5197  0.7156  0.0837
   30MOL   C12922807   7.970   1.951   7.669 -0.2422 -1.0141 -0.3312
   30MOL   O13022808   7.871   1.971   7.744 -0.0027 -0.4161  0.5213
   30MOL   C13122809   7.977   1.983   7.520  0.2727  0.5389  0.1749
   30MOL   C13222810   7.855   2.028   7.460 -0.1461  0.0664 -0.2746
   30MOL   C13322811   7.862   2.078   7.330 -0.3250  0.0294 -0.3428
   30MOL   C13422812   7.978   2.063   7.256  0.6099  0.2046 -0.2090
   30MOL   C13522813   7.974   2.100   7.110  0.0504 -0.1149 -0.5372
   30MOL   O13622814   0.041   2.101   7.045  0.5563  0.3097 -0.4991
   30MOL   O13722815   7.851   2.124   7.063  0.2293 -0.2211  0.4314
   30MOL   C13822816   0.062   2.020   7.320 -0.0262 -0.2975 -0.0848
   30MOL   C13922817   0.068   1.978   7.450 -0.4521  0.7155 -0.5172
   30MOL   H14022818   8.035   1.656   0.008 -0.0911 -0.0435  0.0244
   30MOL   H14122819   0.173   1.662   8.031 -0.3841  0.4938 -0.1635
   30MOL   H14222820   0.085   1.426   0.017  1.1690  2.8676  1.2839
   30MOL   H14322821   8.020   1.452   7.909  0.9073 -0.7124 -0.9675
   30MOL   H14422822   0.285   1.474   7.920  0.0287 -1.4311  0.6972
   30MOL   H14522823   0.091   1.249   7.840 -0.7555  0.2216  2.3523
   30MOL   H14622824   0.265   1.249   7.790 -0.8459 -2.5088  0.5030
   30MOL   H14722825   0.271   1.477   7.674 -0.7486 -2.8691  0.3354
   30MOL   H14822826   0.095   1.473   7.690 -0.3414  0.4611  0.2814
   30MOL   H14922827   0.169   1.700   7.645  1.2001  0.4797  0.6682
   30MOL   H15022828   0.270   1.704   7.780  0.7440 -1.1903 -1.4986
   30MOL   H15122829   8.002   1.667   7.805 -1.2702 -0.9950  0.4675
   30MOL   H15222830   8.027   1.901   7.925 -0.8209 -1.1263 -0.0342
   30MOL   H15322831   0.156   1.895   7.870 -0.4502  1.1050  2.4212
   30MOL   H15422832   7.765   2.026   7.520  0.8578  0.2981  1.2592
   30MOL   H15522833   7.763   2.106   7.299 -0.0840  0.6852 -0.5338
   30MOL   H15622834   0.159   2.026   7.273  1.3422  0.4125  2.7448
   30MOL   H15722835   0.162   1.971   7.502 -0.8156  2.0944  0.3410
   30MOL   C15822836   8.010   2.000   6.542  1.1685  0.0502 -0.5143
   30MOL   C15922837   7.973   2.041   6.681  0.3983 -0.2944  0.1300
   30MOL   C16022838   7.880   2.165   6.692 -0.6697  0.2154 -0.5429
   30MOL   C16122839   7.849   2.206   6.839  0.5585  0.2598 -0.0986
   30MOL   O16222840   7.836   2.087   6.920 -0.5924  0.6097  0.0051
   30MOL   C16322841   7.947   2.277   6.607 -0.2145  0.0581  0.2586
   30MOL   C16422842   7.957   2.224   6.462  0.6093 -0.9290  0.3377
   30MOL   C16522843   0.022   2.114   6.449  0.2941  0.2897 -0.3052
   30MOL   C16622844   0.040   2.070   6.306  0.1737 -0.8826  0.5325
   30MOL   O16722845   0.121   2.157   6.228  0.0087  0.3514  0.4591
   30MOL   C16822846   0.257   2.144   6.224  0.1476  0.2206  0.3061
   30MOL   O16922847   0.318   2.049   6.273  0.3992  0.3647  0.4350
   30MOL   C17022848   0.310   2.247   6.129 -0.8650 -0.5512 -0.7500
   30MOL   C17122849   0.448   2.248   6.107  0.1001 -0.1983  0.0007
   30MOL   C17222850   0.510   2.340   6.020 -0.0106  0.0943  0.2819
   30MOL   C17322851   0.428   2.442   5.961 -0.3561  0.1768  0.3689
   30MOL   C17422852   0.492   2.549   5.881 -0.1060 -0.4128 -0.4895
   30MOL   O17522853   0.598   2.535   5.818 -0.3029  0.4250  0.5477
   30MOL   O17622854   0.421   2.667   5.867 -0.4006 -0.3451 -0.1370
   30MOL   C17722855   0.292   2.441   5.996  0.3429 -0.9463 -0.4788
   30MOL   C17822856   0.228   2.340   6.065  0.8381 -0.1820  0.1464
   30MOL   H17922857   0.045   1.917   6.544 -1.7646 -2.5104  1.5704
   30MOL   H18022858   7.914   1.962   6.507  0.3001 -0.0597  1.8823
   30MOL   H18122859   7.915   1.961   6.729  0.5538 -0.0290  0.7679
   30MOL   H18222860   0.018   2.042   6.755  0.4876 -0.9327  0.0481
   30MOL   H18322861   7.787   2.133   6.644 -0.2495 -0.5466 -0.8502
   30MOL   H18422862   7.921   2.277   6.880 -0.0451  0.6821  0.2428
   30MOL   H18522863   7.761   2.270   6.843  0.3669  0.0310 -0.5665
   30MOL   H18622864   7.886   2.367   6.607 -0.1280  0.1655 -2.9254
   30MOL   H18722865   0.010   2.300   6.647 -1.3893  2.1303  2.1308
   30MOL   H18822866   7.992   2.306   6.399  1.7879 -1.9057 -0.3048
   30MOL   H18922867   7.864   2.184   6.423  0.4522  1.5794 -2.1046
   30MOL   H19022868   0.117   2.150   6.488 -0.8308  0.3404  2.5380
   30MOL   H19122869   0.057   1.963   6.291 -1.6493 -1.5152  2.7527
   30MOL   H19222870   7.975   2.074   6.263 -0.0145  1.6201  1.1393
   30MOL   H19322871   0.517   2.184   6.161 -0.4335  0.2565  1.2336
   30MOL   H19422872   0.617   2.334   6.007 -0.1862 -1.4068 -0.5377
   30MOL   H19522873   0.221   2.510   5.953  1.3751  2.2453  2.7268
   30MOL   H19622874   0.120   2.338   6.072  0.9762 -2.7364  2.1177
   30MOL   C19722875   0.587   3.031   5.436 -0.4594  0.2059  0.5060
   30MOL   C19822876   0.517   2.980   5.561 -0.2599 -0.2786 -0.2863
   30MOL   C19922877   0.612   2.913   5.661 -0.0932 -0.3863  0.3112
   30MOL   C20022878   0.546   2.853   5.786 -0.1002 -0.7796  0.0840
   30MOL   O20122879   0.457   2.749   5.745 -0.5616 -0.2620 -0.5251
   30MOL   C20222880   0.689   2.804   5.587 -0.9450  0.6797  0.5375
   30MOL   C20322881   0.748   2.844   5.455  0.7859  0.0568  0.5661
   30MOL   C20422882   0.654   2.912   5.356 -0.0093  0.1094  0.1845
   30MOL   C20522883   0.722   2.937   5.221  0.4074  0.1849  0.3474
   30MOL   O20622884   0.617   2.959   5.125 -0.4255  0.2375  0.1638
   30MOL   C20722885   0.652   3.011   5.000 -0.1496  0.0713  0.0038
   30MOL   O20822886   0.766   3.029   4.958 -0.1588 -0.0120  0.4573
   30MOL   C20922887   0.533   3.040   4.923  0.1560  0.8222  0.4909
   30MOL   C21022888   0.536   3.109   4.800  0.0517  0.2096 -0.5497
   30MOL   C21122889   0.420   3.131   4.721  0.2340 -0.1809 -0.3205
   30MOL   C21222890   0.295   3.083   4.768  0.5341  0.3761  0.1946
   30MOL   C21322891   0.168   3.114   4.704  0.2925  0.5975 -0.1367
   30MOL   O21422892   0.067   3.050   4.733 -0.3162  0.0945 -0.2588
   30MOL   O21522893   0.175   3.212   4.611  0.2354  0.2552 -0.1800
   30MOL   C21622894   0.290   3.015   4.892  0.2047 -0.5397  0.2853
   30MOL   C21722895   0.406   2.993   4.967 -0.2391 -0.9757  0.0856
   30MOL   H21822896   0.510   3.068   5.368 -1.1726 -0.8287  0.7428
   30MOL   H21922897   0.655   3.117   5.438 -0.7530  0.4443  0.1539
   30MOL   H22022898   0.454   3.061   5.600 -0.9586 -1.1281  0.3754
   30MOL   H22122899   0.436   2.910   5.538  0.1897 -0.9936  0.3105
   30MOL   H22222900   0.690   2.987   5.680  0.9736 -1.5245  0.4155
   30MOL   H22322901   0.624   2.805   5.846 -2.6695 -5.0896  0.1939
   30MOL   H22422902   0.495   2.924   5.850  0.0554  0.2212 -0.8749
   30MOL   H22522903   0.774   2.768   5.646  0.5115  2.9104 -0.1266
   30MOL   H22622904   0.632   2.713   5.574 -0.7184  0.7619 -1.0884
   30MOL   H22722905   0.795   2.758   5.409 -0.3393 -0.7984  0.9825
   30MOL   H22822906   0.836   2.901   5.485  0.5216  0.4687  0.5697
   30MOL   H22922907   0.587   2.828   5.342  0.4038 -0.4187  1.3368
   30MOL   H23022908   0.790   3.022   5.231  2.1298 -1.2764  1.3601
   30MOL   H23122909   0.782   2.860   5.172  0.9525  1.9335 -1.7787
   30MOL   H23222910   0.634   3.142   4.768 -0.0550  2.4027  1.2450
   30MOL   H23322911   0.430   3.182   4.627 -0.2632 -1.5143 -1.1062
   30MOL   H23422912   0.199   2.978   4.937  0.7957 -0.9695  1.1429
   30MOL   H23522913   0.394   2.927   5.051  0.7504 -2.6652 -1.0657
   30MOL   C23622914   7.790   3.376   4.890 -0.0633  0.8062 -0.3029
   30MOL   C23722915   7.930   3.342   4.823  0.0119 -0.5797  0.3863
   30MOL   C23822916   7.958   3.441   4.705 -0.3055 -0.0822  0.3203
   30MOL   C23922917   0.057   3.412   4.642  0.1967  0.4747  0.0247
   30MOL   O24022918   0.045   3.285   4.582 -0.2200  0.4278  0.0932
   30MOL   C24122919   7.843   3.427   4.603  0.3797 -0.1910 -0.1580
   30MOL   C24222920   7.710   3.450   4.666 -0.6813 -0.3503  0.4653
   30MOL   C24322921   7.682   3.365   4.793  0.0550 -0.0860  0.6523
   30MOL   C24422922   7.545   3.395   4.861  1.2094  0.1619 -0.5906
   30MOL   O24522923   7.430   3.364   4.784 -0.0711 -0.0666  0.2477
   30MOL   C24622924   7.393   3.234   4.774 -0.3841  0.0548  0.5916
   30MOL   O24722925   7.453   3.136   4.820  0.3134  0.4779  1.1354
   30MOL   C24822926   7.253   3.223   4.728  0.3837 -0.2898  0.6436
   30MOL   C24922927   7.203   3.315   4.632 -0.4871 -0.0845  0.6348
   30MOL   C25022928   7.067   3.312   4.593  0.4177  1.0939  0.1376
   30MOL   C25122929   6.979   3.218   4.650 -0.2639 -0.8656  0.8006
   30MOL   C25222930   6.837   3.205   4.601  0.2217 -0.7034  0.5643
   30MOL   O25322931   6.790   3.277   4.511 -0.7385  0.2149 -0.7141
   30MOL   O25422932   6.764   3.113   4.672 -0.2059  0.1925 -0.0226
   30MOL   C25522933   7.030   3.126   4.747 -0.4796 -0.2542  0.2096
   30MOL   C25622934   7.166   3.130   4.789  0.4001 -0.1675 -0.8768
   30MOL   H25722935   7.775   3.318   4.981 -4.0304  2.5569  0.2885
   30MOL   H25822936   7.786   3.481   4.917  0.0813  0.4443  1.1877
   30MOL   H25922937   7.991   3.358   4.911 -0.4664  0.1365  0.5905
   30MOL   H26022938   7.936   3.241   4.783 -0.0721 -0.3712 -0.1660
   30MOL   H26122939   7.949   3.541   4.747 -1.0204 -0.0529  0.1051
   30MOL   H26222940   0.077   3.490   4.567 -0.9075 -1.2901 -2.1643
   30MOL   H26322941   0.132   3.407   4.720  0.7809  1.0731 -0.4874
   30MOL   H26422942   7.856   3.502   4.525 -0.3163 -0.0764 -0.1686
   30MOL   H26522943   7.847   3.330   4.554  0.7317 -0.0756 -0.3630
   30MOL   H26622944   7.643   3.419   4.585 -1.3022  1.2364  0.3409
   30MOL   H26722945   7.701   3.558   4.678 -1.8434 -0.4696  0.7344
   30MOL   H26822946   7.690   3.261   4.762 -0.8596 -0.3952  1.4055
   30MOL   H26922947   7.535   3.339   4.954 -0.5308  0.7140 -0.4338
   30MOL   H27022948   7.544   3.504   4.874  2.8219  0.3172 -1.5576
   30MOL   H27122949   7.271   3.390   4.594 -0.9229  0.5455  1.0873
   30MOL   H27222950   7.023   3.376   4.518 -0.0687  1.0350  0.3699
   30MOL   H27322951   6.966   3.051   4.791 -0.9778 -1.4261 -2.3641
   30MOL   H27422952   7.207   3.057   4.857  0.1262  1.1384  0.7309
   30MOL   C27522953   6.149   3.194   4.544  0.1239  0.0526 -0.1912
   30MOL   C27622954   6.284   3.134   4.508  0.2158  0.0162  0.4307
   30MOL   C27722955   6.398   3.182   4.603  0.6948  0.5230 -0.2534
   30MOL   C27822956   6.537   3.109   4.575 -0.7729 -0.2038 -0.2207
   30MOL   O27922957   6.619   3.150   4.681 -0.0019 -0.3790 -0.2604
   30MOL   C28022958   6.414   3.336   4.586 -0.4379  0.5188  0.0925
   30MOL   C28122959   6.281   3.414   4.595  1.4595  0.4424  0.2637
   30MOL   C28222960   6.155   3.349   4.522 -0.3033  0.2251 -0.7240
   30MOL   C28322961   6.023   3.433   4.562  0.3187  0.1089  0.2138
   30MOL   O28422962   5.910   3.380   4.496  0.1825  0.2618 -0.3080
   30MOL   C28522963   5.788   3.419   4.527  0.8551 -0.6487 -0.2727
   30MOL   O28622964   5.772   3.492   4.622 -0.0187  0.2017  0.0758
   30MOL   C28722965   5.683   3.376   4.428 -0.2366 -0.4343 -0.2878
   30MOL   C28822966   5.546   3.392   4.457 -0.3258 -0.3390 -0.6270
   30MOL   C28922967   5.455   3.348   4.363  0.6143 -0.4756 -0.0610
   30MOL   C29022968   5.498   3.280   4.247  0.4265  0.1393  0.5165
   30MOL   C29122969   5.392   3.222   4.161  0.4354 -0.4484  0.0229
   30MOL   O29222970   5.270   3.226   4.190  0.2318  0.0223 -0.0126
   30MOL   O29322971   5.445   3.147   4.061 -0.0917 -0.1840  0.2420
   30MOL   C29422972   5.632   3.263   4.219 -0.2348 -0.0498  0.1244
   30MOL   C29522973   5.728   3.328   4.302 -0.2129  0.2292 -0.5413
   30MOL   H29622974   6.071   3.150   4.482 -1.0141  0.9344  0.5801
   30MOL   H29722975   6.131   3.168   4.648  2.5331  1.0468  0.5032
   30MOL   H29822976   6.275   3.025   4.512  3.0493 -0.2979 -0.7799
   30MOL   H29922977   6.304   3.163   4.405 -3.0731 -1.5758 -0.7420
   30MOL   H30022978   6.373   3.154   4.706 -0.1747 -0.4023 -0.7152
   30MOL   H30122979   6.518   3.002   4.583 -1.5875 -0.1759 -1.6958
   30MOL   H30222980   6.583   3.140   4.482 -1.4425 -0.6589 -0.7036
   30MOL   H30322981   6.494   3.366   4.655  0.2610 -1.6491  0.2439
   30MOL   H30422982   6.451   3.354   4.485 -0.5792  5.1971  0.7445
   30MOL   H30522983   6.287   3.514   4.554  1.5747  0.5238  0.4754
   30MOL   H30622984   6.250   3.432   4.699 -2.1300  1.7301 -0.9367
   30MOL   H30722985   6.170   3.356   4.414  1.5453  0.4514 -0.4815
   30MOL   H30822986   6.005   3.417   4.669  0.0562 -0.4222  0.0916
   30MOL   H30922987   6.036   3.541   4.551  1.0002 -0.0162 -0.1776
   30MOL   H31022988   5.508   3.434   4.549 -1.5915 -1.2957 -0.6938
   30MOL   H31122989   5.352   3.360   4.393  0.8467 -0.5128  0.7774
   30MOL   H31222990   5.659   3.209   4.129 -1.7226  1.4695 -1.2782
   30MOL   H31322991   5.833   3.325   4.278  0.4689 -1.1618  2.3839
   30MOL   C31422992   5.237   2.704   3.770 -0.2226 -0.3855 -0.1676
   30MOL   C31522993   5.307   2.810   3.851 -1.3506  0.3449 -0.3158
   30MOL   C31622994   5.253   2.831   3.990  0.3133  0.0039  0.1208
   30MOL   C31722995   5.344   2.938   4.063  0.2869 -0.2943 -0.1840
   30MOL   O31822996   5.350   3.058   3.989 -0.1587  0.4081  0.0958
   30MOL   C31922997   5.115   2.866   3.987  0.0520 -0.3023 -0.1464
   30MOL   C32022998   5.032   2.756   3.915  0.3535  0.7354  0.7811
   30MOL   C32122999   5.087   2.731   3.769 -0.0267 -0.4545  0.5531
   30MOL   C32223000   4.990   2.636   3.697  0.3595  0.3451  0.1371
   30MOL   O32323001   5.036   2.612   3.566 -0.6672 -0.0958 -0.2868
   30MOL   C32423002   5.103   2.495   3.537  0.0237  0.4887  0.0348
   30MOL   O32523003   5.128   2.397   3.614  0.1539 -0.4054 -0.8159
   30MOL   C32623004   5.128   2.486   3.392 -0.6591  0.6648  0.4106
   30MOL   C32723005   5.067   2.577   3.309 -0.0043 -1.3188  0.1589
   30MOL   C32823006   5.085   2.571   3.168  0.8122 -0.1166  0.0539
   30MOL   C32923007   5.172   2.473   3.115 -0.4175  0.1101  0.1941
   30MOL   C33023008   5.212   2.470   2.970  0.1973 -1.3727  0.1970
   30MOL   O33123009   5.296   2.390   2.917  0.4843 -0.8349  0.2234
   30MOL   O33223010   5.156   2.571   2.894 -0.0107 -0.1821  0.1148
   30MOL   C33323011   5.245   2.391   3.202  0.1173  0.2071 -0.2928
   30MOL   C33423012   5.224   2.398   3.340  0.8506  0.2224  0.1148
   30MOL   H33523013   5.277   2.695   3.669 -0.7402  1.9776 -0.6154
   30MOL   H33623014   5.260   2.612   3.823  1.2364  0.1874  0.2151
   30MOL   H33723015   5.412   2.784   3.861 -1.8015 -0.8074  1.8307
   30MOL   H33823016   5.304   2.909   3.805 -0.1750  0.6995  0.3579
   30MOL   H33923017   5.259   2.744   4.056  0.2062 -0.9152 -1.0823
   30MOL   H34023018   5.304   2.958   4.162 -0.4207 -0.0632 -0.5138
   30MOL   H34123019   5.446   2.905   4.086  0.0586 -1.2576 -0.5657
   30MOL   H34223020   5.072   2.884   4.085  0.7730  0.2672  0.0704
   30MOL   H34323021   5.106   2.953   3.921  1.1313  0.3672  0.5752
   30MOL   H34423022   4.927   2.785   3.915 -0.2009 -1.1920  0.3404
   30MOL   H34523023   5.051   2.664   3.971  0.3737 -0.7874 -1.6228
   30MOL   H34623024   5.080   2.828   3.719  4.2552 -1.0785 -1.4523
   30MOL   H34723025   4.982   2.546   3.758  0.5717  1.4935  1.8840
   30MOL   H34823026   4.894   2.686   3.688  0.1508  0.0368  0.6240
   30MOL   H34923027   5.001   2.657   3.340 -0.2303 -2.1440  1.8584
   30MOL   H35023028   5.041   2.634   3.092  0.7156 -0.8898 -0.5333
   30MOL   H35123029   5.316   2.319   3.164 -0.2453  0.3818 -1.3384
   30MOL   H35223030   5.273   2.320   3.396  0.0757  0.1177  0.6620
   30MOL   C35323031   5.651   2.607   2.897  0.5772  0.0012  0.4491
   30MOL   C35423032   5.509   2.671   2.887 -0.4466  0.8109  0.2282
   30MOL   C35523033   5.441   2.635   2.750  0.3995 -0.2489 -0.1218
   30MOL   C35623034   5.292   2.684   2.731  0.1884  0.0072  0.2104
   30MOL   O35723035   5.192   2.578   2.749  0.0323 -0.3316 -0.2705
   30MOL   C35823036   5.519   2.681   2.630  0.2822 -0.3767 -0.8670
   30MOL   C35923037   5.652   2.601   2.640  1.2033  0.2327  1.1412
   30MOL   C36023038   5.733   2.632   2.765 -0.0382  0.7130  0.3622
   30MOL   C36123039   5.871   2.558   2.773 -0.3023 -0.2240 -0.1772
   30MOL   O36223040   5.961   2.603   2.871  0.4538 -0.2537  0.2805
   30MOL   C36323041   6.075   2.669   2.846  0.3709 -0.1919 -0.8073
   30MOL   O36423042   6.090   2.738   2.745  0.3295  0.4601 -0.4394
   30MOL   C36523043   6.168   2.677   2.966  0.4852 -0.3151  0.4481
   30MOL   C36623044   6.304   2.708   2.929  0.1462  0.3111  0.1526
   30MOL   C36723045   6.404   2.719   3.029 -0.4382  0.0977  0.9130
   30MOL   C36823046   6.370   2.684   3.161 -1.2760 -0.6629 -0.1570
   30MOL   C36923047   6.476   2.670   3.266 -0.0038  0.0055  0.4128
   30MOL   O37023048   6.453   2.607   3.374 -0.4512 -0.3106 -0.1376
   30MOL   O37123049   6.599   2.711   3.232 -0.2477 -0.5522  0.2828
   30MOL   C37223050   6.234   2.653   3.193 -0.8606 -0.5300 -0.1893
   30MOL   C37323051   6.131   2.656   3.097  0.3500  0.1411 -0.3606
   30MOL   H37423052   5.698   2.634   2.991 -1.1123 -1.4184  1.7272
   30MOL   H37523053   5.643   2.499   2.908 -0.0626  0.1211  1.1440
   30MOL   H37623054   5.448   2.646   2.974 -0.3371 -2.5468 -0.6010
   30MOL   H37723055   5.519   2.780   2.894  2.8448  0.4988  1.3146
   30MOL   H37823056   5.422   2.528   2.746  3.7159 -0.9509  1.6131
   30MOL   H37923057   5.270   2.762   2.804 -0.0684  0.9605 -0.8761
   30MOL   H38023058   5.281   2.726   2.631 -0.6492 -0.6223  0.0315
   30MOL   H38123059   5.472   2.659   2.534 -0.0510  1.3492 -1.1123
   30MOL   H38223060   5.523   2.789   2.618 -1.5049 -0.0168  1.5733
   30MOL   H38323061   5.713   2.638   2.558 -0.2826  0.0381 -0.0655
   30MOL   H38423062   5.646   2.493   2.627  0.9545  0.6045 -2.0847
   30MOL   H38523063   5.760   2.737   2.761  0.3321  0.7014  2.1690
   30MOL   H38623064   5.859   2.450   2.781 -0.6342 -0.1161  0.7871
   30MOL   H38723065   5.909   2.573   2.672  2.5498 -0.5128  0.8121
   30MOL   H38823066   6.338   2.736   2.830  0.7402 -0.1588  0.2226
   30MOL   H38923067   6.507   2.741   3.005 -0.4235 -0.4444  0.4516
   30MOL   H39023068   6.207   2.621   3.293  0.1724  0.2848  0.3589
   30MOL   H39123069   6.031   2.624   3.123  0.9232  0.2251  2.1571
   30MOL   C39223070   6.762   2.683   3.778 -0.3884  0.3754  0.2576
   30MOL   C39323071   6.718   2.691   3.630 -0.2531 -0.5584 -0.6622
   30MOL   C39423072   6.807   2.766   3.547 -0.5467 -0.3628  0.8481
   30MOL   C39523073   6.743   2.779   3.411  0.3782 -0.0613 -0.0603
   30MOL   O39623074   6.705   2.666   3.338 -0.3461 -0.2192  0.1184
   30MOL   C39723075   6.835   2.907   3.602  0.2858  0.4094 -0.3420
   30MOL   C39823076   6.885   2.901   3.748 -0.7318 -0.5863  0.2282
   30MOL   C39923077   6.784   2.828   3.831 -0.8323  0.5093 -0.1397
   30MOL   C40023078   6.807   2.844   3.985 -0.1068  0.5094 -0.7785
   30MOL   O40123079   6.926   2.786   4.029  0.1625  0.3013 -0.0471
   30MOL   C40223080   6.935   2.658   4.064  0.3094  0.2575  0.4704
   30MOL   O40323081   6.843   2.584   4.079  0.1295  0.3948  0.2419
   30MOL   C40423082   7.078   2.613   4.083  0.6225  0.9364  0.0851
   30MOL   C40523083   7.107   2.474   4.084  0.3649  0.4888 -0.0076
   30MOL   C40623084   7.237   2.430   4.097  0.3914 -0.4821 -0.7355
   30MOL   C40723085   7.339   2.515   4.132  0.2772 -0.8015  0.0014
   30MOL   C40823086   7.476   2.475   4.169 -0.4835 -0.0294 -0.7558
   30MOL   O40923087   7.523   2.371   4.123 -0.7580 -0.0800 -0.2765
   30MOL   O41023088   7.529   2.556   4.270 -0.5040  0.3662 -0.3200
   30MOL   C41123089   7.308   2.655   4.134  0.1567 -0.2197 -0.1195
   30MOL   C41223090   7.178   2.700   4.116  0.4533 -0.4622  0.1730
   30MOL   H41323091   6.699   2.624   3.844  1.6552 -1.0820  0.9492
   30MOL   H41423092   6.860   2.635   3.773  1.0176  3.2284 -1.2079
   30MOL   H41523093   6.713   2.586   3.599  3.4103 -0.2999 -2.3803
   30MOL   H41623094   6.616   2.729   3.628 -0.5731 -1.3740 -0.2475
   30MOL   H41723095   6.903   2.716   3.537 -0.2603  0.5719 -1.4475
   30MOL   H41823096   6.654   2.842   3.418 -0.5533 -1.2994 -0.6286
   30MOL   H41923097   6.816   2.836   3.352 -0.0126  1.4848  0.9333
   30MOL   H42023098   6.910   2.963   3.545  1.0017  1.8020  1.8973
   30MOL   H42123099   6.742   2.962   3.616 -0.0652 -0.3756  0.4078
   30MOL   H42223100   6.898   3.004   3.782 -2.3286 -0.5867  0.8646
   30MOL   H42323101   6.978   2.847   3.735  0.7608  1.3575  2.3018
   30MOL   H42423102   6.691   2.883   3.815 -2.2369 -1.3534  1.4717
   30MOL   H42523103   6.815   2.950   4.009 -0.5892  0.5468 -0.7742
   30MOL   H42623104   6.720   2.807   4.040  0.6171 -1.4663 -0.9369
   30MOL   H42723105   7.031   2.399   4.065  0.1980 -0.0453  2.6036
   30MOL   H42823106   7.258   2.324   4.102 -1.0229 -0.7443 -0.1659
   30MOL   H42923107   7.375   2.730   4.174 -1.1314  0.7294  0.2707
   30MOL   H43023108   7.159   2.806   4.113 -2.4378 -0.9713 -1.2953
   30MOL   C43123109   7.821   2.639   4.691 -0.3597 -0.5773  0.0783
   30MOL   C43223110   7.734   2.591   4.574 -0.1983 -0.2376  0.1147
   30MOL   C43323111   7.786   2.468   4.507  0.3954  0.8924  0.4438
   30MOL   C43423112   7.690   2.424   4.397  0.1525 -0.3401  0.4200
   30MOL   O43523113   7.672   2.528   4.292 -0.8529  0.3845 -0.9485
   30MOL   C43623114   7.932   2.494   4.461 -0.3235 -0.3081 -0.5794
   30MOL   C43723115   8.021   2.524   4.583 -0.1439 -0.2246 -0.5846
   30MOL   C43823116   7.968   2.652   4.654  0.2083 -0.3060 -0.2426
   30MOL   C43923117   0.016   2.708   4.766 -0.6651 -0.5768 -0.3647
   30MOL   O44023118   0.026   2.609   4.860 -0.4849  0.4669 -0.4861
   30MOL   C44123119   0.113   2.618   4.955  0.2867 -0.0877 -0.5500
   30MOL   O44223120   0.168   2.720   4.996 -0.2453  0.6211  0.1458
   30MOL   C44323121   0.140   2.489   5.026  0.2587  0.4437  0.6708
   30MOL   C44423122   0.039   2.397   5.023 -0.1579  0.9410  0.6229
   30MOL   C44523123   0.066   2.269   5.063 -0.4261  0.2479 -0.3040
   30MOL   C44623124   0.183   2.234   5.137 -0.1017 -0.1568 -0.0911
   30MOL   C44723125   0.200   2.097   5.207  0.0175  0.1030 -0.3424
   30MOL   O44823126   0.294   2.063   5.271 -0.1083  0.1760 -0.3691
   30MOL   O44923127   0.094   2.015   5.176  1.3966  0.8152  0.0134
   30MOL   C45023128   0.280   2.338   5.152  0.5709 -0.5360 -0.4239
   30MOL   C45123129   0.258   2.468   5.095  0.9147  0.3162 -0.6172
   30MOL   H45223130   7.779   2.737   4.712 -0.0751 -0.4424  0.0236
   30MOL   H45323131   7.824   2.578   4.781  0.0036 -0.5851  0.0634
   30MOL   H45423132   7.630   2.576   4.604 -0.5555 -1.0585 -1.4322
   30MOL   H45523133   7.728   2.669   4.498 -0.1814 -0.3898 -0.0450
   30MOL   H45623134   7.794   2.388   4.581 -0.3541 -0.2666 -0.7037
   30MOL   H45723135   7.741   2.342   4.347 -0.2274 -1.4071  1.7679
   30MOL   H45823136   7.598   2.385   4.442 -0.9849  1.8698  0.1053
   30MOL   H45923137   7.976   2.412   4.405 -0.3728  1.0729 -2.6664
   30MOL   H46023138   7.933   2.573   4.387  1.7673  1.8837  1.7208
   30MOL   H46123139   0.091   2.517   4.557 -0.0506  2.6542 -1.1353
   30MOL   H46223140   8.004   2.448   4.659 -0.9220  1.7547  1.2549
   30MOL   H46323141   7.964   2.738   4.587  0.9405  0.3478  0.5347
   30MOL   H46423142   0.118   2.733   4.739 -0.6295 -1.7916 -1.4045
   30MOL   H46523143   8.014   2.799   4.814  2.1655  0.9359 -0.9263
   30MOL   H46623144   7.986   2.416   4.964  2.0053 -0.0997 -3.0644
   30MOL   H46723145   8.025   2.195   5.044 -0.6690  0.3957  0.0844
   30MOL   H46823146   0.372   2.336   5.209  1.7747  1.5102 -2.2303
   30MOL   H46923147   0.340   2.537   5.107  0.7074  0.7624 -1.7044
   30MOL   C47023148   0.230   1.412   5.171  0.3884 -0.0021  0.1331
   30MOL   C47123149   0.224   1.561   5.127  0.2882 -0.0238  0.0241
   30MOL   C47223150   0.148   1.651   5.223 -0.1085  0.2360  0.2160
   30MOL   C47323151   0.154   1.795   5.163 -0.7371  0.5801  0.1516
   30MOL   O47423152   0.094   1.886   5.253  0.1177 -0.2559 -0.1520
   30MOL   C47523153   0.009   1.594   5.238 -0.1938 -0.3262 -0.4304
   30MOL   C47623154   0.011   1.454   5.288 -0.1333  0.0476 -0.1723
   30MOL   C47723155   0.091   1.353   5.195 -0.1931  0.0126 -0.6820
   30MOL   C47823156   0.102   1.210   5.240  0.1631  0.7469 -0.1984
   30MOL   O47923157   0.166   1.208   5.365 -0.1095 -0.2357 -0.2821
   30MOL   C48023158   0.102   1.169   5.480  0.1927  1.0879 -0.3428
   30MOL   O48123159   8.027   1.117   5.481 -0.0503 -0.0288 -0.0721
   30MOL   C48223160   0.184   1.192   5.601 -0.3486  0.2061  0.0069
   30MOL   C48323161   0.159   1.124   5.727  0.0909  0.4198 -0.3799
   30MOL   C48423162   0.229   1.158   5.846  0.3517  0.3979 -0.6219
   30MOL   C48523163   0.313   1.272   5.842  0.3778 -0.2166  0.3710
   30MOL   C48623164   0.370   1.319   5.972  0.2072 -0.2422  0.8676
   30MOL   O48723165   0.325   1.286   6.080 -0.1335 -0.3026  0.0148
   30MOL   O48823166   0.469   1.407   5.954  0.2264 -0.2004  0.0229
   30MOL   C48923167   0.347   1.331   5.718 -0.5375  0.3516  0.0025
   30MOL   C49023168   0.284   1.291   5.599  0.1199  0.1197  0.3275
   30MOL   H49123169   0.290   1.348   5.106  0.8578 -0.4957  1.0454
   30MOL   H49223170   0.294   1.410   5.258 -0.5116  2.7581  0.9285
   30MOL   H49323171   0.322   1.606   5.113  0.1341  0.6641  1.0356
   30MOL   H49423172   0.189   1.554   5.024  1.6982  0.6195 -0.5108
   30MOL   H49523173   0.186   1.664   5.324 -0.7688 -0.2425  0.5303
   30MOL   H49623174   0.258   1.820   5.142 -0.4958 -1.2388 -0.8975
   30MOL   H49723175   0.104   1.802   5.066  4.0397  2.7279 -2.3367
   30MOL   H49823176   7.990   1.648   5.316  0.2162 -0.0372 -0.3431
   30MOL   H49923177   7.987   1.615   5.148 -0.6873  2.6487  0.5187
   30MOL   H50023178   7.945   1.426   5.314  0.3713  0.1124  1.9586
   30MOL   H50123179   0.051   1.450   5.390 -0.5945 -2.1432 -0.0672
   30MOL   H50223180   0.036   1.346   5.101  0.7371  0.0092 -1.2301
   30MOL   H50323181   0.003   1.164   5.231 -0.2616  2.0544 -2.6729
   30MOL   H50423182   0.157   1.146   5.172 -1.1758 -1.9427  1.1904
   30MOL   H50523183   0.079   1.051   5.736  0.3326  0.4605  2.5363
   30MOL   H50623184   0.201   1.109   5.938 -2.9965  1.5031 -0.9699
   30MOL   H50723185   0.400   1.424   5.712 -0.1169  0.0745 -0.6769
   30MOL   H50823186   0.306   1.353   5.514  2.5573  2.4420  2.5572
   30MOL   C50923187   0.785   1.778   5.937 -0.2127  0.0806 -0.3031
   30MOL   C51023188   0.708   1.671   6.023 -0.3309 -0.0989 -0.1188
   30MOL   C51123189   0.558   1.679   5.996  0.3782 -0.0102 -0.2719
   30MOL   C51223190   0.487   1.593   6.105 -0.9797  0.4618  0.4910
   30MOL   O51323191   0.536   1.461   6.079 -0.1284  0.1641  0.1008
   30MOL   C51423192   0.504   1.825   6.007  0.3969 -0.2064  0.8057
   30MOL   C51523193   0.574   1.926   5.916 -0.1248  0.8134  0.3382
   30MOL   C51623194   0.726   1.920   5.941  0.2821 -0.0487 -1.2511
   30MOL   C51723195   0.808   2.013   5.841  0.9803  0.4076  0.1882
   30MOL   O51823196   0.945   2.026   5.888  1.2359 -0.6870  0.2064
   30MOL   C51923197   1.052   1.961   5.817  1.4729  0.0598 -0.1580
   30MOL   O52023198   1.035   1.875   5.729  0.8567  0.4939  0.5099
   30MOL   C52123199   1.181   1.998   5.876  0.1221 -0.2253 -0.3532
   30MOL   C52223200   1.205   2.133   5.904 -0.3067  0.2709  0.2990
   30MOL   C52323201   1.320   2.173   5.973  0.1411  0.1631 -0.8928
   30MOL   C52423202   1.415   2.074   6.018 -0.3321  0.2387 -0.3489
   30MOL   C52523203   1.533   2.119   6.092 -0.6119  0.1855 -0.3737
   30MOL   O52623204   1.567   2.235   6.085 -0.8159 -0.0805  0.5762
   30MOL   O52723205   1.596   2.018   6.153  1.0914  0.2706  0.1102
   30MOL   C52823206   1.395   1.944   5.982  0.3485  0.1152 -0.8329
   30MOL   C52923207   1.283   1.909   5.904 -0.0873 -0.1551  0.2331
   30MOL   H53023208   0.888   1.769   5.970 -1.0112  0.6155  2.4111
   30MOL   H53123209   0.800   1.743   5.834  0.6997 -1.3972  0.3170
   30MOL   H53223210   0.753   1.572   6.012 -1.7437 -0.8065  0.3814
   30MOL   H53323211   0.723   1.695   6.128 -0.7038 -0.4339  0.0080
   30MOL   H53423212   0.538   1.649   5.893 -1.5201  0.4802 -0.0572
   30MOL   H53523213   0.512   1.625   6.206  3.5680 -0.4110 -0.2488
   30MOL   H53623214   0.378   1.595   6.108 -1.0707 -1.3454 -0.9409
   30MOL   H53723215   0.399   1.815   5.979 -0.3013  1.3594  2.7420
   30MOL   H53823216   0.507   1.876   6.103  0.1242  0.1290  0.6385
   30MOL   H53923217   0.531   2.026   5.917 -0.9079  0.4933  3.4319
   30MOL   H54023218   0.568   1.881   5.817  2.3736  1.3505 -0.0906
   30MOL   H54123219   0.739   1.960   6.042 -2.8459  0.1602 -0.8833
   30MOL   H54223220   0.804   1.987   5.736 -1.9706  3.1847 -0.4620
   30MOL   H54323221   0.759   2.110   5.841  0.5410  0.1895 -1.6101
   30MOL   H54423222   1.128   2.204   5.881 -2.2327 -1.9669 -0.4114
   30MOL   H54523223   1.340   2.275   6.003  2.8079 -1.2215  2.4213
   30MOL   H54623224   1.465   1.867   6.011 -0.3907  0.1070  1.0248
   30MOL   H54723225   1.279   1.808   5.868  1.4326  1.1428 -3.8837
   30MOL   C54823226   1.864   2.279   6.634 -0.2194 -0.2576 -0.1419
   30MOL   C54923227   1.766   2.182   6.556 -0.4032  0.1791 -0.3954
   30MOL   C55023228   1.803   2.183   6.408  0.2576 -0.1575 -0.3691
   30MOL   C55123229   1.708   2.082   6.344 -0.1676 -0.9611 -0.7810
   30MOL   O55223230   1.732   2.058   6.212 -0.0979  0.1102  0.1960
   30MOL   C55323231   1.794   2.322   6.347 -0.7933  0.0699 -0.0142
   30MOL   C55423232   1.887   2.419   6.420 -0.3682  0.2169 -0.5958
   30MOL   C55523233   1.851   2.420   6.575  0.4267 -0.1794  0.2231
   30MOL   C55623234   1.941   2.519   6.655 -0.8118 -0.4812 -0.0778
   30MOL   O55723235   1.986   2.637   6.589  0.2660  0.2581  0.2201
   30MOL   C55823236   2.108   2.638   6.536 -0.0343  0.1281  0.3864
   30MOL   O55923237   2.177   2.537   6.538  0.4528 -0.1688 -0.6674
   30MOL   C56023238   2.144   2.759   6.469 -0.8243 -0.9278  0.7606
   30MOL   C56123239   2.278   2.783   6.423 -0.2248  0.2674  0.4385
   30MOL   C56223240   2.316   2.899   6.356  0.4724  0.0046  0.0058
   30MOL   C56323241   2.214   3.003   6.342 -0.1690  0.6562 -0.6141
   30MOL   C56423242   2.243   3.124   6.270 -0.0634 -0.8271  0.1829
   30MOL   O56523243   2.158   3.201   6.228 -0.4491  0.1762 -0.3216
   30MOL   O56623244   2.376   3.135   6.256 -0.4375 -0.0008 -0.2124
   30MOL   C56723245   2.077   2.979   6.378  0.0821  0.0402  0.4973
   30MOL   C56823246   2.044   2.857   6.441  0.4557 -0.2944 -0.1764
   30MOL   H56923247   1.838   2.276   6.739  0.1533 -1.3284 -0.0726
   30MOL   H57023248   1.967   2.243   6.635 -0.9058 -2.3176  0.3814
   30MOL   H57123249   1.780   2.080   6.592 -1.2029 -0.6360 -2.2697
   30MOL   H57223250   1.664   2.212   6.581 -0.1355 -1.0887  2.3676
   30MOL   H57323251   1.902   2.141   6.389 -0.5204 -0.7901 -3.2823
   30MOL   H57423252   1.700   1.988   6.399 -2.1754 -1.6119 -2.1417
   30MOL   H57523253   1.614   2.134   6.360  0.6133  1.2009 -2.9417
   30MOL   H57623254   1.814   2.313   6.240 -0.6999 -0.6275  0.0561
   30MOL   H57723255   1.688   2.344   6.359 -0.5993  1.0508 -0.0361
   30MOL   H57823256   1.866   2.521   6.388  1.1879 -0.0497 -2.5442
   30MOL   H57923257   1.993   2.399   6.402  0.0797  0.5461  1.5868
   30MOL   H58023258   1.751   2.458   6.594  1.0050  1.7177 -0.3982
   30MOL   H58123259   1.876   2.540   6.740 -1.1336  0.7657 -0.6126
   30MOL   H58223260   2.025   2.462   6.695 -0.4821  0.2224  0.2486
   30MOL   H58323261   2.359   2.713   6.435 -0.4293 -0.1685 -0.6376
   30MOL   H58423262   2.410   2.908   6.304  0.3286  2.3001  0.1048
   30MOL   H58523263   2.002   3.057   6.368  0.3950  0.4622  1.3609
   30MOL   H58623264   1.939   2.837   6.459  0.8131 -2.5543 -0.4144
   30MOL   C58723265   2.392   3.689   6.220  0.4431 -0.9215  0.4483
   30MOL   C58823266   2.464   3.559   6.226  0.0572 -0.8087  0.8273
   30MOL   C58923267   2.411   3.467   6.338 -0.6149  0.9970  0.5330
   30MOL   C59023268   2.475   3.334   6.323 -0.0969  0.5334 -0.2916
   30MOL   O59123269   2.438   3.261   6.208 -0.0358  0.0684 -0.6275
   30MOL   C59223270   2.438   3.537   6.469  0.1410  0.0678  0.0044
   30MOL   C59323271   2.371   3.680   6.476 -0.5156  0.4910 -0.3291
   30MOL   C59423272   2.408   3.767   6.350  0.5404 -0.3278 -0.5773
   30MOL   C59523273   2.324   3.902   6.349 -0.0770  0.1582 -0.0150
   30MOL   O59623274   2.216   3.898   6.260  0.0443  0.3244 -0.0814
   30MOL   C59723275   2.098   3.858   6.303  0.1986  0.8763 -0.3274
   30MOL   O59823276   2.073   3.833   6.421 -0.6856 -0.9499 -0.1089
   30MOL   C59923277   1.994   3.847   6.198 -0.8527  0.4057  0.0764
   30MOL   C60023278   1.866   3.837   6.243  0.5234  0.3026  0.0243
   30MOL   C60123279   1.761   3.818   6.157 -0.8022  0.6478 -0.3168
   30MOL   C60223280   1.786   3.817   6.017  0.0477  0.3308 -0.6558
   30MOL   C60323281   1.662   3.795   5.934  0.1195 -0.1934  0.0255
   30MOL   O60423282   1.546   3.802   5.969  0.6017 -1.3609  0.1430
   30MOL   O60523283   1.696   3.757   5.813  0.1291 -0.0150  0.5032
   30MOL   C60623284   1.920   3.838   5.968 -0.2880  0.3363 -0.2469
   30MOL   C60723285   2.025   3.853   6.060 -0.2655  0.2040 -0.6301
   30MOL   H60823286   2.411   3.746   6.129 -0.3410 -0.0971  0.8007
   30MOL   H60923287   2.288   3.657   6.216  0.1800 -0.1226  0.9106
   30MOL   H61023288   2.449   3.498   6.137  0.1321  1.1792 -0.6052
   30MOL   H61123289   2.571   3.566   6.245 -0.3548 -0.0896  3.0674
   30MOL   H61223290   2.303   3.464   6.328 -0.3431 -1.2570 -2.6725
   30MOL   H61323291   2.583   3.339   6.313  0.0220 -1.2853 -0.1838
   30MOL   H61423292   2.449   3.278   6.413  0.7184 -2.0304 -1.6009
   30MOL   H61523293   2.404   3.477   6.554  0.3236 -0.5168 -0.3350
   30MOL   H61623294   2.546   3.547   6.476  0.2047  0.2573 -1.1614
   30MOL   H61723295   2.411   3.733   6.563 -1.1385  0.5509 -0.0765
   30MOL   H61823296   2.264   3.665   6.477 -0.8141  2.4004 -1.6439
   30MOL   H61923297   2.515   3.791   6.347  1.3729 -3.7408 -0.4098
   30MOL   H62023298   2.299   3.933   6.450 -0.7332  1.0318 -0.4402
   30MOL   H62123299   2.382   3.983   6.306  2.7436 -1.3134  0.9377
   30MOL   H62223300   1.858   3.848   6.350  2.1362 -1.6653  0.3760
   30MOL   H62323301   1.666   3.797   6.205  0.1324  2.3488  2.3500
   30MOL   H62423302   1.938   3.847   5.862  2.8531 -0.1776  0.2045
   30MOL   H62523303   2.127   3.853   6.027  0.1847  0.4037  0.7030
   30MOL   C62623304   1.169   3.810   5.618  0.6196 -0.3828 -0.2862
   30MOL   C62723305   1.299   3.784   5.698 -0.1562 -0.2853 -0.5685
   30MOL   C62823306   1.382   3.666   5.636 -0.3739  0.5638 -0.6512
   30MOL   C62923307   1.513   3.636   5.713  0.4726  1.0551 -0.5724
   30MOL   O63023308   1.586   3.755   5.711  0.3579 -0.1875  0.3488
   30MOL   C63123309   1.295   3.542   5.619 -1.0728  0.6589  0.3202
   30MOL   C63223310   1.176   3.562   5.534  0.1348 -0.6404  0.3880
   30MOL   C63323311   1.089   3.673   5.597  0.3954  0.4329  0.5513
   30MOL   C63423312   0.955   3.682   5.525 -0.0242 -0.0137 -0.3214
   30MOL   O63523313   0.966   3.697   5.383  0.4498 -0.2237 -0.3890
   30MOL   C63623314   0.875   3.769   5.310  0.0846 -0.5066  1.3930
   30MOL   O63723315   0.777   3.819   5.372 -0.2617 -0.3330  0.2156
   30MOL   C63823316   0.902   3.786   5.162  0.2639  0.2609  0.5984
   30MOL   C63923317   0.793   3.816   5.079  0.0878 -0.4557  0.0298
   30MOL   C64023318   0.813   3.825   4.938  0.9850  0.3168 -0.9394
   30MOL   C64123319   0.938   3.784   4.887 -0.4806 -0.5634  0.2399
   30MOL   C64223320   0.958   3.785   4.738 -0.4247  0.0346 -0.3711
   30MOL   O64323321   0.904   3.859   4.660 -0.2347 -0.0024 -0.7560
   30MOL   O64423322   1.055   3.697   4.705  0.0686  0.3072  0.0607
   30MOL   C64523323   1.046   3.764   4.971 -0.8521  0.0664  0.2025
   30MOL   C64623324   1.031   3.765   5.108 -0.2055  0.4225 -0.4618
   30MOL   H64723325   1.112   3.894   5.658 -1.2229 -0.1542 -3.2444
   30MOL   H64823326   1.195   3.845   5.518  1.2961  1.4062  0.4727
   30MOL   H64923327   1.350   3.879   5.713  2.4656 -1.7973  0.4651
   30MOL   H65023328   1.260   3.763   5.797 -1.8960  0.4700 -1.0846
   30MOL   H65123329   1.402   3.700   5.534  2.6137 -1.0741 -0.6389
   30MOL   H65223330   1.487   3.604   5.814 -0.9837  0.6433 -1.0658
   30MOL   H65323331   1.574   3.563   5.660 -0.4413 -1.5753  1.8675
   30MOL   H65423332   1.349   3.450   5.595  0.7218  1.3702  1.5317
   30MOL   H65523333   1.273   3.510   5.721  0.3207  1.2119  0.8029
   30MOL   H65623334   1.116   3.472   5.524  1.5779 -1.9290  2.8040
   30MOL   H65723335   1.205   3.589   5.432  1.0454 -4.0590 -0.3041
   30MOL   H65823336   1.058   3.643   5.697 -0.3398 -0.4822  0.0542
   30MOL   H65923337   0.904   3.587   5.538 -1.7108  1.1487  2.0099
   30MOL   H66023338   0.889   3.759   5.565 -0.2521  0.3575 -1.3799
   30MOL   H66123339   0.698   3.829   5.129  0.0954  1.2780 -0.3584
   30MOL   H66223340   0.734   3.859   4.873  0.0864  0.0440 -0.0033
   30MOL   H66323341   1.146   3.738   4.941 -0.6994  1.2707 -0.3887
   30MOL   H66423342   1.115   3.750   5.174 -0.5651 -0.8094 -0.2525
   30MOL   C66523343   1.099   3.638   4.129 -0.4549 -0.5086  0.5101
   30MOL   C66623344   1.054   3.659   4.271  0.1871 -0.1660 -0.3174
   30MOL   C66723345   1.109   3.548   4.367  0.1825 -0.4835  0.2051
   30MOL   C66823346   1.055   3.569   4.509 -0.4754  0.0368 -0.0480
   30MOL   O66923347   1.089   3.698   4.559 -0.2306  0.6135 -0.3952
   30MOL   C67023348   1.074   3.417   4.314 -0.6558  0.2306  0.6525
   30MOL   C67123349   1.121   3.391   4.164  0.0489 -0.5423 -0.4791
   30MOL   C67223350   1.061   3.496   4.072 -0.2969 -0.5611  0.3494
   30MOL   C67323351   1.092   3.484   3.926  0.9436  0.5622  0.7440
   30MOL   O67423352   1.019   3.375   3.876 -0.1807 -0.4985 -0.3435
   30MOL   C67523353   1.042   3.319   3.759 -0.1284 -0.4445 -0.6947
   30MOL   O67623354   1.127   3.363   3.678  0.4229  0.2702 -0.2717
   30MOL   C67723355   0.962   3.190   3.742 -0.5498  0.1377 -0.2650
   30MOL   C67823356   0.929   3.115   3.859  0.5231  0.6377  0.1387
   30MOL   C67923357   0.858   2.989   3.851  0.0107 -0.0909  0.1035
   30MOL   C68023358   0.846   2.926   3.718 -0.4068  0.3146 -0.2552
   30MOL   C68123359   0.790   2.790   3.703 -0.1806  0.5498  0.8081
   30MOL   O68223360   0.767   2.719   3.802 -0.7992 -0.1548  0.2802
   30MOL   O68323361   0.779   2.755   3.573 -0.1959 -0.3675 -0.4333
   30MOL   C68423362   0.894   3.000   3.607 -0.1790 -0.7649 -0.1233
   30MOL   C68523363   0.947   3.128   3.617  0.3997 -1.4415 -0.4627
   30MOL   H68623364   1.050   3.713   4.066 -1.0134 -0.1589  1.3521
   30MOL   H68723365   1.205   3.652   4.110 -0.7690 -0.8794 -1.6932
   30MOL   H68823366   1.082   3.761   4.298  0.5230 -0.4790  0.5148
   30MOL   H68923367   0.945   3.663   4.276  0.2988  3.1027  0.6198
   30MOL   H69023368   1.217   3.565   4.373  0.3570 -1.7138  0.8120
   30MOL   H69123369   0.946   3.571   4.507 -0.4719 -0.1011 -2.1803
   30MOL   H69223370   1.087   3.487   4.574  0.0513  1.9396  2.1445
   30MOL   H69323371   1.137   3.350   4.372  0.9509  0.5566 -0.6555
   30MOL   H69423372   0.972   3.382   4.328 -0.6688 -0.2790 -0.6552
   30MOL   H69523373   1.090   3.289   4.143  2.4923 -1.2185 -1.0640
   30MOL   H69623374   1.230   3.382   4.160  0.1483 -1.4151  2.6921
   30MOL   H69723375   0.953   3.481   4.067 -0.5440  1.3006 -0.2491
   30MOL   H69823376   1.071   3.579   3.879 -2.3354 -0.0819  0.7678
   30MOL   H69923377   1.199   3.466   3.920  1.0736  1.5835  0.0176
   30MOL   H70023378   0.955   3.150   3.958  0.8543  0.6337  0.0543
   30MOL   H70123379   0.837   2.941   3.946  1.4507 -0.7010  0.1398
   30MOL   H70223380   0.894   2.952   3.511 -2.0821 -1.1437  0.0405
   30MOL   H70323381   0.987   3.178   3.530 -0.6019 -0.7432 -0.5249
   30MOL   C70423382   1.081   2.251   3.367  0.6900  0.1678  0.2539
   30MOL   C70523383   1.068   2.405   3.402 -0.7727 -0.5610 -0.0022
   30MOL   C70623384   0.923   2.446   3.430 -0.2170 -0.1985 -0.5148
   30MOL   C70723385   0.913   2.591   3.475  0.3992 -0.1528  0.2079
   30MOL   O70823386   0.788   2.609   3.544 -0.9229 -0.4160 -0.3430
   30MOL   C70923387   0.825   2.401   3.325  1.1029  0.8189 -1.2020
   30MOL   C71023388   0.845   2.250   3.286  0.1158  0.2891  0.7439
   30MOL   C71123389   0.988   2.214   3.242  0.1922 -0.3546 -0.2914
   30MOL   C71223390   1.009   2.063   3.198  0.3335 -0.8240  0.2667
   30MOL   O71323391   0.952   1.990   3.304  0.0302  0.2328 -0.4468
   30MOL   C71423392   0.990   1.867   3.332 -0.1271 -0.3540  0.2769
   30MOL   O71523393   1.076   1.802   3.268  0.2785  0.1040 -0.4948
   30MOL   C71623394   0.925   1.816   3.457  0.1729  0.0361  0.5585
   30MOL   C71723395   0.921   1.677   3.477  0.3106 -0.5751 -0.2198
   30MOL   C71823396   0.872   1.617   3.595 -0.0273 -0.6616  0.1880
   30MOL   C71923397   0.815   1.703   3.696  0.3247 -0.2002 -0.7782
   30MOL   C72023398   0.777   1.632   3.822  0.1891 -0.2904 -0.1778
   30MOL   O72123399   0.784   1.509   3.833 -0.2439 -0.2922 -0.5559
   30MOL   O72223400   0.743   1.713   3.919  0.4447 -0.5492  0.1422
   30MOL   C72323401   0.814   1.844   3.674 -0.0557 -0.4362 -0.0864
   30MOL   C72423402   0.865   1.902   3.557  0.1216 -0.2940  0.4646
   30MOL   H72523403   1.186   2.227   3.350  0.3722 -0.9103 -0.2170
   30MOL   H72623404   1.049   2.190   3.451  1.5837  1.4513  1.5522
   30MOL   H72723405   1.136   2.420   3.486 -1.0921 -2.3078  0.6028
   30MOL   H72823406   1.114   2.468   3.326 -1.1565  2.4779  2.2165
   30MOL   H72923407   0.903   2.396   3.524  0.8671  2.1486  1.0222
   30MOL   H73023408   0.979   2.617   3.557 -0.3447  0.4494  0.6266
   30MOL   H73123409   0.928   2.655   3.388 -1.7421  0.4248  0.2365
   30MOL   H73223410   0.726   2.432   3.360  0.7368 -1.0797 -0.4730
   30MOL   H73323411   0.848   2.468   3.242  0.9115 -0.3031 -2.1733
   30MOL   H73423412   0.771   2.226   3.209  0.1936 -0.9245  1.0227
   30MOL   H73523413   0.803   2.191   3.368  0.5267  1.3011  1.6885
   30MOL   H73623414   1.025   2.272   3.157  1.8337 -0.3630  0.3956
   30MOL   H73723415   0.957   2.051   3.103  0.2695  2.0705 -0.1150
   30MOL   H73823416   1.116   2.048   3.188  0.0540 -0.7359 -3.6086
   30MOL   H73923417   0.954   1.611   3.398 -0.0351 -0.1879 -0.6887
   30MOL   H74023418   0.871   1.509   3.599 -1.0831 -0.5953  1.6174
   30MOL   H74123419   0.769   1.914   3.743 -0.2276  0.0816 -0.7207
   30MOL   H74223420   0.860   2.010   3.549  2.6242 -0.0716  1.3375
   30MOL   C74323421   0.328   1.389   4.253 -0.2609  0.0080  0.3542
   30MOL   C74423422   0.369   1.513   4.184  0.4233  0.2869 -0.0379
   30MOL   C74523423   0.525   1.523   4.172  0.6019 -0.0719 -0.1910
   30MOL   C74623424   0.587   1.642   4.094  0.5120  0.2511  0.8591
   30MOL   O74723425   0.721   1.639   4.054 -0.3187 -0.0607 -0.1974
   30MOL   C74823426   0.589   1.524   4.310 -0.2683 -0.0069 -0.5636
   30MOL   C74923427   0.545   1.394   4.381  0.1844  0.8817  0.3792
   30MOL   C75023428   0.393   1.379   4.387  0.2044  0.0467 -0.0514
   30MOL   C75123429   0.353   1.239   4.452 -0.7625  0.7947  0.9162
   30MOL   O75223430   0.229   1.238   4.516 -0.0671 -0.2418 -0.2378
   30MOL   C75323431   0.209   1.290   4.638 -0.3828 -0.1944 -1.6022
   30MOL   O75423432   0.295   1.343   4.706 -0.3748 -1.2023 -0.5199
   30MOL   C75523433   0.072   1.285   4.690 -0.1428  0.4441  0.1597
   30MOL   C75623434   0.035   1.349   4.807 -0.3785  0.2722  0.1052
   30MOL   C75723435   7.938   1.342   4.860 -0.1377 -0.0394  1.0188
   30MOL   C75823436   7.838   1.275   4.788  0.5066  0.1991  0.7142
   30MOL   C75923437   7.698   1.251   4.837  0.0959 -0.2894  0.7252
   30MOL   O76023438   7.612   1.199   4.773  0.2549 -0.3143  0.1580
   30MOL   O76123439   7.669   1.298   4.962 -0.7075 -0.1147  0.3597
   30MOL   C76223440   7.873   1.211   4.666  0.3556  0.3306  0.0362
   30MOL   C76323441   8.005   1.210   4.622  0.1783 -0.9301  0.3321
   30MOL   H76423442   0.221   1.377   4.269 -0.0348 -2.4545  0.1922
   30MOL   H76523443   0.356   1.303   4.192  0.4245  0.6260 -0.2095
   30MOL   H76623444   0.322   1.512   4.086 -0.1447  2.7936  0.1667
   30MOL   H76723445   0.324   1.591   4.245  0.2658 -1.1263  1.6867
   30MOL   H76823446   0.562   1.437   4.116  3.8640  1.2822 -0.2261
   30MOL   H76923447   0.532   1.640   4.000  1.8221 -2.2260  0.1032
   30MOL   H77023448   0.567   1.737   4.143  1.2796  0.1371  1.4022
   30MOL   H77123449   0.698   1.524   4.299 -0.2473  1.6058 -0.4639
   30MOL   H77223450   0.567   1.608   4.376 -2.0974  0.3799 -1.6273
   30MOL   H77323451   0.593   1.385   4.479  0.6546  1.6010  0.2208
   30MOL   H77423452   0.587   1.316   4.317 -1.0680 -1.6089  2.4972
   30MOL   H77523453   0.371   1.462   4.454  3.0364  0.5553  0.3196
   30MOL   H77623454   0.340   1.164   4.374 -0.7734  1.4037  0.3330
   30MOL   H77723455   0.430   1.208   4.522  0.2730 -0.8288 -0.8996
   30MOL   H77823456   0.118   1.390   4.862  1.9207 -1.7682 -1.7676
   30MOL   H77923457   7.918   1.381   4.959  1.3818  1.2561  0.8348
   30MOL   H78023458   7.806   1.145   4.611  0.0385 -0.4835  1.3717
   30MOL   H78123459   8.027   1.172   4.523  1.9175  2.4904 -0.6730
   30MOL   H78223460   7.581   1.271   4.981 -1.9044  1.9824 -1.8018
   31MOL     C123461   7.880   6.856   0.105  0.0844 -0.7704 -0.1096
   31MOL     C223462   7.816   6.848   8.002 -0.4889 -0.1168  0.4796
   31MOL     C323463   7.760   6.707   7.969 -0.7806 -0.9196 -0.0892
   31MOL     C423464   7.695   6.713   7.829  0.8789  0.5042  0.3817
   31MOL     O523465   7.652   6.581   7.798 -0.2832 -0.0013 -0.0027
   31MOL     C623466   7.887   6.603   7.989  0.0321  0.2747 -0.4359
   31MOL     C723467   7.947   6.608   0.089  0.5809 -0.7269  0.1034
   31MOL     C823468   7.993   6.746   0.127 -0.0563  0.7710 -0.1108
   31MOL     C923469   0.022   6.746   0.269 -0.0665 -0.2041  0.6553
   31MOL    O1023470   7.957   6.699   0.365 -0.4213 -0.4899 -0.2434
   31MOL    C1123471   7.963   6.734   0.498 -0.1446  0.0779  0.4505
   31MOL    O1223472   0.021   6.793   0.551  1.0388 -0.2192  0.6136
   31MOL    C1323473   7.830   6.710   0.566  0.1299  0.1196  0.1435
   31MOL    C1423474   7.809   6.770   0.692 -0.2716 -0.6774  0.8946
   31MOL    C1523475   7.690   6.753   0.762 -0.0675  0.6462 -0.4052
   31MOL    C1623476   7.587   6.668   0.703 -0.5596 -0.2841 -0.8077
   31MOL    C1723477   7.458   6.659   0.774  0.3054  0.2887 -0.3837
   31MOL    O1823478   7.435   6.717   0.879  0.1072  0.0227 -0.4549
   31MOL    O1923479   7.376   6.574   0.718  0.0695  0.3138  0.0020
   31MOL    C2023480   7.605   6.615   0.579 -1.1158 -0.1491  0.6150
   31MOL    C2123481   7.727   6.633   0.504 -0.4350  0.0356  1.3516
   31MOL    H2223482   7.925   6.953   0.127 -0.6890 -0.8605  1.9300
   31MOL    H2323483   7.808   6.839   0.185 -1.1632  1.0636 -0.8015
   31MOL    H2423484   7.736   6.922   8.004  0.0528  0.5774 -2.0186
   31MOL    H2523485   7.889   6.885   7.930  0.4070 -0.0553  1.4118
   31MOL    H2623486   7.683   6.686   0.008  0.3089  0.7697  1.5697
   31MOL    H2723487   7.611   6.782   7.827  0.9185  0.5226 -1.3436
   31MOL    H2823488   7.755   6.765   7.755  0.0860  0.0078 -0.6152
   31MOL    H2923489   7.859   6.501   7.965 -0.8628  0.6590 -1.0385
   31MOL    H3023490   7.962   6.624   7.912 -1.2211 -1.4712 -2.1525
   31MOL    H3123491   8.035   6.543   0.095  0.3982 -1.1740 -1.7141
   31MOL    H3223492   7.885   6.564   0.168  0.7009  1.0147  1.1824
   31MOL    H3323493   0.045   6.769   0.066  0.0260  2.3475  0.5721
   31MOL    H3423494   0.108   6.681   0.278  0.2536  0.4952  3.0685
   31MOL    H3523495   0.045   6.846   0.307  1.3589  0.4643 -1.8566
   31MOL    H3623496   7.887   6.829   0.737 -0.2351 -0.7477  0.9242
   31MOL    H3723497   7.688   6.788   0.865  1.8194  0.9326 -0.4425
   31MOL    H3823498   7.528   6.558   0.530  0.3795 -2.6813  1.1026
   31MOL    H3923499   7.734   6.588   0.406 -0.6244 -0.0911  1.3948
   31MOL    H4023500   7.561   6.585   7.771 -0.2322 -0.3728 -0.2437
   31MOL    C4123501   7.153   6.492   1.252  0.6416 -0.6269 -0.6153
   31MOL    C4223502   7.249   6.502   1.130  0.9270 -0.3408 -0.1445
   31MOL    C4323503   7.185   6.435   1.013 -1.4566 -0.2588  0.8033
   31MOL    C4423504   7.287   6.429   0.894 -0.8908  0.5389  0.7271
   31MOL    O4523505   7.253   6.530   0.800 -0.0746 -0.1773 -0.4231
   31MOL    C4623506   7.135   6.290   1.050  0.5604 -0.7980  0.9370
   31MOL    C4723507   7.041   6.294   1.176  0.1283  0.5174 -0.1150
   31MOL    C4823508   7.111   6.355   1.297  0.3904 -0.5454  0.1025
   31MOL    C4923509   7.012   6.342   1.411  0.2271  0.3978 -0.4769
   31MOL    O5023510   7.074   6.349   1.543 -0.0983 -0.0297 -0.1041
   31MOL    C5123511   6.994   6.358   1.649  0.2342 -0.5654 -0.1973
   31MOL    O5223512   6.873   6.369   1.639 -0.0136 -0.4152 -0.0999
   31MOL    C5323513   7.064   6.374   1.781 -0.2927  0.1099 -1.4715
   31MOL    C5423514   7.190   6.437   1.793  1.1344 -0.1760  0.0685
   31MOL    C5523515   7.251   6.468   1.913  1.2037 -0.0016 -0.2452
   31MOL    C5623516   7.197   6.415   2.027  0.6228  0.4081  0.1863
   31MOL    C5723517   7.260   6.434   2.161  0.2112  0.0185  0.3954
   31MOL    O5823518   7.339   6.523   2.188  0.7240  0.1972 -0.0235
   31MOL    O5923519   7.213   6.345   2.255 -0.0194 -0.1149  0.1103
   31MOL    C6023520   7.064   6.348   2.020 -0.8145  0.6133  0.5626
   31MOL    C6123521   6.998   6.347   1.898  0.1689  0.1323  0.0463
   31MOL    H6223522   7.200   6.542   1.336  0.9712 -1.9905  0.0161
   31MOL    H6323523   7.061   6.547   1.231  1.7539  2.7162  2.9215
   31MOL    H6423524   7.275   6.600   1.090 -0.8513  0.1091 -0.2619
   31MOL    H6523525   7.340   6.447   1.154  2.0874  1.3187 -0.6656
   31MOL    H6623526   7.098   6.491   0.977  0.5850  0.8856 -2.5760
   31MOL    H6723527   7.390   6.447   0.925  0.2225 -1.4311 -1.6053
   31MOL    H6823528   7.287   6.336   0.837  0.0622  0.0382  1.5217
   31MOL    H6923529   7.072   6.249   0.970 -1.1131  1.9329  0.8019
   31MOL    H7023530   7.219   6.222   1.060  2.1324  0.9199 -0.3617
   31MOL    H7123531   7.016   6.191   1.201 -3.4804  1.2050 -0.5543
   31MOL    H7223532   6.951   6.349   1.149  0.1866  0.7022  0.0671
   31MOL    H7323533   7.195   6.286   1.309 -0.2288 -1.2755  0.2967
   31MOL    H7423534   6.936   6.420   1.410 -0.6335 -0.4290 -0.7069
   31MOL    H7523535   6.964   6.245   1.397  0.1840  0.3025  0.3041
   31MOL    H7623536   7.241   6.463   1.702  0.2451 -1.8652 -0.9523
   31MOL    H7723537   7.350   6.513   1.912  1.5442 -0.7389 -0.0025
   31MOL    H7823538   7.013   6.317   2.109  0.4771  0.1491  1.1502
   31MOL    H7923539   6.901   6.302   1.886  1.4762 -2.3978 -1.6322
   31MOL    C8023540   7.151   6.015   2.679 -0.2212  0.1313  0.5478
   31MOL    C8123541   7.211   6.147   2.626  0.4939 -0.2368  0.0534
   31MOL    C8223542   7.251   6.146   2.480  0.3855  0.1568  0.6049
   31MOL    C8323543   7.323   6.275   2.443  0.0426 -0.4818  0.6837
   31MOL    O8423544   7.241   6.377   2.402  0.1294 -0.1970  0.1361
   31MOL    C8523545   7.336   6.021   2.441 -0.4824  0.0500  0.5376
   31MOL    C8623546   7.272   5.887   2.480  0.7496  0.6660 -0.5437
   31MOL    C8723547   7.232   5.892   2.633 -0.5854  0.4908 -0.5250
   31MOL    C8823548   7.159   5.762   2.683  0.4742  0.0173  0.1647
   31MOL    O8923549   7.233   5.648   2.637 -0.6520 -0.1324  0.0124
   31MOL    C9023550   7.309   5.577   2.719 -0.5209 -0.6582 -0.1929
   31MOL    O9123551   7.321   5.600   2.843 -0.2036 -0.2681 -0.2091
   31MOL    C9223552   7.375   5.469   2.651 -0.4622  0.1358  0.3801
   31MOL    C9323553   7.432   5.361   2.723  0.3160  0.0151 -0.0855
   31MOL    C9423554   7.494   5.258   2.662 -0.1817  0.2858 -0.1812
   31MOL    C9523555   7.510   5.255   2.521 -0.8037 -0.1994  0.4207
   31MOL    C9623556   7.597   5.146   2.454 -0.3051 -0.2066 -0.8256
   31MOL    O9723557   7.660   5.161   2.351  0.2954  0.3859 -0.1107
   31MOL    O9823558   7.597   5.031   2.519 -0.0454 -0.1580 -0.3972
   31MOL    C9923559   7.462   5.365   2.449  0.2835  0.3242  0.2495
   31MOL   C10023560   7.399   5.471   2.513  0.1536  0.5221  0.0711
   31MOL   H10123561   7.149   6.012   2.788  1.5285  2.5507  0.6923
   31MOL   H10223562   7.055   6.004   2.630  0.3266  2.6287 -1.1736
   31MOL   H10323563   7.154   6.234   2.657  2.5593  0.6198  1.5220
   31MOL   H10423564   7.311   6.161   2.667  0.7633 -1.9505  0.0280
   31MOL   H10523565   7.165   6.152   2.413  1.7194 -1.8299 -1.3603
   31MOL   H10623566   7.398   6.304   2.517 -1.2876 -0.8062  2.1851
   31MOL   H10723567   7.390   6.245   2.362 -0.5018 -0.9157  0.3936
   31MOL   H10823568   7.355   6.009   2.334 -2.6957  0.6567  0.0644
   31MOL   H10923569   7.430   6.034   2.495  1.6241 -1.9374 -2.4614
   31MOL   H11023570   7.333   5.799   2.458  2.6126  1.2534  2.1436
   31MOL   H11123571   7.177   5.875   2.426 -0.8707  0.8696  2.1757
   31MOL   H11223572   7.324   5.890   2.691 -0.4038 -0.3586 -0.8398
   31MOL   H11323573   7.139   5.762   2.790  1.7326  0.1953  0.4081
   31MOL   H11423574   7.062   5.746   2.636 -0.6905 -1.1340  2.8555
   31MOL   H11523575   7.424   5.358   2.831  1.1909 -0.6621 -0.0261
   31MOL   H11623576   7.534   5.181   2.726 -0.2213  0.7465  0.3995
   31MOL   H11723577   7.462   5.366   2.341 -1.2799  2.7335  0.2384
   31MOL   H11823578   7.373   5.558   2.454 -4.2717  0.4612  1.7938
   31MOL   C11923579   7.779   4.668   2.130 -0.8103 -0.3693 -0.0699
   31MOL   C12023580   7.695   4.773   2.201 -0.3582  0.4700 -0.7077
   31MOL   C12123581   7.650   4.715   2.331 -0.1003 -0.1337  0.0858
   31MOL   C12223582   7.568   4.819   2.412  0.0254  0.2207 -0.4024
   31MOL   O12323583   7.668   4.916   2.450 -0.7677  0.2635 -0.0769
   31MOL   C12423584   7.568   4.587   2.297  0.3028 -0.3055  0.0830
   31MOL   C12523585   7.648   4.484   2.218 -0.1484  0.9259 -0.3055
   31MOL   C12623586   7.710   4.539   2.087  0.5436  0.1027  0.2288
   31MOL   C12723587   7.806   4.441   2.025  0.2115  0.1659  0.3051
   31MOL   O12823588   7.839   4.479   1.888 -0.2001 -0.4691  0.2694
   31MOL   C12923589   7.909   4.401   1.807  0.1541  0.7899  0.5044
   31MOL   O13023590   7.993   4.316   1.851 -0.7542  0.4539  0.2059
   31MOL   C13123591   7.878   4.425   1.660  0.6909 -0.5663  0.2146
   31MOL   C13223592   7.901   4.315   1.573 -0.0125 -0.3048 -0.1745
   31MOL   C13323593   7.845   4.320   1.443 -0.4035  0.7232  0.0223
   31MOL   C13423594   7.777   4.432   1.397  0.0382 -0.7973  0.4713
   31MOL   C13523595   7.733   4.443   1.255  0.0684  0.4572 -0.2230
   31MOL   O13623596   7.660   4.539   1.215 -0.0578  0.4969  0.0197
   31MOL   O13723597   7.778   4.340   1.168  0.1208 -0.3192  0.6714
   31MOL   C13823598   7.767   4.543   1.483 -0.0917  0.9956  0.4490
   31MOL   C13923599   7.817   4.542   1.613  0.5920  0.1285 -0.1275
   31MOL   H14023600   7.827   4.711   2.042 -2.6264  3.3026  0.6612
   31MOL   H14123601   7.862   4.633   2.192  0.0129  0.0793 -0.9029
   31MOL   H14223602   7.761   4.860   2.207 -1.1023  0.8768  2.6961
   31MOL   H14323603   7.610   4.801   2.139  0.1838  1.9870 -0.7826
   31MOL   H14423604   7.742   4.693   2.385  0.3321 -1.8436 -1.3164
   31MOL   H14523605   7.485   4.867   2.360 -0.8390  0.3406  1.0897
   31MOL   H14623606   7.520   4.769   2.495  1.1974 -0.5549 -0.1788
   31MOL   H14723607   7.515   4.549   2.384 -1.3963 -0.8479 -1.1782
   31MOL   H14823608   7.482   4.613   2.236 -3.3914 -1.1244  4.6017
   31MOL   H14923609   7.596   4.391   2.194  3.0502 -0.7630 -1.0185
   31MOL   H15023610   7.732   4.464   2.285 -0.6015 -0.5765 -0.1649
   31MOL   H15123611   7.644   4.561   2.004  0.2544  1.7593  0.8811
   31MOL   H15223612   7.904   4.444   2.073  0.8710  1.8021 -1.1220
   31MOL   H15323613   7.772   4.338   2.040  2.6301 -0.6479  0.4279
   31MOL   H15423614   7.955   4.226   1.600  0.2618 -0.0828  0.0221
   31MOL   H15523615   7.865   4.234   1.382 -0.5602  1.0470 -0.4955
   31MOL   H15623616   7.711   4.627   1.447  1.5505  2.2031  0.6583
   31MOL   H15723617   7.813   4.633   1.671 -1.1784 -0.1312  0.2014
   31MOL   C15823618   7.904   4.211   0.666 -0.3024  0.3419 -0.2956
   31MOL   C15923619   7.819   4.270   0.774  0.1779  0.7889 -0.5511
   31MOL   C16023620   7.897   4.372   0.858  0.1694 -0.7261  0.2371
   31MOL   C16123621   7.801   4.449   0.947  0.1768  0.4472 -0.8064
   31MOL   O16223622   7.723   4.358   1.025 -0.0403 -0.1193  0.7282
   31MOL   C16323623   8.012   4.302   0.929 -0.4531 -0.7728  0.3874
   31MOL   C16423624   0.075   4.243   0.828 -1.2442  0.0793 -0.0609
   31MOL   C16523625   0.004   4.152   0.729  0.6931  0.4994  0.1581
   31MOL   C16623626   0.100   4.079   0.637  0.4716 -0.6119  0.1362
   31MOL   O16723627   0.195   4.001   0.707 -0.2983 -0.2912 -0.4684
   31MOL   C16823628   0.322   4.034   0.715 -0.7105 -0.7105  0.5421
   31MOL   O16923629   0.367   4.135   0.660  0.7772 -0.7687  0.5692
   31MOL   C17023630   0.400   3.932   0.796 -0.8420 -0.2497  0.1799
   31MOL   C17123631   0.329   3.838   0.877 -0.3344  0.3245 -0.2521
   31MOL   C17223632   0.405   3.743   0.951  0.1065 -0.5907 -0.4071
   31MOL   C17323633   0.543   3.734   0.943 -0.1327 -0.2006 -0.0483
   31MOL   C17423634   0.614   3.620   1.006 -0.0676  0.6194 -0.7852
   31MOL   O17523635   0.733   3.606   1.014  0.1703 -0.4170  0.2339
   31MOL   O17623636   0.533   3.534   1.058  0.6065 -0.2342  0.0127
   31MOL   C17723637   0.612   3.819   0.861 -0.6088 -0.4326  0.8535
   31MOL   C17823638   0.549   3.926   0.795 -0.8056  0.2330  0.3241
   31MOL   H17923639   7.843   4.135   0.619  0.7305 -2.1902  2.3258
   31MOL   H18023640   7.926   4.289   0.593  1.8074 -1.4985 -1.7047
   31MOL   H18123641   7.738   4.313   0.714  0.8841  0.1513 -1.9854
   31MOL   H18223642   7.776   4.192   0.836  1.3172  0.5006 -0.1107
   31MOL   H18323643   7.938   4.456   0.801 -3.6698  1.0832  0.0032
   31MOL   H18423644   7.865   4.517   1.004  1.6755 -0.1118 -1.7878
   31MOL   H18523645   7.728   4.495   0.880 -1.9295 -1.3860  0.1610
   31MOL   H18623646   0.017   4.368   1.006  0.3990  0.0566 -0.7562
   31MOL   H18723647   7.968   4.223   0.990 -0.8418  1.2530  2.8341
   31MOL   H18823648   0.154   4.200   0.890 -1.3426  1.2435  0.9004
   31MOL   H18923649   0.113   4.327   0.770  0.0036  1.0145  2.0544
   31MOL   H19023650   7.998   4.073   0.793 -1.7941  1.7319  0.1379
   31MOL   H19123651   0.046   4.007   0.576  2.0347  0.4440 -2.6463
   31MOL   H19223652   0.144   4.158   0.576  2.5076 -0.8268  1.2984
   31MOL   H19323653   0.222   3.829   0.879 -0.2679 -0.5088  0.1231
   31MOL   H19423654   0.344   3.681   1.015  1.6540 -0.1296  1.5850
   31MOL   H19523655   0.720   3.815   0.859 -0.6408 -1.7765  1.6382
   31MOL   H19623656   0.611   3.995   0.740  0.9249 -0.4964  1.3005
   31MOL   C19723657   0.578   2.966   1.140  0.7013 -0.0310 -0.0824
   31MOL   C19823658   0.527   3.106   1.106  0.9182 -0.8028  0.0430
   31MOL   C19923659   0.616   3.184   1.008  0.0634  0.1370  0.1125
   31MOL   C20023660   0.556   3.320   0.972  0.0376 -0.4109 -0.3894
   31MOL   O20123661   0.598   3.403   1.082  0.1946 -0.1164  0.1806
   31MOL   C20223662   0.769   3.190   1.049  0.1510  0.8886  0.4779
   31MOL   C20323663   0.814   3.050   1.087 -0.2439  0.4255  0.0726
   31MOL   C20423664   0.720   2.983   1.190 -0.1604 -0.0958 -0.3003
   31MOL   C20523665   0.771   2.847   1.242 -0.7030 -0.2515 -0.0690
   31MOL   O20623666   0.685   2.785   1.335  0.1384 -0.2846 -0.1433
   31MOL   C20723667   0.732   2.693   1.417 -0.0339 -0.6768  0.2494
   31MOL   O20823668   0.843   2.644   1.414  0.2406 -0.2311 -0.3630
   31MOL   C20923669   0.628   2.649   1.511  0.5580 -0.5063  0.1590
   31MOL   C21023670   0.501   2.713   1.525 -0.5375 -0.0078  0.1915
   31MOL   C21123671   0.413   2.685   1.631  0.0538 -0.0094 -0.5984
   31MOL   C21223672   0.439   2.571   1.710 -0.0089 -0.2134 -0.3481
   31MOL   C21323673   0.345   2.528   1.822  0.2343 -0.1214  0.9099
   31MOL   O21423674   0.337   2.408   1.867 -0.1048  0.0423  0.0876
   31MOL   O21523675   0.264   2.634   1.859 -0.5350 -0.2979  0.3611
   31MOL   C21623676   0.560   2.498   1.702  0.4957  0.7382 -0.0682
   31MOL   C21723677   0.652   2.538   1.599  0.2368  0.0784 -0.3725
   31MOL   H21823678   0.508   2.929   1.214  0.5089  0.9853  0.2555
   31MOL   H21923679   0.574   2.910   1.047 -1.5050 -0.5649  0.3158
   31MOL   H22023680   0.424   3.103   1.071  0.6903 -3.3947  0.8038
   31MOL   H22123681   0.516   3.172   1.192 -1.6924  0.8538 -1.4942
   31MOL   H22223682   0.612   3.122   0.918  0.7679  0.9088 -0.4679
   31MOL   H22323683   0.575   3.359   0.872  2.0021 -1.9445 -0.6375
   31MOL   H22423684   0.447   3.312   0.975  0.0458 -0.1823  1.1803
   31MOL   H22523685   0.830   3.226   0.966  0.9246 -1.8255 -0.1754
   31MOL   H22623686   0.777   3.256   1.135 -0.9197  1.7093 -0.0389
   31MOL   H22723687   0.915   3.055   1.128 -0.3933 -0.1354  0.5200
   31MOL   H22823688   0.816   2.978   1.005 -2.1467 -0.5859  0.8747
   31MOL   H22923689   0.725   3.049   1.276  0.1447 -1.3430  0.6658
   31MOL   H23023690   0.781   2.776   1.160  0.9056 -1.9195  1.4953
   31MOL   H23123691   0.873   2.847   1.280 -1.3152 -1.8777  1.7139
   31MOL   H23223692   0.478   2.799   1.464  0.9884 -0.4254 -1.0005
   31MOL   H23323693   0.316   2.731   1.641  0.8476  1.2068  2.0247
   31MOL   H23423694   0.597   2.412   1.756 -0.6109 -0.6440 -1.4670
   31MOL   H23523695   0.730   2.466   1.580  1.2047  1.3164 -1.1526
   31MOL   C23623696   7.744   2.599   2.130  0.4449  0.3077  0.1505
   31MOL   C23723697   7.857   2.563   2.040 -0.1954  0.1192 -0.0084
   31MOL   C23823698   7.995   2.618   2.074 -0.9010  0.3426 -0.1577
   31MOL   C23923699   0.051   2.587   1.959  0.6307  0.0124 -0.3871
   31MOL   O24023700   0.184   2.611   1.985  0.5786  0.2740  0.4747
   31MOL   C24123701   7.990   2.764   2.112 -0.6140  1.0648  0.3107
   31MOL   C24223702   7.876   2.804   2.208 -0.0829  0.1189  0.2479
   31MOL   C24323703   7.741   2.749   2.163 -0.0857 -0.3126 -0.7280
   31MOL   C24423704   7.625   2.785   2.258  0.3076 -0.4533 -0.2552
   31MOL   O24523705   7.634   2.712   2.379  0.4978  0.1266  0.1873
   31MOL   C24623706   7.663   2.761   2.498 -0.5059  0.5499 -0.6104
   31MOL   O24723707   7.628   2.875   2.537 -0.2961  0.0413 -0.5556
   31MOL   C24823708   7.726   2.651   2.585  0.4320 -0.6484 -0.3935
   31MOL   C24923709   7.729   2.515   2.546 -0.5855 -0.7687  0.3832
   31MOL   C25023710   7.777   2.409   2.628 -0.1993  0.4198 -0.1614
   31MOL   C25123711   7.810   2.444   2.763  0.8920  0.7483  0.5550
   31MOL   C25223712   7.848   2.340   2.866  0.6264  0.1705  0.1847
   31MOL   O25323713   7.873   2.369   2.983 -0.5557 -0.0970 -0.0082
   31MOL   O25423714   7.856   2.218   2.810  0.1132  0.5928  0.0378
   31MOL   C25523715   7.804   2.581   2.802  0.5441  0.7303 -0.0941
   31MOL   C25623716   7.760   2.684   2.715  0.2344 -0.1828  0.5170
   31MOL   H25723717   7.646   2.568   2.091  0.1605  1.9352 -0.4601
   31MOL   H25823718   7.766   2.538   2.218 -2.7878 -1.4959 -0.1949
   31MOL   H25923719   7.876   2.456   2.047  0.3991  0.3300  1.6390
   31MOL   H26023720   7.828   2.596   1.940 -2.3661  0.9204  0.8603
   31MOL   H26123721   8.034   2.570   2.164  0.1797 -0.7039 -1.1752
   31MOL   H26223722   0.040   2.482   1.929  0.7771  0.2064 -1.1188
   31MOL   H26323723   0.020   2.643   1.871 -1.0871 -0.1553  0.0800
   31MOL   H26423724   0.046   2.807   2.153 -0.3992 -0.0439  1.0198
   31MOL   H26523725   7.970   2.828   2.026  1.5612  2.1043  0.5522
   31MOL   H26623726   7.865   2.907   2.242  0.6230 -0.7297  3.1763
   31MOL   H26723727   7.909   2.764   2.304 -1.2651 -1.7982 -0.1265
   31MOL   H26823728   7.712   2.803   2.073 -1.4251  0.6675  0.2694
   31MOL   H26923729   7.608   2.890   2.279  0.0023 -0.9378  2.1348
   31MOL   H27023730   7.530   2.751   2.216  0.2597  1.4102 -1.7123
   31MOL   H27123731   7.705   2.487   2.445  0.2637 -0.2633  0.0378
   31MOL   H27223732   7.786   2.305   2.597  0.9022  0.1397  1.0540
   31MOL   H27323733   7.838   2.604   2.902 -1.9450 -1.6720  1.3787
   31MOL   H27423734   7.735   2.777   2.763 -0.7023  0.6614 -1.5759
   31MOL   C27523735   8.031   1.700   2.949  0.3885 -0.4793  0.4619
   31MOL   C27623736   7.969   1.831   2.900  0.0155 -0.2833  0.0795
   31MOL   C27723737   0.049   1.937   2.886 -0.9420 -0.3616  0.1764
   31MOL   C27823738   0.000   2.064   2.825 -0.5183 -0.3608  0.0615
   31MOL   O27923739   7.926   2.119   2.899  0.7430  0.4186 -0.1710
   31MOL   C28023740   0.119   1.962   3.020  0.0196  0.2129  0.1801
   31MOL   C28123741   0.169   1.830   3.076 -0.6579  0.1343 -0.1128
   31MOL   C28223742   0.061   1.712   3.090 -0.1633  0.6916  0.0841
   31MOL   C28323743   0.114   1.572   3.140 -0.5625  0.1861 -0.4753
   31MOL   O28423744   0.227   1.533   3.058 -0.3227 -0.1362 -0.7114
   31MOL   C28523745   0.341   1.479   3.112 -0.3689  0.6339  0.2334
   31MOL   O28623746   0.363   1.470   3.235  1.4478 -0.5129  1.3056
   31MOL   C28723747   0.427   1.429   2.997 -0.4845 -0.1966 -0.1279
   31MOL   C28823748   0.414   1.475   2.866 -0.4270  0.4077 -0.8830
   31MOL   C28923749   0.499   1.440   2.765  0.8188 -0.1979  0.2439
   31MOL   C29023750   0.608   1.361   2.794  0.4716 -0.1108 -0.0536
   31MOL   C29123751   0.716   1.344   2.691  0.3050  0.2686  0.3189
   31MOL   O29223752   0.712   1.399   2.580 -0.2169  0.0759 -0.1091
   31MOL   O29323753   0.818   1.270   2.727  0.0366 -1.0927  0.2480
   31MOL   C29423754   0.614   1.295   2.925 -0.6323  0.0081  0.5733
   31MOL   C29523755   0.530   1.334   3.027  0.4666 -0.6628  0.3926
   31MOL   H29623756   7.957   1.622   2.934  0.4772 -0.1473 -1.8880
   31MOL   H29723757   0.074   1.675   2.877  1.8094  3.2560  0.5839
   31MOL   H29823758   7.915   1.813   2.807 -1.6242  0.3019  0.8859
   31MOL   H29923759   7.883   1.858   2.962  1.4145 -1.0890  2.4593
   31MOL   H30023760   0.135   1.897   2.833  0.7329  2.3894  0.6864
   31MOL   H30123761   0.078   2.137   2.803 -0.4337 -1.0910 -2.1840
   31MOL   H30223762   7.998   2.038   2.726  0.4350  0.1768 -0.4540
   31MOL   H30323763   0.202   2.030   3.000  0.3070 -0.1515  0.1333
   31MOL   H30423764   0.042   2.005   3.084 -0.8451  1.4983 -1.6672
   31MOL   H30523765   0.204   1.846   3.178 -1.2532  0.0450  0.1089
   31MOL   H30623766   0.250   1.791   3.014 -0.1771  0.7573  0.1238
   31MOL   H30723767   8.022   1.745   3.163  0.8803  2.2413  0.4609
   31MOL   H30823768   0.132   1.569   3.247  1.0696  1.8166 -0.6866
   31MOL   H30923769   0.030   1.503   3.128 -0.5523  0.0920 -0.0187
   31MOL   H31023770   0.339   1.550   2.848 -0.4221  0.2507 -1.5874
   31MOL   H31123771   0.490   1.470   2.661  1.1921 -1.4544 -0.1672
   31MOL   H31223772   0.696   1.229   2.949 -0.4002  0.2746  0.5221
   31MOL   H31323773   0.545   1.305   3.130 -0.4945  1.0936  1.0696
   31MOL   C31423774   1.355   1.560   2.574  0.4565 -0.6705 -0.4840
   31MOL   C31523775   1.252   1.483   2.668  0.0720  0.3718  0.1459
   31MOL   C31623776   1.141   1.414   2.593 -0.1719  0.2606  0.0512
   31MOL   C31723777   1.034   1.366   2.687 -0.1216 -0.3680  0.5692
   31MOL   O31823778   0.937   1.274   2.633  0.2802 -0.0533  0.3404
   31MOL   C31923779   1.082   1.500   2.487  0.0901 -0.5166  0.8330
   31MOL   C32023780   1.183   1.584   2.404 -0.1346  0.3989  0.1772
   31MOL   C32123781   1.284   1.666   2.495  0.2093  0.3480  0.2455
   31MOL   C32223782   1.376   1.757   2.417 -0.4364 -0.2902  0.1621
   31MOL   O32323783   1.301   1.859   2.362  0.6172 -0.0158  0.8470
   31MOL   C32423784   1.342   1.988   2.352 -0.2383  0.2136  0.2242
   31MOL   O32523785   1.461   2.020   2.377 -0.4046  0.3726 -0.1371
   31MOL   C32623786   1.231   2.077   2.305 -0.7274 -0.1771 -0.4869
   31MOL   C32723787   1.097   2.031   2.303 -0.0110  0.2359  0.0683
   31MOL   C32823788   0.997   2.121   2.257 -0.0894  0.0211 -0.5203
   31MOL   C32923789   1.033   2.246   2.201 -0.0461 -0.4380  0.4228
   31MOL   C33023790   0.925   2.341   2.171 -0.2069 -0.4002  0.6859
   31MOL   O33123791   0.807   2.309   2.161  0.3950 -0.5839  0.4395
   31MOL   O33223792   0.978   2.459   2.141 -0.1115  0.0009 -0.3120
   31MOL   C33323793   1.170   2.279   2.198 -0.2603  0.1075 -0.6224
   31MOL   C33423794   1.267   2.199   2.256  0.2986 -0.7024 -0.2471
   31MOL   H33523795   1.429   1.600   2.645 -0.4418 -0.9611  0.6340
   31MOL   H33623796   1.417   1.500   2.508  0.1642 -0.8301 -0.6127
   31MOL   H33723797   1.315   1.405   2.710  0.6900 -0.5522 -2.3560
   31MOL   H33823798   1.204   1.553   2.736  0.1546  1.0086 -0.4397
   31MOL   H33923799   1.184   1.323   2.550 -0.6544  0.2530 -0.4175
   31MOL   H34023800   1.075   1.314   2.773 -1.5720 -3.1285 -0.3401
   31MOL   H34123801   0.977   1.443   2.740  0.9877  1.3947 -0.7299
   31MOL   H34223802   1.014   1.444   2.423 -0.3778  1.6973 -0.6662
   31MOL   H34323803   1.004   1.562   2.530  0.0222  0.1949 -0.2733
   31MOL   H34423804   1.135   1.657   2.339 -0.7861  0.7837  1.0882
   31MOL   H34523805   1.251   1.524   2.344  3.1681  4.0363  0.0949
   31MOL   H34623806   1.221   1.724   2.563  2.4202  1.4993  1.3559
   31MOL   H34723807   1.456   1.789   2.483 -0.0648 -0.9500  0.0312
   31MOL   H34823808   1.434   1.701   2.343  0.0137  0.1577  0.1701
   31MOL   H34923809   1.074   1.932   2.340  0.1995 -0.2131 -0.9897
   31MOL   H35023810   0.893   2.093   2.258 -0.6840  1.9472 -2.9533
   31MOL   H35123811   1.221   2.362   2.152  1.3748 -1.8770 -2.5277
   31MOL   H35223812   1.368   2.237   2.256 -0.9416  2.9433  2.5352
   31MOL   C35323813   0.575   2.827   1.968 -0.2663 -0.5534  0.3632
   31MOL   C35423814   0.712   2.785   2.020  0.1976  0.2433 -0.1939
   31MOL   C35523815   0.686   2.692   2.134 -0.9549  0.3560 -0.5575
   31MOL   C35623816   0.821   2.634   2.188 -0.3692 -0.3972 -0.6963
   31MOL   O35723817   0.879   2.558   2.085  0.6809  0.0179  0.3412
   31MOL   C35823818   0.615   2.763   2.242  0.1776 -0.0139 -0.0602
   31MOL   C35923819   0.482   2.833   2.194 -1.1378  0.2539 -0.2132
   31MOL   C36023820   0.500   2.910   2.069 -1.1049 -0.2909  1.4297
   31MOL   C36123821   0.354   2.960   2.034 -0.3407 -0.2337 -0.3223
   31MOL   O36223822   0.335   3.073   2.118 -0.2080 -0.1845  0.1123
   31MOL   C36323823   0.238   3.164   2.081 -0.2863  0.1655  0.4640
   31MOL   O36423824   0.150   3.139   2.002 -0.6654 -0.3731 -0.2949
   31MOL   C36523825   0.256   3.292   2.148 -0.3095  0.3265 -0.3564
   31MOL   C36623826   0.158   3.391   2.121 -0.3100  0.0796  0.1678
   31MOL   C36723827   0.154   3.512   2.196 -0.0737 -0.6999 -0.2644
   31MOL   C36823828   0.249   3.529   2.298 -0.2147 -0.5407  0.0046
   31MOL   C36923829   0.251   3.660   2.373 -0.9428  0.2905  0.7264
   31MOL   O37023830   0.323   3.688   2.473  0.0188  0.3699 -0.8693
   31MOL   O37123831   0.157   3.750   2.330  0.5250  0.3757 -0.3308
   31MOL   C37223832   0.353   3.436   2.319  0.4841 -0.2751  0.4342
   31MOL   C37323833   0.348   3.317   2.247  0.2034  0.4362 -0.1787
   31MOL   H37423834   0.589   2.890   1.880 -2.6564  2.8272  2.2627
   31MOL   H37523835   0.513   2.740   1.947 -0.9073 -0.2415  0.9435
   31MOL   H37623836   0.758   2.723   1.943 -0.7486 -0.1270 -0.4797
   31MOL   H37723837   0.771   2.873   2.042 -0.2130  0.7299 -1.0288
   31MOL   H37823838   0.627   2.607   2.098  0.3206 -0.7156 -0.1746
   31MOL   H37923839   0.889   2.709   2.229 -0.6780 -1.5631  2.0490
   31MOL   H38023840   0.804   2.578   2.280  2.4789 -0.4227 -0.1340
   31MOL   H38123841   0.582   2.707   2.330  0.6649  4.0221  2.7938
   31MOL   H38223842   0.680   2.841   2.281 -0.8385  0.7998  0.0355
   31MOL   H38323843   0.435   2.901   2.265  2.3986  2.1031  0.4641
   31MOL   H38423844   0.410   2.755   2.168  0.5490 -0.8854 -1.5066
   31MOL   H38523845   0.563   2.995   2.094  1.8800 -1.6339 -1.0408
   31MOL   H38623846   0.340   2.996   1.932 -0.4153 -0.1518 -0.2827
   31MOL   H38723847   0.277   2.883   2.031 -1.2074  0.5920  0.2929
   31MOL   H38823848   0.087   3.380   2.040 -0.3481  1.5024 -0.0143
   31MOL   H38923849   0.080   3.586   2.171 -0.0962 -0.5240  0.3107
   31MOL   H39023850   0.433   3.457   2.389 -0.5183 -1.1631  1.8999
   31MOL   H39123851   0.423   3.240   2.259  2.0423  2.2971  0.5049
   31MOL   C39223852   0.303   4.275   2.082  0.4859  0.8768  0.0103
   31MOL   C39323853   0.335   4.153   2.164 -0.0573 -0.0628  0.3004
   31MOL   C39423854   0.215   4.082   2.237  0.8151  0.6207  0.8963
   31MOL   C39523855   0.272   3.958   2.311 -0.2537  0.1671  0.6949
   31MOL   O39623856   0.170   3.886   2.385 -0.0820 -0.0216 -0.2740
   31MOL   C39723857   0.151   4.186   2.329  0.1026  0.0002 -0.3921
   31MOL   C39823858   0.118   4.312   2.256  0.0017  0.4483  0.1051
   31MOL   C39923859   0.233   4.379   2.172 -0.4396  0.0254  0.1240
   31MOL   C40023860   0.191   4.502   2.090 -0.1291  0.1715  0.5468
   31MOL   O40123861   0.175   4.609   2.178 -0.5489  0.3941 -0.0312
   31MOL   C40223862   0.101   4.717   2.143 -0.9223  0.0201 -0.1647
   31MOL   O40323863   0.076   4.745   2.027  0.5516 -0.7546  0.5020
   31MOL   C40423864   0.047   4.801   2.263  0.7039  0.3974 -0.3784
   31MOL   C40523865   0.057   4.763   2.397 -0.3168  0.2811 -0.5675
   31MOL   C40623866   0.015   4.847   2.505 -0.2292  0.3659 -0.0623
   31MOL   C40723867   7.993   4.971   2.476  0.9411  0.4883 -0.9220
   31MOL   C40823868   7.946   5.064   2.580  0.2495 -0.1903  0.3182
   31MOL   O40923869   7.894   5.172   2.563 -0.1753  0.1941  0.3421
   31MOL   O41023870   7.983   5.020   2.700 -0.5695 -0.1504  0.0354
   31MOL   C41123871   7.980   5.006   2.338 -0.3895 -0.0357  0.3065
   31MOL   C41223872   8.019   4.921   2.232 -0.5670  0.1806 -0.0185
   31MOL   H41323873   0.397   4.312   2.044  1.5911 -1.7240  0.0905
   31MOL   H41423874   0.246   4.242   1.996 -2.3510  1.3765  1.6205
   31MOL   H41523875   0.391   4.085   2.099  1.4136  1.9067 -0.5508
   31MOL   H41623876   0.416   4.176   2.233  0.3242 -1.4705  0.3489
   31MOL   H41723877   0.141   4.043   2.167  0.9663 -0.5017  1.3631
   31MOL   H41823878   0.335   3.899   2.244  0.2495 -0.2882  1.5586
   31MOL   H41923879   0.355   3.994   2.372  0.5558  0.6281 -0.6618
   31MOL   H42023880   0.063   4.146   2.381  0.1224  1.1901  0.5742
   31MOL   H42123881   0.225   4.196   2.408 -1.3957 -1.9422  1.3200
   31MOL   H42223882   0.082   4.387   2.326 -1.5090  2.1243 -2.4017
   31MOL   H42323883   0.034   4.272   2.198  0.0512  0.9276 -0.2948
   31MOL   H42423884   0.311   4.414   2.240 -1.6223 -0.8441  1.9771
   31MOL   H42523885   0.266   4.522   2.014 -0.9693 -0.3903 -0.4357
   31MOL   H42623886   0.099   4.467   2.044 -0.4285 -0.6011  1.7012
   31MOL   H42723887   0.098   4.667   2.425 -0.5659 -0.0672 -1.4086
   31MOL   H42823888   0.020   4.807   2.606  2.3181  3.2213  1.0183
   31MOL   H42923889   7.932   5.100   2.318  1.7649  2.1220  4.5449
   31MOL   H43023890   8.021   4.957   2.131 -0.5678 -1.0942 -0.4772
   31MOL   C43123891   7.747   5.539   2.958  0.2134 -0.4264 -0.0213
   31MOL   C43223892   7.867   5.442   2.923 -0.4117 -0.4556 -0.5908
   31MOL   C43323893   7.831   5.296   2.894  0.3943 -0.0144 -0.2841
   31MOL   C43423894   7.951   5.208   2.855 -0.2907 -0.1242  0.3013
   31MOL   O43523895   7.901   5.081   2.814  0.1632  0.0819  0.3239
   31MOL   C43623896   7.770   5.238   3.023  0.3795 -0.3394 -0.4489
   31MOL   C43723897   7.652   5.322   3.066 -0.5955 -0.6360  0.0271
   31MOL   C43823898   7.672   5.477   3.083  0.9102  0.3324  0.3503
   31MOL   C43923899   7.539   5.552   3.124 -0.1969 -0.0961 -0.0038
   31MOL   O44023900   7.499   5.500   3.249 -0.4910 -0.0318  0.2006
   31MOL   C44123901   7.404   5.566   3.322 -0.3133  0.3935  0.6166
   31MOL   O44223902   7.348   5.659   3.284  0.1617 -0.6199 -0.1705
   31MOL   C44323903   7.396   5.519   3.471 -0.3323 -0.1335  0.6504
   31MOL   C44423904   7.300   5.578   3.556  0.9624 -0.1421  0.6271
   31MOL   C44523905   7.285   5.534   3.690 -0.1127  0.0020  0.0356
   31MOL   C44623906   7.357   5.422   3.741  0.2744 -0.4419  0.5175
   31MOL   C44723907   7.350   5.371   3.876 -0.3292  0.1896  0.0497
   31MOL   O44823908   7.433   5.303   3.934  0.5333  0.7169  0.0113
   31MOL   O44923909   7.230   5.403   3.929 -0.0151  0.2033  0.7681
   31MOL   C45023910   7.446   5.369   3.647 -0.4622  0.6687  0.1232
   31MOL   C45123911   7.472   5.415   3.520 -0.9895 -0.2151  0.3689
   31MOL   H45223912   7.791   5.638   2.971  0.5161 -0.7560  1.5682
   31MOL   H45323913   7.685   5.543   2.869  1.2950 -0.6487 -0.7996
   31MOL   H45423914   7.929   5.478   2.841 -0.1171  1.8641  0.6120
   31MOL   H45523915   7.943   5.450   3.001  1.5870  0.5794 -2.5866
   31MOL   H45623916   7.748   5.302   2.824  1.2365  0.2932 -1.2660
   31MOL   H45723917   8.013   5.249   2.775  0.8197 -1.4458  0.4528
   31MOL   H45823918   8.017   5.188   2.940  1.5127 -0.0517 -1.0625
   31MOL   H45923919   7.745   5.132   3.021  1.3084 -0.5574 -0.6562
   31MOL   H46023920   7.844   5.245   3.102  0.3652 -0.5097 -0.4205
   31MOL   H46123921   7.612   5.277   3.157  0.9980  1.6633  1.9288
   31MOL   H46223922   7.565   5.317   3.001 -0.7586  0.7109  0.1242
   31MOL   H46323923   7.746   5.483   3.163  2.1721  1.8789 -0.8887
   31MOL   H46423924   7.571   5.655   3.141 -0.6797  0.3123 -1.5576
   31MOL   H46523925   7.466   5.551   3.043 -0.0428  3.2994 -0.2482
   31MOL   H46623926   7.237   5.660   3.526 -1.6087 -1.5986  1.9107
   31MOL   H46723927   7.213   5.587   3.751 -0.4197 -1.8381  1.3205
   31MOL   H46823928   7.507   5.284   3.673 -0.9900  0.5612  1.0172
   31MOL   H46923929   7.538   5.355   3.458  1.0687 -0.2152  2.4920
   31MOL   C47023930   7.195   5.356   4.520 -0.3374 -0.0630  0.2009
   31MOL   C47123931   7.183   5.370   4.367  0.2427 -0.6322 -0.3717
   31MOL   C47223932   7.277   5.471   4.295  0.3514  0.1245  0.3834
   31MOL   C47323933   7.235   5.503   4.148  0.1915  0.7233 -0.0511
   31MOL   O47423934   7.228   5.378   4.079 -0.3926  0.0119  0.0682
   31MOL   C47523935   7.278   5.604   4.377  0.0900  0.2694  0.0253
   31MOL   C47623936   7.285   5.583   4.534  0.5360 -0.4751 -0.2204
   31MOL   C47723937   7.176   5.488   4.589 -0.4682 -0.2354 -0.2776
   31MOL   C47823938   7.185   5.471   4.745 -0.2447 -0.3500  0.1784
   31MOL   O47923939   7.141   5.593   4.814  0.1218 -0.4595 -0.1165
   31MOL   C48023940   7.201   5.629   4.931  0.0614 -0.1403  0.0920
   31MOL   O48123941   7.259   5.553   5.011  0.0530 -0.0725  0.3505
   31MOL   C48223942   7.159   5.770   4.956  0.0152 -0.2167  0.5221
   31MOL   C48323943   7.080   5.845   4.867 -0.1400  0.1826 -0.1721
   31MOL   C48423944   7.033   5.971   4.897  0.2842  0.6255 -0.2706
   31MOL   C48523945   7.069   6.030   5.022 -0.4798 -0.2897 -0.1210
   31MOL   C48623946   7.028   6.172   5.060 -0.1428 -0.2375  0.2895
   31MOL   O48723947   7.059   6.230   5.166  0.2173 -0.2323  0.0115
   31MOL   O48823948   6.940   6.239   4.973 -0.0119 -0.2531  0.5103
   31MOL   C48923949   7.143   5.955   5.119  0.9469 -0.6346 -0.4900
   31MOL   C49023950   7.186   5.828   5.084 -0.6793  0.4640 -0.6019
   31MOL   H49123951   7.124   5.286   4.564  0.5664 -2.4027 -1.9479
   31MOL   H49223952   7.289   5.309   4.551 -1.5974 -1.1901  2.3943
   31MOL   H49323953   7.207   5.273   4.325  1.9712  0.0762 -1.0537
   31MOL   H49423954   7.085   5.406   4.334 -1.1505 -0.3620  3.7294
   31MOL   H49523955   7.379   5.434   4.288  0.4805  0.7589 -1.2796
   31MOL   H49623956   7.141   5.558   4.140  0.9041  2.1544  1.1694
   31MOL   H49723957   7.312   5.562   4.100  0.0863 -0.7313 -2.0647
   31MOL   H49823958   7.366   5.660   4.343 -1.4514  1.7879 -1.5777
   31MOL   H49923959   7.199   5.671   4.344 -0.7032 -0.6035  0.1608
   31MOL   H50023960   7.280   5.678   4.587  0.0771 -0.3764 -0.4347
   31MOL   H50123961   7.378   5.532   4.559  1.4198  0.4541 -1.5168
   31MOL   H50223962   7.073   5.517   4.567  0.1317  1.0974 -1.4710
   31MOL   H50323963   7.125   5.386   4.778 -0.8398 -0.3494 -0.8923
   31MOL   H50423964   7.290   5.457   4.773 -0.1146  1.2027  0.4960
   31MOL   H50523965   7.053   5.803   4.771  1.8662 -1.7161  0.0772
   31MOL   H50623966   6.978   6.017   4.817 -1.2283 -0.9895 -0.1883
   31MOL   H50723967   7.174   6.001   5.211  0.9444 -0.8943 -0.3609
   31MOL   H50823968   7.240   5.777   5.163 -2.0676 -0.3991 -0.1785
   31MOL   C50923969   6.842   6.771   5.186  1.0885  0.1455  0.4837
   31MOL   C51023970   6.888   6.631   5.156  0.0553  0.0747 -0.5193
   31MOL   C51123971   6.882   6.615   5.003 -0.4347 -0.2108  0.1911
   31MOL   C51223972   6.944   6.477   4.961 -1.0015  0.7370 -0.0708
   31MOL   O51323973   6.880   6.369   5.023 -0.7119 -0.7337 -0.2026
   31MOL   C51423974   6.737   6.636   4.953  0.9335 -0.0755 -0.4462
   31MOL   C51523975   6.684   6.776   4.987  0.0002  0.0626 -0.4034
   31MOL   C51623976   6.698   6.810   5.137 -0.5465 -0.1952 -0.0375
   31MOL   C51723977   6.655   6.963   5.161  0.6048  0.2059  0.2375
   31MOL   O51823978   6.601   6.980   5.292  0.1423  0.1209  0.2627
   31MOL   C51923979   6.674   7.018   5.390 -0.5066 -0.4349  0.3626
   31MOL   O52023980   6.799   7.023   5.403 -0.3027  0.2185  0.0789
   31MOL   C52123981   6.590   7.056   5.503  0.7478 -0.3782  0.1362
   31MOL   C52223982   6.647   7.062   5.632  1.3028 -0.2694  0.1144
   31MOL   C52323983   6.575   7.117   5.736  1.1953 -0.0005 -0.0865
   31MOL   C52423984   6.437   7.144   5.725 -0.5710  0.5850  0.4297
   31MOL   C52523985   6.346   7.176   5.839 -0.2307  0.3068  0.2383
   31MOL   O52623986   6.243   7.240   5.823 -0.7302  0.1102  0.1434
   31MOL   O52723987   6.387   7.137   5.961  0.1226 -0.0493 -0.2738
   31MOL   C52823988   6.381   7.139   5.593 -0.1127  0.0983 -0.3192
   31MOL   C52923989   6.453   7.093   5.486 -0.1201 -0.7235  0.3571
   31MOL   H53023990   6.848   6.777   5.295 -0.2805  1.2365  0.5107
   31MOL   H53123991   6.906   6.853   5.153 -1.2660  1.4461 -0.9798
   31MOL   H53223992   6.991   6.630   5.191 -0.1242  1.6136  0.0886
   31MOL   H53323993   6.827   6.557   5.208 -1.0896  0.5396 -1.1715
   31MOL   H53423994   6.944   6.686   4.949  1.8498 -1.1860  1.4521
   31MOL   H53523995   6.936   6.468   4.852 -1.4312 -0.6846  0.0752
   31MOL   H53623996   7.049   6.468   4.990 -0.7631 -0.6925 -1.3091
   31MOL   H53723997   6.719   6.618   4.847  0.7831  0.5230 -0.5225
   31MOL   H53823998   6.669   6.570   5.007  0.9189  0.8198  0.6197
   31MOL   H53923999   6.586   6.796   4.943  0.3432  0.6332 -0.9175
   31MOL   H54024000   6.749   6.846   4.935 -0.2538  1.0929  0.6552
   31MOL   H54124001   6.629   6.747   5.193 -1.3072 -0.0442 -0.7884
   31MOL   H54224002   6.743   7.026   5.153  2.1085 -1.2599  3.9256
   31MOL   H54324003   6.586   6.999   5.084  0.9336  0.5423  0.0978
   31MOL   H54424004   6.754   7.047   5.634  1.3087 -0.3607 -0.7629
   31MOL   H54524005   6.620   7.133   5.833 -1.0131  1.3454  0.7495
   31MOL   H54624006   6.274   7.147   5.590 -0.2931 -1.9237  0.2206
   31MOL   H54724007   6.409   7.080   5.388  1.2010 -0.6216 -0.2517
   31MOL   C54824008   5.988   6.915   6.302 -0.0188 -0.0785  0.2061
   31MOL   C54924009   6.113   7.001   6.298 -0.4182 -0.4798 -0.4120
   31MOL   C55024010   6.172   7.025   6.163 -0.0012 -0.2101  0.3412
   31MOL   C55124011   6.301   7.117   6.181 -0.8757  0.2294 -0.8949
   31MOL   O55224012   6.315   7.209   6.074 -0.4932 -0.0013  0.4533
   31MOL   C55324013   6.207   6.883   6.100 -0.1211 -0.0103  0.0553
   31MOL   C55424014   6.079   6.796   6.090  0.0747 -0.1884  0.4312
   31MOL   C55524015   6.009   6.779   6.232  0.0424  0.1770 -0.1225
   31MOL   C55624016   5.873   6.712   6.221  0.6593 -0.0822 -0.2758
   31MOL   O55724017   5.812   6.695   6.345 -0.6248  0.0126  0.6438
   31MOL   C55824018   5.685   6.652   6.351  0.0531 -1.4847 -0.1839
   31MOL   O55924019   5.615   6.627   6.249 -0.0912 -0.1237 -0.0906
   31MOL   C56024020   5.633   6.632   6.491 -0.2425  0.1899 -0.4423
   31MOL   C56124021   5.499   6.665   6.515  0.1161  0.0017  0.2091
   31MOL   C56224022   5.438   6.656   6.640 -0.7382 -0.7203  0.0315
   31MOL   C56324023   5.515   6.612   6.751 -0.6541 -0.1902  0.2251
   31MOL   C56424024   5.455   6.615   6.888 -0.1490  0.1027 -0.1305
   31MOL   O56524025   5.524   6.597   6.988  0.5216 -0.0901 -0.2694
   31MOL   O56624026   5.326   6.645   6.893 -0.1716 -0.1175 -0.0228
   31MOL   C56724027   5.648   6.584   6.729 -0.3766  0.0648 -0.6384
   31MOL   C56824028   5.710   6.589   6.601 -0.3149 -1.0403  0.4091
   31MOL   H56924029   5.942   6.903   6.400 -1.0291  0.0782 -0.2325
   31MOL   H57024030   5.916   6.960   6.233 -1.0582  0.0962  1.3864
   31MOL   H57124031   6.101   7.098   6.347  2.8710  0.9921 -2.3399
   31MOL   H57224032   6.184   6.955   6.367  0.3651  0.0178 -0.8678
   31MOL   H57324033   6.094   7.071   6.103  0.2769  1.4811  1.2441
   31MOL   H57424034   6.305   7.171   6.275 -1.5472 -0.5422 -0.4084
   31MOL   H57524035   6.391   7.056   6.180 -0.3848  0.9232 -0.1711
   31MOL   H57624036   6.245   6.893   5.999 -2.9423 -0.8951 -1.1331
   31MOL   H57724037   6.286   6.839   6.160  0.9272 -0.4698 -1.6332
   31MOL   H57824038   6.094   6.695   6.050  0.8903 -0.1210  0.5663
   31MOL   H57924039   6.010   6.843   6.020  3.3311  0.4129 -2.5163
   31MOL   H58024040   6.081   6.722   6.291  0.5409  3.2363  2.3788
   31MOL   H58124041   5.808   6.760   6.148 -1.3437 -2.1265  0.1317
   31MOL   H58224042   5.891   6.611   6.184 -0.9541  0.4571 -2.6440
   31MOL   H58324043   5.435   6.692   6.432  0.2059 -1.1173 -0.2264
   31MOL   H58424044   5.337   6.694   6.645  0.0796  1.7262 -1.0710
   31MOL   H58524045   5.714   6.564   6.812  1.5750  1.0923 -1.8742
   31MOL   H58624046   5.816   6.570   6.601 -0.3148 -1.0393  0.2996
   31MOL   C58724047   5.293   6.170   7.225 -0.1167  1.1077 -0.3505
   31MOL   C58824048   5.201   6.288   7.177  0.2684 -0.1909  0.2285
   31MOL   C58924049   5.288   6.400   7.114  0.9005 -0.8101  0.4458
   31MOL   C59024050   5.195   6.511   7.043  0.0277 -0.2272  0.0668
   31MOL   O59124051   5.264   6.635   7.033 -0.0292 -0.6179 -0.2576
   31MOL   C59224052   5.367   6.448   7.236  0.2570  0.6103 -0.4603
   31MOL   C59324053   5.462   6.336   7.291  0.4223 -0.1411 -0.4056
   31MOL   C59424054   5.382   6.217   7.339 -0.2212  0.7266  0.0868
   31MOL   C59524055   5.482   6.103   7.386  0.9363 -0.2261  0.6308
   31MOL   O59624056   5.528   6.131   7.516  0.1441  0.7805 -0.2682
   31MOL   C59724057   5.519   6.036   7.615  0.8703  0.0853  0.0906
   31MOL   O59824058   5.461   5.924   7.594  0.2696  0.3108 -0.5673
   31MOL   C59924059   5.562   6.083   7.754  0.0370 -0.0288 -0.3493
   31MOL   C60024060   5.636   6.195   7.771 -0.3445 -0.6656 -0.7754
   31MOL   C60124061   5.655   6.250   7.899  0.4146  0.7342  0.4040
   31MOL   C60224062   5.630   6.168   8.012  0.0710  0.8144  0.0666
   31MOL   C60324063   5.651   6.217   0.120  0.7368 -0.1706  0.4812
   31MOL   O60424064   5.582   6.174   0.214 -0.1511 -0.0954  0.6145
   31MOL   O60524065   5.756   6.315   0.138  0.0426 -0.2856  0.3747
   31MOL   C60624066   5.568   6.047   7.995 -0.0553 -0.0740  0.2519
   31MOL   C60724067   5.515   6.010   7.866  0.9085 -0.3092  0.7105
   31MOL   H60824068   5.235   6.081   7.250  0.5577  0.7142 -0.1625
   31MOL   H60924069   5.348   6.137   7.137 -1.8728  0.4957 -1.2427
   31MOL   H61024070   5.122   6.247   7.115 -0.4656  0.9750  0.3676
   31MOL   H61124071   5.137   6.320   7.260 -1.9069 -2.7054 -0.4247
   31MOL   H61224072   5.355   6.361   7.037  0.8295  1.6706 -0.9567
   31MOL   H61324073   5.157   6.498   6.942  2.5787  0.9788 -1.1098
   31MOL   H61424074   5.119   6.544   7.114 -0.9123  3.6109 -2.5929
   31MOL   H61524075   5.422   6.539   7.210  2.4170 -0.0772  1.5368
   31MOL   H61624076   5.300   6.471   7.318  0.6590  0.4297 -0.0782
   31MOL   H61724077   5.520   6.379   7.373 -0.5636  2.9791 -1.2630
   31MOL   H61824078   5.524   6.295   7.211  2.2130  1.2882  0.1932
   31MOL   H61924079   5.323   6.245   7.427  0.5063  0.2199  0.7333
   31MOL   H62024080   5.423   6.012   7.394 -2.1136  1.6669  0.5082
   31MOL   H62124081   5.565   6.098   7.316  0.3049  3.4282 -0.4973
   31MOL   H62224082   5.657   6.258   7.686 -1.2357  1.2637  0.3825
   31MOL   H62324083   5.693   6.350   7.913  0.3059  0.8926 -0.4283
   31MOL   H62424084   5.548   5.985   0.045  1.4595  0.7551  1.2383
   31MOL   H62524085   5.455   5.921   7.863  0.0633  0.2289  1.5538
   31MOL   C62624086   5.956   6.310   0.726 -0.2986 -0.2379 -0.3980
   31MOL   C62724087   5.926   6.252   0.589  0.4019 -0.7336  0.3738
   31MOL   C62824088   5.867   6.356   0.493  0.4554 -0.3406 -0.2483
   31MOL   C62924089   5.846   6.287   0.351 -0.0983 -0.4956  0.4660
   31MOL   O63024090   5.755   6.375   0.279  0.4914  0.2368 -0.6713
   31MOL   C63124091   5.731   6.415   0.553  0.3283 -0.3216 -0.4581
   31MOL   C63224092   5.752   6.460   0.696  0.1304  0.0959 -0.1815
   31MOL   C63324093   5.829   6.363   0.787  0.1982 -0.5186  0.0566
   31MOL   C63424094   5.843   6.431   0.931  0.2533 -0.1272  1.1386
   31MOL   O63524095   5.909   6.338   1.013  0.3673 -0.3748  0.1523
   31MOL   C63624096   5.843   6.227   1.066  0.1825  0.3842  0.8056
   31MOL   O63724097   5.726   6.217   1.066  1.1810  0.0100  0.1358
   31MOL   C63824098   5.928   6.129   1.142 -0.7344  0.1163  0.3290
   31MOL   C63924099   6.067   6.143   1.143  0.2936 -0.4079  0.7020
   31MOL   C64024100   6.149   6.039   1.200  0.2354  0.6940 -0.1663
   31MOL   C64124101   6.092   5.922   1.255 -0.5175  0.6087 -0.4558
   31MOL   C64224102   6.178   5.804   1.304 -0.6370  1.1031  0.2975
   31MOL   O64324103   6.295   5.800   1.286 -0.3510  0.3117 -0.4091
   31MOL   O64424104   6.110   5.696   1.352 -0.0444 -0.0207  0.7236
   31MOL   C64524105   5.953   5.915   1.249 -0.0853 -1.0280 -0.3870
   31MOL   C64624106   5.869   6.015   1.196  0.4849 -0.1842 -0.7616
   31MOL   H64724107   6.005   6.232   0.784  1.0249 -0.0279 -1.2292
   31MOL   H64824108   6.029   6.389   0.711  1.6751 -1.9781 -0.0890
   31MOL   H64924109   6.018   6.214   0.544  0.9195 -0.1604  0.9314
   31MOL   H65024110   5.855   6.171   0.591  1.3353 -1.5165  2.4355
   31MOL   H65124111   5.948   6.428   0.479  1.5267 -1.5211 -0.2173
   31MOL   H65224112   5.940   6.288   0.296 -1.0838  1.9789 -1.2814
   31MOL   H65324113   5.807   6.187   0.369 -0.6193 -0.0823  1.6930
   31MOL   H65424114   5.691   6.499   0.497  1.8148  0.1030 -0.9026
   31MOL   H65524115   5.656   6.335   0.555  0.7506 -0.7937 -2.3609
   31MOL   H65624116   5.650   6.469   0.732 -0.6857 -0.2350 -2.3309
   31MOL   H65724117   5.806   6.554   0.694 -0.9619  0.7901  1.9988
   31MOL   H65824118   5.764   6.277   0.802 -0.4009 -0.6805 -3.0643
   31MOL   H65924119   5.921   6.507   0.927 -0.7420  0.8713  0.5163
   31MOL   H66024120   5.747   6.459   0.975  0.3847  2.6849 -0.3085
   31MOL   H66124121   6.115   6.229   1.100  0.0213  0.0083  1.2349
   31MOL   H66224122   6.256   6.051   1.196  0.7337 -1.9090  3.2104
   31MOL   H66324123   5.907   5.832   1.299  0.8073 -0.2455  1.7792
   31MOL   H66424124   5.761   6.011   1.202  0.5142  1.2615  1.1058
   31MOL   C66524125   6.391   5.218   1.131 -0.6080 -0.8121 -0.4100
   31MOL   C66624126   6.328   5.359   1.160  0.1340  0.0018 -0.6495
   31MOL   C66724127   6.187   5.350   1.227  0.4765  0.8541  0.6008
   31MOL   C66824128   6.118   5.487   1.243  0.2378 -0.0083  0.5297
   31MOL   O66924129   6.188   5.567   1.338  0.1119 -0.9903 -0.4606
   31MOL   C67024130   6.094   5.250   1.161 -0.9083  0.6176 -0.4758
   31MOL   C67124131   6.160   5.110   1.139 -0.4272  0.9159 -0.2531
   31MOL   C67224132   6.293   5.122   1.063  0.2950  1.4154 -0.4464
   31MOL   C67324133   6.356   4.986   1.042 -0.2148 -0.2599 -0.1617
   31MOL   O67424134   6.317   4.927   0.920  0.4786 -0.1001  0.1189
   31MOL   C67524135   6.358   4.802   0.886  1.1665 -0.3364 -0.2418
   31MOL   O67624136   6.412   4.721   0.964 -0.2303 -0.3074 -0.2642
   31MOL   C67724137   6.318   4.753   0.751  0.8712 -0.5366  0.0177
   31MOL   C67824138   6.360   4.631   0.700 -0.1137  0.0412  0.4480
   31MOL   C67924139   6.318   4.588   0.574  0.9087 -0.5018  1.4031
   31MOL   C68024140   6.228   4.664   0.495  0.2398 -0.5895  0.1154
   31MOL   C68124141   6.180   4.629   0.357  0.1039 -0.1367 -0.2835
   31MOL   O68224142   6.096   4.692   0.292  0.4284  0.1291  0.1065
   31MOL   O68324143   6.244   4.522   0.312 -0.2784 -0.0028  0.2777
   31MOL   C68424144   6.184   4.787   0.547  0.3560 -0.0684  0.0649
   31MOL   C68524145   6.223   4.828   0.673 -0.4838 -0.3228 -0.7905
   31MOL   H68624146   6.472   5.234   1.060  0.8716 -0.8531  1.2297
   31MOL   H68724147   6.439   5.167   1.215  0.7055 -0.5516 -0.9907
   31MOL   H68824148   6.392   5.428   1.216 -2.4767  1.7337  0.2624
   31MOL   H68924149   6.309   5.410   1.065  0.7413 -0.6639 -1.1356
   31MOL   H69024150   6.213   5.312   1.325  0.3835 -0.8004  0.0039
   31MOL   H69124151   6.116   5.532   1.143  2.0589 -1.9697 -0.4418
   31MOL   H69224152   6.015   5.472   1.274  1.3101 -0.7684  3.8811
   31MOL   H69324153   6.003   5.227   1.216 -2.5594 -1.0198 -3.7164
   31MOL   H69424154   6.056   5.290   1.067 -0.1922  0.3652 -0.8790
   31MOL   H69524155   6.105   5.043   1.073  2.1500 -1.0398 -0.5272
   31MOL   H69624156   6.168   5.062   1.237 -0.1494  0.6820 -0.3904
   31MOL   H69724157   6.264   5.155   0.963 -2.1336  2.1113  0.4504
   31MOL   H69824158   6.465   4.980   1.038 -0.3118 -0.4746 -3.4629
   31MOL   H69924159   6.328   4.919   1.123  0.8261 -1.0720 -0.4608
   31MOL   H70024160   6.421   4.564   0.759  0.5314 -1.8537 -2.2764
   31MOL   H70124161   6.353   4.494   0.533 -1.4221 -1.7222  2.0699
   31MOL   H70224162   6.131   4.851   0.478  0.5645 -0.5772 -0.5731
   31MOL   H70324163   6.194   4.928   0.700 -0.0567 -0.6104  0.8029
   31MOL   C70424164   6.436   4.128   0.274  0.1847  0.1891 -0.0371
   31MOL   C70524165   6.360   4.215   0.175  0.3626 -0.3494 -0.1455
   31MOL   C70624166   6.222   4.251   0.240  0.1078 -0.5804 -0.0874
   31MOL   C70724167   6.140   4.362   0.173 -0.9601  0.9397  0.8415
   31MOL   O70824168   6.211   4.487   0.175 -0.3480 -0.3479  0.5934
   31MOL   C70924169   6.142   4.123   0.264  0.0193  0.7385  0.1764
   31MOL   C71024170   6.215   4.019   0.346  0.0018 -0.0030 -0.7443
   31MOL   C71124171   6.360   3.992   0.291  0.0182 -0.8940  0.1618
   31MOL   C71224172   6.426   3.904   0.389 -0.3102  0.7999 -0.1058
   31MOL   O71324173   6.445   3.964   0.517 -0.3859 -0.0415  0.5720
   31MOL   C71424174   6.517   3.905   0.610 -0.2412  0.6249 -0.5045
   31MOL   O71524175   6.559   3.788   0.594 -0.9520  0.0658  0.3935
   31MOL   C71624176   6.544   3.998   0.732 -0.3237  0.9190  0.6303
   31MOL   C71724177   6.580   3.941   0.853 -0.2629  0.1926  0.1918
   31MOL   C71824178   6.603   4.023   0.965  0.2384  0.3779 -0.2259
   31MOL   C71924179   6.591   4.165   0.955 -0.0296  0.6283 -0.5142
   31MOL   C72024180   6.620   4.252   1.068  0.5810 -0.3114 -0.1396
   31MOL   O72124181   6.645   4.374   1.055  0.0358  0.9614  0.1730
   31MOL   O72224182   6.619   4.191   1.180 -0.3511  0.5663 -0.8982
   31MOL   C72324183   6.555   4.220   0.827  0.7314 -0.5232  0.8703
   31MOL   C72424184   6.533   4.138   0.719  0.2771 -0.4247  0.2125
   31MOL   H72524185   6.537   4.106   0.238 -0.2911 -0.7168 -0.8412
   31MOL   H72624186   6.450   4.175   0.371 -1.0331  0.5219 -0.0116
   31MOL   H72724187   6.420   4.304   0.157  0.4882 -0.1595  1.1643
   31MOL   H72824188   6.340   4.162   0.082 -2.1846 -3.2958  1.9668
   31MOL   H72924189   6.238   4.284   0.343 -0.1722  0.6228 -0.4172
   31MOL   H73024190   6.111   4.338   0.071  1.9413  0.3994  0.0888
   31MOL   H73124191   6.049   4.385   0.228 -1.1259 -0.5672  1.2192
   31MOL   H73224192   6.047   4.136   0.315 -0.9429  0.4710 -1.5201
   31MOL   H73324193   6.110   4.092   0.164 -1.0531  0.0738  0.7245
   31MOL   H73424194   6.161   3.924   0.342 -0.9050  0.4461  0.5754
   31MOL   H73524195   6.215   4.050   0.450 -1.2192 -2.1935 -0.0664
   31MOL   H73624196   6.364   3.949   0.191 -2.0889 -0.9361  0.0827
   31MOL   H73724197   6.360   3.818   0.401  0.1676  0.3170 -0.8667
   31MOL   H73824198   6.518   3.865   0.346  0.3236  0.7486  1.2700
   31MOL   H73924199   6.568   3.834   0.862  0.0070  0.1651  0.2117
   31MOL   H74024200   6.622   3.976   1.060  0.4350 -0.7681 -0.8313
   31MOL   H74124201   6.548   4.327   0.817  3.5010 -0.5108 -1.4019
   31MOL   H74224202   6.507   4.187   0.626  0.5416  0.1107  0.4179
   31MOL   C74324203   7.022   4.434   1.577 -0.8883 -0.8020 -0.4093
   31MOL   C74424204   6.981   4.375   1.445  0.3946  0.1145 -0.1918
   31MOL   C74524205   6.830   4.338   1.446  0.3547  1.0381  0.4161
   31MOL   C74624206   6.796   4.277   1.311  0.3947  0.0526 -0.0629
   31MOL   O74724207   6.658   4.279   1.298 -0.4142  0.1964  0.3190
   31MOL   C74824208   6.786   4.258   1.573 -0.0753 -0.5184 -0.2921
   31MOL   C74924209   6.826   4.340   1.699  0.2548 -0.3482 -0.2695
   31MOL   C75024210   6.975   4.366   1.699  0.1538 -0.1634  0.3567
   31MOL   C75124211   7.020   4.446   1.824  0.0677  0.7114  0.3181
   31MOL   O75224212   6.946   4.560   1.856 -0.2677 -0.3384  0.3615
   31MOL   C75324213   6.868   4.559   1.962  0.4618  0.4526 -1.2400
   31MOL   O75424214   6.840   4.455   2.023  0.0754 -0.2176  0.1875
   31MOL   C75524215   6.813   4.694   1.999 -0.5112 -0.1687 -0.0921
   31MOL   C75624216   6.713   4.711   2.093  0.1960  0.4645  0.6457
   31MOL   C75724217   6.674   4.840   2.135  0.0267  0.6867 -1.2894
   31MOL   C75824218   6.734   4.953   2.083 -0.1930  0.1770  0.0562
   31MOL   C75924219   6.698   5.086   2.139  0.1621  0.0928 -0.0020
   31MOL   O76024220   6.773   5.182   2.144 -0.7549 -0.4631  0.2276
   31MOL   O76124221   6.572   5.102   2.183 -0.1716 -0.7148 -0.0550
   31MOL   C76224222   6.846   4.935   2.002 -0.1529  1.2531 -0.1168
   31MOL   C76324223   6.881   4.807   1.952  0.2219  0.3768  0.4096
   31MOL   H76424224   7.128   4.456   1.567 -1.4000  1.1056 -2.1471
   31MOL   H76524225   6.977   4.533   1.570  0.7785 -0.1383 -2.0893
   31MOL   H76624226   7.014   4.428   1.356 -1.2014  2.0989  0.3642
   31MOL   H76724227   7.029   4.277   1.440  0.2125 -0.0019  0.3491
   31MOL   H76824228   6.772   4.430   1.457  1.2995  1.7284 -0.3843
   31MOL   H76924229   6.837   4.344   1.235 -2.4746  1.4305 -0.4904
   31MOL   H77024230   6.837   4.176   1.314  0.6666  0.1435 -0.6028
   31MOL   H77124231   6.678   4.246   1.574 -0.4467  2.4321  1.4939
   31MOL   H77224232   6.827   4.157   1.582  2.1248  0.3156 -0.8048
   31MOL   H77324233   6.810   4.274   1.784 -0.2039 -3.2930 -2.5704
   31MOL   H77424234   6.761   4.428   1.704 -0.4265 -0.9542  2.4186
   31MOL   H77524235   7.020   4.267   1.706  1.1853  0.3727  1.6295
   31MOL   H77624236   7.037   4.370   1.900  2.6395 -0.1139 -1.0143
   31MOL   H77724237   7.121   4.477   1.799  0.0547 -1.3508 -2.6022
   31MOL   H77824238   6.655   4.630   2.135 -0.7008  1.7390  1.8827
   31MOL   H77924239   6.592   4.836   2.205  0.5206 -1.6959 -0.7944
   31MOL   H78024240   6.908   5.018   1.969 -0.3372  0.1237 -3.4616
   31MOL   H78124241   6.973   4.794   1.896  0.1706  1.5470  0.0318
   31MOL   H78224242   6.570   5.183   2.231  3.0282 -0.9904  0.6308
   32MOL     C124243   3.986   2.407   0.757  0.4822 -0.3052 -0.6852
   32MOL     C224244   3.902   2.478   0.651  0.3670  0.4246 -0.0623
   32MOL     C324245   3.806   2.388   0.578  0.1673 -0.2021  0.0233
   32MOL     C424246   3.728   2.467   0.476  0.4964 -0.2974  0.3287
   32MOL     O524247   3.823   2.521   0.380 -0.2289  0.8171  0.7514
   32MOL     C624248   3.878   2.268   0.516  0.1594  0.2280 -0.3906
   32MOL     C724249   3.963   2.190   0.620 -0.3412  0.4312  0.0028
   32MOL     C824250   4.066   2.285   0.697 -0.3318 -0.5124 -0.6637
   32MOL     C924251   4.152   2.207   0.794 -1.2063 -0.3213 -0.1878
   32MOL    O1024252   4.257   2.291   0.840 -0.2115  0.3982  0.4517
   32MOL    C1124253   4.288   2.299   0.974  0.7311  0.2788 -0.5405
   32MOL    O1224254   4.248   2.213   1.054  0.0759  0.3111  0.1008
   32MOL    C1324255   4.381   2.405   1.008 -0.6040  0.5634 -0.2512
   32MOL    C1424256   4.459   2.466   0.912 -0.0859  0.0169  0.8042
   32MOL    C1524257   4.557   2.559   0.950  0.3054 -0.3046  0.6124
   32MOL    C1624258   4.581   2.588   1.084 -0.0751  0.2995 -0.7319
   32MOL    C1724259   4.685   2.687   1.125  0.1542  0.1210  0.2402
   32MOL    O1824260   4.681   2.759   1.222  0.9747 -0.4503  0.1297
   32MOL    O1924261   4.782   2.697   1.028 -0.0378  0.0190  0.4178
   32MOL    C2024262   4.510   2.517   1.184  0.4962  0.9101  0.1448
   32MOL    C2124263   4.409   2.426   1.144  0.0133 -0.6076 -0.3564
   32MOL    H2224264   4.054   2.467   0.817  0.1405 -0.8089  0.2262
   32MOL    H2324265   3.921   2.349   0.822 -0.3779  0.1581 -1.1194
   32MOL    H2424266   3.850   2.561   0.700  0.9527  1.3868 -1.0593
   32MOL    H2524267   3.979   2.522   0.589 -0.2761  0.4641 -0.8398
   32MOL    H2624268   3.734   2.361   0.655 -0.7869  1.0407 -0.4144
   32MOL    H2724269   3.650   2.406   0.432  0.1153 -0.2345  0.8993
   32MOL    H2824270   3.686   2.556   0.523  0.3280 -0.1189 -0.1565
   32MOL    H2924271   3.816   2.200   0.458  1.0710 -1.8159  0.9634
   32MOL    H3024272   3.945   2.303   0.437 -1.1094  0.4033 -1.4096
   32MOL    H3124273   4.011   2.102   0.578  0.2071  0.3324  0.8136
   32MOL    H3224274   3.899   2.160   0.703 -0.5521 -0.2284 -0.4008
   32MOL    H3324275   4.125   2.329   0.616  1.1890 -0.8960  0.2030
   32MOL    H3424276   4.078   2.180   0.869  0.5030  0.9414  2.0078
   32MOL    H3524277   4.195   2.117   0.750 -0.2145  0.4060 -0.7457
   32MOL    H3624278   4.443   2.447   0.807 -0.5550  0.8013  0.7265
   32MOL    H3724279   4.607   2.607   0.867 -1.3713  1.5142  0.6202
   32MOL    H3824280   4.551   2.516   1.284 -0.0555  0.0345  0.3692
   32MOL    H3924281   4.348   2.374   1.217 -0.0986  0.8676  0.6307
   32MOL    H4024282   3.781   2.586   0.326  2.0688  0.0386 -2.0869
   32MOL    C4124283   5.085   3.074   1.310 -0.1336 -0.2161 -0.5714
   32MOL    C4224284   4.997   2.962   1.255 -0.6765  0.6063  0.6470
   32MOL    C4324285   5.078   2.854   1.188  0.2538  0.2533 -0.0184
   32MOL    C4424286   4.994   2.740   1.128  0.5052  0.2446  0.0921
   32MOL    O4524287   4.887   2.800   1.054 -0.1945  0.0070 -0.0632
   32MOL    C4624288   5.177   2.913   1.085 -0.4919  0.2726  0.1104
   32MOL    C4724289   5.259   3.019   1.143  0.4905 -0.6653  0.1318
   32MOL    C4824290   5.174   3.139   1.200 -0.4190  0.4179 -0.5947
   32MOL    C4924291   5.265   3.244   1.263 -1.3589  0.0643 -0.6334
   32MOL    O5024292   5.194   3.357   1.301 -0.1836 -0.0838 -0.5342
   32MOL    C5124293   5.164   3.375   1.425 -0.8133  0.3394 -0.3135
   32MOL    O5224294   5.203   3.303   1.517  0.5508  0.3858 -0.1826
   32MOL    C5324295   5.077   3.494   1.456 -1.3569 -0.1525 -0.5993
   32MOL    C5424296   5.049   3.592   1.355 -0.2776 -0.0002 -0.1398
   32MOL    C5524297   4.976   3.707   1.391 -0.4173  0.5256 -0.2279
   32MOL    C5624298   4.925   3.714   1.521  0.7735  0.5015 -0.3505
   32MOL    C5724299   4.848   3.835   1.553 -0.1889 -0.4333  0.5315
   32MOL    O5824300   4.792   3.907   1.469  0.2754  0.1725  0.5371
   32MOL    O5924301   4.869   3.874   1.681  0.1857 -0.6326 -0.6439
   32MOL    C6024302   4.942   3.607   1.622 -0.0294 -0.4942 -0.5039
   32MOL    C6124303   5.028   3.502   1.590 -0.0544 -0.0453  0.3919
   32MOL    H6224304   5.018   3.147   1.356  1.0390  0.1560  0.5781
   32MOL    H6324305   5.157   3.043   1.386 -0.3111 -1.0663 -0.7422
   32MOL    H6424306   4.930   2.929   1.334 -0.2711  0.8033  1.0780
   32MOL    H6524307   4.927   3.009   1.186  0.7605 -1.0555 -2.0356
   32MOL    H6624308   5.143   2.809   1.264  0.7150 -1.2754 -1.2831
   32MOL    H6724309   5.051   2.674   1.063 -1.3832 -0.0208 -1.3494
   32MOL    H6824310   4.944   2.677   1.202  0.2815  0.6394  0.2857
   32MOL    H6924311   5.251   2.840   1.053 -0.8135  1.1813 -2.8960
   32MOL    H7024312   5.121   2.953   1.000 -1.5378  0.6045  0.9459
   32MOL    H7124313   5.337   3.048   1.072 -0.5338  1.4818 -0.1562
   32MOL    H7224314   5.327   2.977   1.217  1.6980 -0.0637 -0.6052
   32MOL    H7324315   5.103   3.179   1.127  1.4014 -0.4885 -2.9354
   32MOL    H7424316   5.315   3.190   1.344 -0.6936  0.3474 -0.8530
   32MOL    H7524317   5.336   3.284   1.191 -0.3343  1.0366  0.8958
   32MOL    H7624318   5.095   3.579   1.258 -0.4229 -0.4390 -0.1527
   32MOL    H7724319   4.958   3.791   1.326 -0.5958  0.6315 -0.0438
   32MOL    H7824320   4.890   3.614   1.716  0.3950  1.3622 -0.3741
   32MOL    H7924321   5.049   3.415   1.651 -0.3882 -0.4309 -0.0330
   32MOL    C8024322   4.426   4.190   1.999 -0.2459  0.3790  0.2225
   32MOL    C8124323   4.519   4.067   1.966 -0.3797  0.3389  0.0357
   32MOL    C8224324   4.628   4.095   1.851  0.6763  0.3560  0.6427
   32MOL    C8324325   4.696   3.964   1.803  0.1592  0.1138 -0.3137
   32MOL    O8424326   4.796   3.997   1.715  0.0790 -0.5231 -0.3497
   32MOL    C8524327   4.561   4.176   1.739  0.0539  0.7411  0.0054
   32MOL    C8624328   4.499   4.305   1.789  1.1571 -0.7441  0.3724
   32MOL    C8724329   4.381   4.278   1.878 -0.1707 -0.0481  0.1514
   32MOL    C8824330   4.320   4.415   1.922  0.9733  0.2095 -0.1468
   32MOL    O8924331   4.223   4.400   2.030 -0.2056  0.0278 -0.9029
   32MOL    C9024332   4.091   4.355   2.015 -1.4369 -0.2199 -0.1878
   32MOL    O9124333   4.052   4.302   1.915 -0.2880 -0.4643  1.1045
   32MOL    C9224334   4.007   4.378   2.131  0.1795 -0.2875  0.6563
   32MOL    C9324335   3.872   4.333   2.136 -0.6925  0.3450 -0.1137
   32MOL    C9424336   3.800   4.349   2.256 -0.1474  0.0284  0.5222
   32MOL    C9524337   3.851   4.427   2.366  1.0865 -0.2018 -0.0860
   32MOL    C9624338   3.757   4.463   2.472  0.0845  0.1939 -0.8379
   32MOL    O9724339   3.637   4.434   2.471 -0.0683  0.1194 -0.3821
   32MOL    O9824340   3.808   4.514   2.580  0.5093  0.3276  0.5061
   32MOL    C9924341   3.989   4.463   2.364  0.0447  0.7785  0.4557
   32MOL   C10024342   4.063   4.429   2.248 -0.6597 -0.4941  0.7483
   32MOL   H10124343   4.345   4.150   2.060  0.0776  0.0169  0.4098
   32MOL   H10224344   4.476   4.255   2.070 -2.2367 -0.6352  2.6011
   32MOL   H10324345   4.569   4.039   2.058 -1.5562 -3.5280 -0.4332
   32MOL   H10424346   4.459   3.980   1.943 -0.4087  0.1401  0.8486
   32MOL   H10524347   4.695   4.159   1.909 -0.0629  0.9020  0.9034
   32MOL   H10624348   4.725   3.914   1.896 -1.1010  1.4196  0.8186
   32MOL   H10724349   4.636   3.894   1.744  1.0857 -1.6461  0.7915
   32MOL   H10824350   4.633   4.196   1.660  0.1005 -0.1728 -0.1908
   32MOL   H10924351   4.485   4.116   1.688 -0.4059  0.6181  0.8240
   32MOL   H11024352   4.459   4.374   1.714  1.1286 -1.5798 -0.3825
   32MOL   H11124353   4.572   4.368   1.841  0.3820  0.9196 -0.4899
   32MOL   H11224354   4.303   4.231   1.818 -2.8654  1.9301  1.9470
   32MOL   H11324355   4.393   4.488   1.958  0.3219  0.5577  0.4827
   32MOL   H11424356   4.260   4.446   1.836 -0.4312 -0.5828  0.5321
   32MOL   H11524357   3.844   4.276   2.048  0.8752  0.2046 -0.5417
   32MOL   H11624358   3.698   4.315   2.257 -0.3105 -0.1577 -5.2552
   32MOL   H11724359   4.040   4.498   2.453 -1.2496 -1.5049  2.1594
   32MOL   H11824360   4.168   4.452   2.247 -0.6903 -0.3944 -0.8277
   32MOL   C11924361   3.686   4.759   3.092  0.2715 -0.2471  0.3527
   32MOL   C12024362   3.763   4.688   2.977 -0.3893 -0.4101  0.2465
   32MOL   C12124363   3.663   4.590   2.901 -0.1581 -0.4132  0.2555
   32MOL   C12224364   3.713   4.499   2.788 -0.1168 -0.2539  0.3136
   32MOL   O12324365   3.715   4.587   2.674 -0.2567 -0.1925  0.0299
   32MOL   C12424366   3.591   4.500   2.999  0.1133  0.2083  0.1354
   32MOL   C12524367   3.512   4.579   3.100  0.4880 -0.0425  0.2608
   32MOL   C12624368   3.600   4.678   3.183  0.1893  0.9917  0.7582
   32MOL   C12724369   3.512   4.770   3.277 -0.6290  0.0659 -0.0767
   32MOL   O12824370   3.565   4.778   3.412 -0.3780  0.1420  0.5976
   32MOL   C12924371   3.620   4.891   3.451  0.2683  0.2016  0.1567
   32MOL   O13024372   3.650   4.985   3.374  0.1864 -0.3148  0.0888
   32MOL   C13124373   3.653   4.898   3.593 -0.0610  0.0095 -0.1365
   32MOL   C13224374   3.679   5.029   3.651  1.0023 -0.4362 -0.5086
   32MOL   C13324375   3.687   5.040   3.786  0.0365 -0.4574 -0.3752
   32MOL   C13424376   3.685   4.931   3.865  0.3269 -0.7432  0.6484
   32MOL   C13524377   3.667   4.948   4.015  0.3632  0.5666 -0.6466
   32MOL   O13624378   3.636   4.853   4.089 -0.2624  0.0837  0.3632
   32MOL   O13724379   3.672   5.072   4.063 -0.2970 -0.0961  0.8259
   32MOL   C13824380   3.680   4.802   3.807 -0.1104 -0.0684 -0.2190
   32MOL   C13924381   3.657   4.783   3.673 -0.3417 -0.3065  0.2278
   32MOL   H14024382   3.758   4.814   3.153 -0.8554 -0.6250  2.0581
   32MOL   H14124383   3.623   4.829   3.037 -1.9582 -1.2943  1.5277
   32MOL   H14224384   3.810   4.750   2.901 -1.7367 -0.1244 -0.3789
   32MOL   H14324385   3.845   4.632   3.020 -0.2523 -0.4335 -0.0488
   32MOL   H14424386   3.592   4.663   2.862 -2.1937 -1.3469  2.1369
   32MOL   H14524387   3.811   4.460   2.815  0.5300  0.2449 -1.2322
   32MOL   H14624388   3.658   4.405   2.786  0.2073 -0.4729  1.7150
   32MOL   H14724389   3.530   4.430   2.942  3.6233 -2.1210 -0.9166
   32MOL   H14824390   3.661   4.443   3.060  1.8180  0.7102 -1.3158
   32MOL   H14924391   3.480   4.507   3.176 -0.4825 -1.2905 -1.2835
   32MOL   H15024392   3.419   4.612   3.053 -0.3872 -0.8662  1.3652
   32MOL   H15124393   3.667   4.624   3.250  0.5017  2.3850  1.5879
   32MOL   H15224394   3.497   4.871   3.239 -4.1134 -1.3852 -2.8646
   32MOL   H15324395   3.409   4.734   3.276 -0.2572 -1.0058  0.0695
   32MOL   H15424396   3.675   5.115   3.585  0.2260  1.7797  2.3362
   32MOL   H15524397   3.689   5.137   3.833 -0.4184 -0.9457  0.6671
   32MOL   H15624398   3.659   4.718   3.872 -1.3127  0.9759  0.7766
   32MOL   H15724399   3.660   4.682   3.635  1.3079 -0.1136 -0.1987
   32MOL   C15824400   3.640   5.528   4.182  0.6339  0.7224  0.3730
   32MOL   C15924401   3.623   5.382   4.238 -0.3349  0.3188 -0.0692
   32MOL   C16024402   3.522   5.305   4.160  0.6577  0.1726 -0.2012
   32MOL   C16124403   3.510   5.158   4.204  0.7795  0.4548 -0.5343
   32MOL   O16224404   3.635   5.092   4.212  0.3178 -0.2831 -0.2937
   32MOL   C16324405   3.388   5.384   4.152  0.0059 -0.2070 -0.0708
   32MOL   C16424406   3.406   5.528   4.100  0.3167  0.0769  0.7023
   32MOL   C16524407   3.507   5.600   4.183  0.1187 -1.1565 -0.4862
   32MOL   C16624408   3.517   5.756   4.150  0.1708  0.1541  0.5660
   32MOL   O16724409   3.562   5.792   4.019 -0.3658 -0.2948  0.2636
   32MOL   C16824410   3.477   5.811   3.918 -0.5617 -0.1501  0.0636
   32MOL   O16924411   3.358   5.785   3.935  0.0336 -0.0233  0.2366
   32MOL   C17024412   3.532   5.860   3.790  0.4360  0.5122  0.4581
   32MOL   C17124413   3.446   5.877   3.678  0.0041 -0.0733  0.0791
   32MOL   C17224414   3.498   5.927   3.554 -0.2048 -0.9033 -0.1718
   32MOL   C17324415   3.640   5.944   3.540  0.3187  0.8011 -0.5562
   32MOL   C17424416   3.705   5.999   3.416  0.3049  0.1413 -0.0566
   32MOL   O17524417   3.828   6.016   3.407 -0.4157  0.0953 -0.1190
   32MOL   O17624418   3.618   5.995   3.307  0.3911 -0.3847 -0.8365
   32MOL   C17724419   3.724   5.914   3.643 -0.0209  0.4283  0.0194
   32MOL   C17824420   3.673   5.883   3.772  0.0510  0.2509 -0.2374
   32MOL   H17924421   3.712   5.568   4.254  0.6306  0.8224  0.3191
   32MOL   H18024422   3.677   5.523   4.080 -1.1444  1.8204 -0.3360
   32MOL   H18124423   3.720   5.334   4.241 -1.2960 -1.6442  0.4315
   32MOL   H18224424   3.590   5.387   4.341 -0.2044 -0.7052  0.0211
   32MOL   H18324425   3.552   5.300   4.055  1.1200  3.9191 -0.3160
   32MOL   H18424426   3.461   5.137   4.300 -1.4785 -2.5922 -2.2422
   32MOL   H18524427   3.453   5.102   4.129 -1.6084  0.3327  1.2985
   32MOL   H18624428   3.312   5.329   4.097  1.0860 -1.2987 -0.5148
   32MOL   H18724429   3.343   5.404   4.249  1.9283  0.4320  0.7246
   32MOL   H18824430   3.313   5.583   4.114 -0.6178 -1.1043 -0.6347
   32MOL   H18924431   3.429   5.519   3.994 -0.7540 -3.5723  0.6977
   32MOL   H19024432   3.471   5.604   4.286  2.3868 -1.7167  0.3474
   32MOL   H19124433   3.423   5.806   4.172 -0.3704 -0.5457 -0.1377
   32MOL   H19224434   3.584   5.802   4.223  2.7354 -1.7417 -0.4763
   32MOL   H19324435   3.340   5.867   3.694 -0.1443 -1.8411 -1.7115
   32MOL   H19424436   3.434   5.947   3.469  0.1323 -1.3458 -0.5338
   32MOL   H19524437   3.830   5.928   3.629  0.1343 -1.7967 -1.2707
   32MOL   H19624438   3.745   5.869   3.850  0.2036  4.0811  0.4394
   32MOL   C19724439   3.418   5.694   2.870 -0.2366 -0.3293  0.4089
   32MOL   C19824440   3.533   5.705   2.970 -0.0583 -0.4091  0.3757
   32MOL   C19924441   3.564   5.854   3.017  0.3167 -0.8926  0.0409
   32MOL   C20024442   3.686   5.858   3.113  0.1256 -0.3649 -0.1993
   32MOL   O20124443   3.696   5.988   3.172 -0.2918  0.1425 -0.1005
   32MOL   C20224444   3.585   5.951   2.897 -0.2854  0.0811  0.1713
   32MOL   C20324445   3.461   5.936   2.804 -0.2117  0.1467  0.2128
   32MOL   C20424446   3.440   5.795   2.750  0.5474  0.4558  0.5532
   32MOL   C20524447   3.327   5.786   2.649  0.0312  0.0701 -1.0300
   32MOL   O20624448   3.330   5.670   2.574  0.3287  0.0301  0.2568
   32MOL   C20724449   3.224   5.613   2.516  0.4624 -0.6796 -0.0608
   32MOL   O20824450   3.111   5.646   2.544 -0.2700  0.0268  0.1848
   32MOL   C20924451   3.259   5.484   2.439  0.2458 -0.1507 -0.1135
   32MOL   C21024452   3.169   5.377   2.437  0.0156  0.5210 -0.0570
   32MOL   C21124453   3.192   5.264   2.358 -0.4615  0.4564  0.2532
   32MOL   C21224454   3.313   5.253   2.284  0.3977  0.3548  0.2769
   32MOL   C21324455   3.336   5.120   2.208  0.5926  0.5294 -0.7980
   32MOL   O21424456   3.449   5.084   2.167  0.7546  0.8715 -0.1574
   32MOL   O21524457   3.216   5.052   2.195  0.7058  0.4831  0.2493
   32MOL   C21624458   3.401   5.362   2.286 -0.9518 -0.3343 -0.5479
   32MOL   C21724459   3.375   5.474   2.362 -0.7311  0.5607 -1.0126
   32MOL   H21824460   3.406   5.594   2.829  0.4312 -1.1103  2.0441
   32MOL   H21924461   3.324   5.721   2.917 -0.6732  1.6487 -1.5721
   32MOL   H22024462   3.515   5.643   3.057 -0.2325  1.1767  1.4994
   32MOL   H22124463   3.618   5.652   2.927 -0.8347 -1.3523  0.0104
   32MOL   H22224464   3.485   5.890   3.083  1.5136  1.2007  0.3793
   32MOL   H22324465   3.665   5.787   3.193 -1.2640 -1.3087 -1.3660
   32MOL   H22424466   3.780   5.818   3.076 -0.5133 -0.4211 -1.7984
   32MOL   H22524467   3.598   6.050   2.941  1.5007 -1.0581  2.3080
   32MOL   H22624468   3.679   5.927   2.847 -0.4096  0.6973 -0.3647
   32MOL   H22724469   3.472   6.014   2.729  0.3040  0.2931  0.4393
   32MOL   H22824470   3.374   5.960   2.865  0.2202  0.6404  0.6295
   32MOL   H22924471   3.529   5.758   2.699 -0.1859 -0.0921 -0.3357
   32MOL   H23024472   3.233   5.804   2.700 -0.1732  1.7272 -1.9305
   32MOL   H23124473   3.340   5.870   2.580  0.7450  0.0059 -0.9798
   32MOL   H23224474   3.094   5.384   2.514  0.8127  1.8407  0.6120
   32MOL   H23324475   3.119   5.185   2.356 -0.8526  0.8456 -2.5058
   32MOL   H23424476   3.483   5.363   2.216  0.7815  2.7441  1.4225
   32MOL   H23524477   3.428   5.568   2.356 -0.1624  0.2930 -0.2243
   32MOL   C23624478   3.369   4.454   2.180 -0.8636 -0.1053  0.0554
   32MOL   C23724479   3.337   4.579   2.262  0.7917  0.0215  0.0589
   32MOL   C23824480   3.308   4.688   2.160  0.1606  0.4764 -0.0068
   32MOL   C23924481   3.255   4.812   2.236  1.1195  0.2288 -0.2968
   32MOL   O24024482   3.235   4.913   2.135 -0.1821 -0.0695 -0.0360
   32MOL   C24124483   3.427   4.724   2.071 -0.2065  0.4282  0.0360
   32MOL   C24224484   3.469   4.604   1.993  0.1670  0.9804  0.2851
   32MOL   C24324485   3.481   4.471   2.076  0.2071  0.3811 -0.2287
   32MOL   C24424486   3.513   4.355   1.971 -0.1189 -0.0227 -0.2670
   32MOL   O24524487   3.395   4.348   1.892 -0.3760  0.6554 -0.3108
   32MOL   C24624488   3.384   4.265   1.790  0.1363  0.3723 -0.1045
   32MOL   O24724489   3.461   4.170   1.773 -0.0035 -0.3421 -0.4501
   32MOL   C24824490   3.259   4.284   1.714  0.4425  0.1979 -0.2050
   32MOL   C24924491   3.192   4.412   1.695 -0.0087  0.4636  0.1329
   32MOL   C25024492   3.067   4.422   1.636  0.1871  0.8180  0.4828
   32MOL   C25124493   3.006   4.317   1.570 -0.6957  0.1364 -0.0047
   32MOL   C25224494   2.885   4.332   1.487 -0.0229  0.4738 -0.2070
   32MOL   O25324495   2.844   4.439   1.452 -0.0917  0.2923  0.5817
   32MOL   O25424496   2.825   4.215   1.461 -0.3268 -0.2992  0.2238
   32MOL   C25524497   3.076   4.194   1.577  0.2564 -1.0448  0.3528
   32MOL   C25624498   3.197   4.176   1.644  0.8146 -0.4177 -0.3507
   32MOL   H25724499   3.398   4.382   2.256 -0.5864  1.4989  1.5026
   32MOL   H25824500   3.279   4.419   2.130 -1.7447 -0.3055  1.7822
   32MOL   H25924501   3.253   4.560   2.329  1.5271 -0.1275  0.9502
   32MOL   H26024502   3.419   4.624   2.318  1.2318 -1.5712  0.7126
   32MOL   H26124503   3.233   4.649   2.090 -2.2914  3.5487  0.7957
   32MOL   H26224504   3.165   4.792   2.294  1.9500 -2.1989  0.2041
   32MOL   H26324505   3.333   4.851   2.302 -1.0898  0.0108  2.5590
   32MOL   H26424506   3.411   4.815   2.012 -1.7029  1.0418  1.3540
   32MOL   H26524507   3.506   4.751   2.141 -0.4186 -0.0656  0.4688
   32MOL   H26624508   3.568   4.609   1.948  0.6029 -0.6105  1.0199
   32MOL   H26724509   3.407   4.591   1.904 -0.3318  1.0861  0.6159
   32MOL   H26824510   3.562   4.498   2.144 -0.0206 -2.7930  1.3797
   32MOL   H26924511   3.598   4.372   1.906 -0.1849 -2.6022 -1.0980
   32MOL   H27024512   3.523   4.261   2.026 -1.3278  1.4719  2.6086
   32MOL   H27124513   3.236   4.497   1.744  1.7367 -1.2102  1.5328
   32MOL   H27224514   3.033   4.524   1.627 -0.3669  0.7829  2.1201
   32MOL   H27324515   3.045   4.107   1.520  0.5626 -0.7760 -0.2262
   32MOL   H27424516   3.253   4.086   1.625  0.4644 -0.4849 -1.1010
   32MOL   C27524517   2.795   3.832   1.240  0.1158  0.1496 -0.6889
   32MOL   C27624518   2.817   3.986   1.253 -0.8581  0.6712  0.4248
   32MOL   C27724519   2.677   4.051   1.250 -1.2439  0.1097  0.1305
   32MOL   C27824520   2.677   4.204   1.272 -0.2278 -0.4011 -0.2691
   32MOL   O27924521   2.684   4.227   1.413  0.1413 -0.3077  0.1123
   32MOL   C28024522   2.609   4.005   1.123 -0.9892 -0.2258  0.3989
   32MOL   C28124523   2.598   3.849   1.106 -0.2636 -0.0929  0.6042
   32MOL   C28224524   2.728   3.780   1.120 -0.3047  0.5903  0.2128
   32MOL   C28324525   2.713   3.621   1.103 -0.4143 -0.1508 -0.1314
   32MOL   O28424526   2.632   3.571   1.206 -0.2092 -0.0284  0.3811
   32MOL   C28524527   2.557   3.462   1.198  0.7117 -0.5718  0.6913
   32MOL   O28624528   2.536   3.403   1.096  0.2529 -0.2948 -0.4685
   32MOL   C28724529   2.501   3.429   1.329  0.0358 -0.1980  0.0579
   32MOL   C28824530   2.472   3.530   1.419  0.7999 -0.5304  0.8534
   32MOL   C28924531   2.417   3.492   1.543  0.9792 -0.0213 -1.3755
   32MOL   C29024532   2.388   3.358   1.580 -0.2302  0.5134 -0.2646
   32MOL   C29124533   2.316   3.321   1.711 -0.5429  0.7056  0.1634
   32MOL   O29224534   2.272   3.407   1.790 -0.3023  0.1327  0.0679
   32MOL   O29324535   2.309   3.185   1.730  0.8531 -0.0168  0.3013
   32MOL   C29424536   2.424   3.258   1.487 -0.6806  1.3439  0.0467
   32MOL   C29524537   2.479   3.294   1.358  0.6941  0.2982 -0.1213
   32MOL   H29624538   2.891   3.782   1.255 -1.4353 -2.6518  0.2126
   32MOL   H29724539   2.742   3.799   1.330  1.1931 -1.0297 -0.4585
   32MOL   H29824540   2.862   3.998   1.351 -2.0569 -0.2202  1.1080
   32MOL   H29924541   2.888   4.013   1.175 -0.9184 -2.9712 -1.0145
   32MOL   H30024542   2.616   4.007   1.328 -0.9146  0.9539  0.8740
   32MOL   H30124543   2.765   4.251   1.228  0.4323 -0.4359  0.9804
   32MOL   H30224544   2.589   4.256   1.234  0.5847  0.7643 -0.5837
   32MOL   H30324545   2.509   4.049   1.125  0.0425  2.1902  2.1104
   32MOL   H30424546   2.650   4.047   1.031 -2.8513 -1.0501 -0.8425
   32MOL   H30524547   2.556   3.831   1.007 -1.3160  0.1725  0.9989
   32MOL   H30624548   2.530   3.804   1.178  1.4700 -1.0453  1.6926
   32MOL   H30724549   2.786   3.813   1.034  0.9221 -2.9587 -0.4243
   32MOL   H30824550   2.673   3.610   1.002  1.1977  0.5171 -0.8537
   32MOL   H30924551   2.813   3.579   1.103 -0.3067  0.1161 -0.9805
   32MOL   H31024552   2.482   3.636   1.401  1.4378 -0.5514  1.0761
   32MOL   H31124553   2.398   3.565   1.621 -0.7085 -0.3573 -1.4462
   32MOL   H31224554   2.419   3.151   1.503  0.2105  1.1106 -1.1801
   32MOL   H31324555   2.503   3.214   1.289 -3.5569 -1.4541  0.2562
   32MOL   C31424556   1.928   2.956   2.146  0.1363 -0.3693  0.1034
   32MOL   C31524557   2.022   2.975   2.016  0.7616 -0.1603 -0.1038
   32MOL   C31624558   2.016   3.115   1.959  0.2681 -1.0038  0.0380
   32MOL   C31724559   2.108   3.121   1.837 -0.3947  0.4518  0.2500
   32MOL   O31824560   2.249   3.136   1.857  0.8594  0.4186 -0.1629
   32MOL   C31924561   1.877   3.161   1.939  0.2889 -0.6095 -1.1684
   32MOL   C32024562   1.788   3.146   2.064  0.3837  0.5604  0.4818
   32MOL   C32124563   1.787   3.005   2.124  0.1865  0.5524 -0.2079
   32MOL   C32224564   1.691   2.983   2.244  0.2403  0.3384  0.0893
   32MOL   O32324565   1.728   3.071   2.346 -0.1435  0.0843 -0.4522
   32MOL   C32424566   1.652   3.063   2.462 -0.1894 -0.1362 -0.4652
   32MOL   O32524567   1.534   3.033   2.470 -0.6404  0.4912 -0.1353
   32MOL   C32624568   1.734   3.131   2.574  0.8876  0.3282 -0.1032
   32MOL   C32724569   1.660   3.151   2.692 -0.5774 -0.0956 -0.3230
   32MOL   C32824570   1.726   3.212   2.806 -0.0574  0.0477  1.3816
   32MOL   C32924571   1.867   3.233   2.805  0.4801  0.1780  0.1583
   32MOL   C33024572   1.934   3.290   2.928  0.5771 -0.3707  0.2238
   32MOL   O33124573   1.880   3.301   3.037 -0.5892 -0.3801 -0.2140
   32MOL   O33224574   2.062   3.315   2.906  0.2315 -0.2462 -0.0667
   32MOL   C33324575   1.936   3.207   2.689 -0.3592 -0.8056  0.2519
   32MOL   C33424576   1.874   3.168   2.572  0.0512 -0.0486 -0.0427
   32MOL   H33524577   1.931   2.853   2.181  0.3485 -0.0255  1.1374
   32MOL   H33624578   1.965   3.017   2.229 -0.1641 -1.1424  0.8076
   32MOL   H33724579   2.126   2.959   2.042  0.8615 -0.5211 -0.7159
   32MOL   H33824580   1.993   2.903   1.940 -0.4156  0.6886 -0.4773
   32MOL   H33924581   2.057   3.187   2.029  0.3777  1.3904 -2.3765
   32MOL   H34024582   2.093   3.034   1.773 -1.6479  0.3954  0.5989
   32MOL   H34124583   2.059   3.206   1.789 -3.9432 -0.3155  2.2863
   32MOL   H34224584   1.870   3.266   1.910 -0.3058 -0.1372  0.6552
   32MOL   H34324585   1.828   3.115   1.853 -2.4444 -1.1080  0.6017
   32MOL   H34424586   1.688   3.170   2.029 -0.1691 -2.1137  0.0672
   32MOL   H34524587   1.815   3.229   2.129  1.2587  0.4318  0.2864
   32MOL   H34624588   1.749   2.950   2.039 -0.6112 -1.4739  1.4171
   32MOL   H34724589   1.586   2.987   2.217 -0.0308 -0.8015  0.9442
   32MOL   H34824590   1.698   2.883   2.286 -0.6185  0.6970  1.1204
   32MOL   H34924591   1.557   3.123   2.707 -0.6077 -0.0472 -0.4410
   32MOL   H35024592   1.669   3.225   2.897 -1.2825  0.4913  0.5563
   32MOL   H35124593   2.041   3.231   2.683 -0.0426 -2.3836 -0.7908
   32MOL   H35224594   1.931   3.146   2.483  0.6431  4.6425 -0.9166
   32MOL   C35324595   2.313   3.872   2.999  0.0425 -0.1210 -0.4926
   32MOL   C35424596   2.193   3.768   3.009  0.3051 -0.2899  0.5037
   32MOL   C35524597   2.242   3.621   3.018  1.2792  0.2890  0.4680
   32MOL   C35624598   2.118   3.526   3.003  0.3109  0.0617  0.5454
   32MOL   O35724599   2.151   3.384   3.004  0.1864 -0.1638 -0.4161
   32MOL   C35824600   2.353   3.592   2.912 -0.3469  0.5098 -0.5413
   32MOL   C35924601   2.474   3.700   2.912 -0.1480 -0.0479 -0.2983
   32MOL   C36024602   2.418   3.842   2.892 -0.2519  0.0968  0.6174
   32MOL   C36124603   2.528   3.946   2.874 -0.0796 -0.3417  0.9262
   32MOL   O36224604   2.592   3.907   2.742 -0.2153 -0.4322 -0.5055
   32MOL   C36324605   2.568   3.991   2.636 -0.2482 -0.7114 -0.5079
   32MOL   O36424606   2.518   4.103   2.647  0.3540  0.2804 -0.4541
   32MOL   C36524607   2.617   3.929   2.511 -0.5467 -0.4917  0.7391
   32MOL   C36624608   2.658   3.793   2.512 -0.0883  0.6119 -0.2609
   32MOL   C36724609   2.696   3.730   2.396 -1.1539 -0.1262  0.9239
   32MOL   C36824610   2.707   3.804   2.272 -0.4569  0.3070 -0.7221
   32MOL   C36924611   2.757   3.745   2.146  0.2394  0.1773 -0.6204
   32MOL   O37024612   2.753   3.810   2.038 -0.2984 -0.0333 -0.1171
   32MOL   O37124613   2.835   3.639   2.175  0.3074  0.2910  0.1572
   32MOL   C37224614   2.667   3.937   2.277  0.2879 -0.3283 -0.1566
   32MOL   C37324615   2.621   4.002   2.390  0.3069 -0.0874  0.8186
   32MOL   H37424616   2.273   3.969   2.969  0.7879  0.8166  1.4625
   32MOL   H37524617   2.365   3.879   3.094  0.3250 -1.9749 -0.4901
   32MOL   H37624618   2.131   3.784   3.098 -0.6356  0.8815 -0.3494
   32MOL   H37724619   2.135   3.792   2.920  2.7214 -0.2771 -1.1164
   32MOL   H37824620   2.281   3.602   3.118  1.3132 -0.2578  0.3528
   32MOL   H37924621   2.040   3.549   3.077 -0.1353  1.9133 -0.4705
   32MOL   H38024622   2.074   3.544   2.905 -1.2564  0.3576  1.2821
   32MOL   H38124623   2.396   3.493   2.933 -1.0019  0.5756  1.2458
   32MOL   H38224624   2.306   3.589   2.814  0.4516 -3.0659 -0.9023
   32MOL   H38324625   2.544   3.674   2.833  0.5538  2.1461 -0.4507
   32MOL   H38424626   2.525   3.701   3.009  0.2743  0.4560 -0.5235
   32MOL   H38524627   2.357   3.837   2.802  0.3691  0.2362  0.1827
   32MOL   H38624628   2.488   4.047   2.877  1.4302  0.3321 -0.9266
   32MOL   H38724629   2.605   3.934   2.950  0.4162  1.7616  0.7688
   32MOL   H38824630   2.655   3.735   2.603  0.8070 -0.1537 -0.7117
   32MOL   H38924631   2.724   3.626   2.396  1.1832  0.4477 -0.9683
   32MOL   H39024632   2.669   3.998   2.188 -3.4335 -0.0743 -0.1564
   32MOL   H39124633   2.593   4.106   2.389 -1.4792 -0.5624 -0.3227
   32MOL   C39224634   3.044   3.473   1.619  0.0053 -0.4022 -0.2508
   32MOL   C39324635   3.069   3.509   1.760 -0.1099  0.2681  0.0706
   32MOL   C39424636   2.939   3.494   1.852 -0.1756  0.5716  0.0708
   32MOL   C39524637   2.962   3.561   1.990  0.0556  0.4582 -0.2699
   32MOL   O39624638   2.842   3.541   2.061 -0.5850  0.5503  0.2559
   32MOL   C39724639   2.809   3.555   1.798  0.1927  0.0077 -0.3651
   32MOL   C39824640   2.790   3.495   1.658  0.6969 -0.3164 -0.0721
   32MOL   C39924641   2.907   3.529   1.566 -0.5280 -0.5189  0.3946
   32MOL   C40024642   2.885   3.495   1.417  0.9078 -0.1039 -0.4549
   32MOL   O40124643   2.864   3.355   1.418 -0.3139 -0.0145 -0.1272
   32MOL   C40224644   2.879   3.286   1.304 -0.0954 -0.2918 -0.0525
   32MOL   O40324645   2.911   3.340   1.196 -0.1097  0.0966  0.2589
   32MOL   C40424646   2.834   3.147   1.316  0.3322 -0.6437  1.1535
   32MOL   C40524647   2.784   3.094   1.436  0.9655  0.4430  0.1554
   32MOL   C40624648   2.726   2.966   1.443 -0.1537 -0.0332  0.1451
   32MOL   C40724649   2.732   2.884   1.326  0.1468  0.1298 -0.5052
   32MOL   C40824650   2.689   2.739   1.341 -0.1228 -0.0759  0.4600
   32MOL   O40924651   2.684   2.670   1.241  0.1780 -0.2802  0.3500
   32MOL   O41024652   2.671   2.696   1.471 -0.3521  0.2129  0.1475
   32MOL   C41124653   2.791   2.936   1.207 -0.6920 -0.3843 -0.1500
   32MOL   C41224654   2.836   3.071   1.198 -0.7963  0.0517  0.0214
   32MOL   H41324655   3.123   3.513   1.555 -0.8773  1.9154  0.0519
   32MOL   H41424656   3.049   3.364   1.615 -0.9769 -0.6235  3.0787
   32MOL   H41524657   3.144   3.443   1.803 -1.6040 -1.1597  0.5528
   32MOL   H41624658   3.109   3.609   1.774  0.9979 -0.2644  0.7707
   32MOL   H41724659   2.919   3.389   1.873  0.9191  0.0135 -1.6247
   32MOL   H41824660   3.051   3.522   2.039 -1.2507 -0.0443  1.7326
   32MOL   H41924661   2.979   3.668   1.976 -2.4436  0.6198 -2.5551
   32MOL   H42024662   2.726   3.523   1.862 -1.5892  2.8705 -1.1599
   32MOL   H42124663   2.815   3.664   1.795  1.9731 -0.0544  0.0669
   32MOL   H42224664   2.700   3.528   1.607  1.0062  0.2943 -0.2330
   32MOL   H42324665   2.792   3.386   1.668  0.0411 -0.4882 -1.7767
   32MOL   H42424666   2.924   3.636   1.565 -0.2745 -0.5610 -1.7719
   32MOL   H42524667   2.800   3.551   1.379  0.8833  0.5814  0.5934
   32MOL   H42624668   2.972   3.525   1.358  1.1066 -1.3136 -0.7883
   32MOL   H42724669   2.775   3.148   1.529  0.0515  1.3386 -0.4610
   32MOL   H42824670   2.690   2.931   1.539  0.1127  1.4887  0.8128
   32MOL   H42924671   2.813   2.873   1.122 -0.1970  2.8681 -2.5181
   32MOL   H43024672   2.874   3.104   1.103 -1.8138 -1.1555 -0.8364
   32MOL   C43124673   2.680   2.084   1.539  0.3182 -0.3828  0.0355
   32MOL   C43224674   2.676   2.226   1.477  0.9567  0.0523 -0.4358
   32MOL   C43324675   2.579   2.329   1.544 -0.0419  0.4979 -0.0722
   32MOL   C43424676   2.575   2.472   1.477 -0.6952  0.8958 -0.0832
   32MOL   O43524677   2.699   2.545   1.489 -1.2194  0.0063 -0.0103
   32MOL   C43624678   2.443   2.253   1.530 -0.1061 -0.1332  0.1505
   32MOL   C43724679   2.441   2.122   1.604  0.2791 -0.3415 -0.0040
   32MOL   C43824680   2.545   2.022   1.542 -0.0567  0.0497 -0.6489
   32MOL   C43924681   2.555   1.898   1.635 -0.2911 -0.4583 -0.2508
   32MOL   O44024682   2.434   1.822   1.642 -0.0191 -0.2203  0.0234
   32MOL   C44124683   2.366   1.820   1.755  0.2899  0.3780  0.2506
   32MOL   O44224684   2.391   1.897   1.850 -0.1592 -0.0760  0.2225
   32MOL   C44324685   2.246   1.730   1.740  0.2091  0.2720 -0.6006
   32MOL   C44424686   2.146   1.724   1.837 -0.0607  0.0621 -0.6256
   32MOL   C44524687   2.036   1.633   1.834  0.0845  0.2064  0.1790
   32MOL   C44624688   2.029   1.546   1.728 -0.3547  0.2029 -0.3967
   32MOL   C44724689   1.919   1.442   1.722 -0.8295 -0.2050  0.8310
   32MOL   O44824690   1.899   1.356   1.634  0.6411 -0.5840  0.2766
   32MOL   O44924691   1.837   1.439   1.827 -1.0117  0.1256 -0.2569
   32MOL   C45024692   2.124   1.544   1.626 -0.5023 -0.5297 -0.2719
   32MOL   C45124693   2.234   1.634   1.632  0.2136 -0.3269 -0.0674
   32MOL   H45224694   2.753   2.020   1.489 -0.2535 -0.2794 -0.9457
   32MOL   H45324695   2.707   2.085   1.645  0.2775  0.7352  0.0440
   32MOL   H45424696   2.775   2.268   1.492  1.2019  0.1189 -2.1439
   32MOL   H45524697   2.654   2.225   1.370 -0.7754  0.9824 -0.1014
   32MOL   H45624698   2.601   2.345   1.650  1.6975 -0.6927 -0.2421
   32MOL   H45724699   2.542   2.474   1.374 -1.7781 -0.1723  0.2316
   32MOL   H45824700   2.496   2.531   1.523 -0.7248  0.3752  0.5563
   32MOL   H45924701   2.365   2.317   1.570 -0.7718 -1.4230  0.9231
   32MOL   H46024702   2.417   2.234   1.426  1.4004  0.3708 -0.3328
   32MOL   H46124703   2.338   2.085   1.602  0.0377  0.3694 -0.8287
   32MOL   H46224704   2.469   2.143   1.707  0.1122 -0.4820  0.0705
   32MOL   H46324705   2.510   1.991   1.443 -1.6413 -0.1350 -0.0512
   32MOL   H46424706   2.638   1.834   1.604 -0.8749 -1.6675  0.6383
   32MOL   H46524707   2.596   1.921   1.734 -1.1949 -1.5260  0.3783
   32MOL   H46624708   2.153   1.786   1.925 -0.0941  0.8790 -1.1888
   32MOL   H46724709   1.964   1.635   1.914  0.3049 -0.1978  0.3874
   32MOL   H46824710   2.113   1.472   1.545 -2.9552 -1.0553  0.4752
   32MOL   H46924711   2.316   1.625   1.562  2.5751  1.5107  2.3821
   32MOL   C47024712   1.620   0.856   1.932 -0.1494 -0.0663 -0.4576
   32MOL   C47124713   1.723   0.966   1.965  0.0566 -0.1223 -0.0841
   32MOL   C47224714   1.711   1.090   1.876  0.0738  0.9838  0.6924
   32MOL   C47324715   1.793   1.217   1.901  0.1424  0.0157 -0.4288
   32MOL   O47424716   1.745   1.320   1.821 -0.1836 -0.1087 -0.2526
   32MOL   C47524717   1.725   1.045   1.732 -0.5952 -0.5175  0.2597
   32MOL   C47624718   1.615   0.944   1.701 -0.1446 -0.1048 -1.0956
   32MOL   C47724719   1.625   0.822   1.787 -0.1226  0.1348 -0.0619
   32MOL   C47824720   1.514   0.716   1.757  0.0838  0.4262  0.2158
   32MOL   O47924721   1.381   0.775   1.755 -0.5821 -0.1535  0.4456
   32MOL   C48024722   1.280   0.715   1.806 -0.4363  0.1160 -0.1643
   32MOL   O48124723   1.295   0.613   1.878  0.3205 -0.2218 -0.4040
   32MOL   C48224724   1.147   0.764   1.771  0.2051 -0.1241  0.8646
   32MOL   C48324725   1.129   0.866   1.679 -0.2162 -0.7899 -0.0862
   32MOL   C48424726   0.998   0.909   1.640 -0.1619 -0.2470 -0.1282
   32MOL   C48524727   0.885   0.864   1.708  0.5514 -0.0094  0.3512
   32MOL   C48624728   0.748   0.912   1.668 -0.7950  0.1487 -0.6317
   32MOL   O48724729   0.713   0.957   1.553 -0.0045  0.0380 -0.7731
   32MOL   O48824730   0.660   0.896   1.765  0.9229 -0.6028 -0.7479
   32MOL   C48924731   0.903   0.766   1.808  0.1375  0.1747 -0.0778
   32MOL   C49024732   1.034   0.709   1.832  0.0250 -0.7145  0.0121
   32MOL   H49124733   1.632   0.757   1.977 -3.0319  0.7677  2.2934
   32MOL   H49224734   1.526   0.876   1.983  0.3814  0.4608  0.3343
   32MOL   H49324735   1.713   0.999   2.069  2.1668  0.0371  0.0787
   32MOL   H49424736   1.822   0.922   1.962  0.0635 -0.2813  1.8273
   32MOL   H49524737   1.610   1.130   1.883 -0.2619  0.1069  0.9498
   32MOL   H49624738   1.793   1.253   2.004  0.5255  1.0313 -0.7813
   32MOL   H49724739   1.896   1.196   1.873  0.0819 -1.4240  0.3408
   32MOL   H49824740   1.732   1.120   1.654  2.7899  0.0278  1.0149
   32MOL   H49924741   1.819   0.990   1.724  0.7918  1.6591  1.3121
   32MOL   H50024742   1.617   0.920   1.595 -1.8218 -0.9067 -0.9596
   32MOL   H50124743   1.515   0.988   1.705 -0.8667 -1.6690 -1.5902
   32MOL   H50224744   1.712   0.764   1.758 -0.7372 -0.6770 -0.2997
   32MOL   H50324745   1.533   0.668   1.661 -2.2059  1.1535 -0.6373
   32MOL   H50424746   1.525   0.641   1.835 -1.6742  0.3155  0.3851
   32MOL   H50524747   1.215   0.907   1.628 -0.0782  1.1237  1.6069
   32MOL   H50624748   0.983   0.984   1.563 -2.0938 -2.2008 -1.7024
   32MOL   H50724749   0.814   0.728   1.855 -0.6798  2.8887  0.6468
   32MOL   H50824750   1.038   0.643   1.918 -2.7670  1.4554  1.9071
   32MOL   C50924751   0.236   1.215   1.560 -0.5294 -0.0412  0.2018
   32MOL   C51024752   0.368   1.156   1.609  0.6519  0.2946 -0.5610
   32MOL   C51124753   0.356   1.110   1.754  0.1960 -0.1192  0.7588
   32MOL   C51224754   0.500   1.070   1.797  0.3995  0.1651 -0.3978
   32MOL   O51324755   0.526   0.943   1.733 -0.0160  0.0393 -0.5216
   32MOL   C51424756   0.301   1.210   1.851  0.4239  0.0899  0.1612
   32MOL   C51524757   0.164   1.261   1.800 -0.0665  0.7200  0.3841
   32MOL   C51624758   0.176   1.316   1.657 -0.1198  0.0582  0.0724
   32MOL   C51724759   0.038   1.362   1.605  0.1659  0.2929  0.2016
   32MOL   O51824760   0.062   1.423   1.479  0.4043 -0.3727  0.4573
   32MOL   C51924761   7.997   1.482   1.413 -0.6379  0.0307  0.4123
   32MOL   O52024762   7.879   1.480   1.459  0.0625  0.2110  0.5618
   32MOL   C52124763   8.023   1.555   1.277  0.7272  0.1871  0.1795
   32MOL   C52224764   0.119   1.564   1.233 -0.1538  0.8392  0.4946
   32MOL   C52324765   0.151   1.634   1.112 -0.1635  0.2299  0.5196
   32MOL   C52424766   0.048   1.680   1.024 -0.0983 -0.6713 -0.0727
   32MOL   C52524767   0.069   1.749   0.893 -0.5809 -0.2368 -0.0697
   32MOL   O52624768   8.022   1.795   0.818  0.2837  0.3110 -0.1945
   32MOL   O52724769   0.200   1.767   0.866  0.3132 -0.4481 -0.0184
   32MOL   C52824770   7.950   1.666   1.068  0.5440 -0.3641 -0.2885
   32MOL   C52924771   7.917   1.607   1.196  0.0421 -0.7643  0.6571
   32MOL   H53024772   0.261   1.269   1.469  0.1330 -0.2847  0.2395
   32MOL   H53124773   0.166   1.136   1.531  1.0924 -1.5462  0.3264
   32MOL   H53224774   0.404   1.083   1.536 -1.3236 -0.6180 -0.6557
   32MOL   H53324775   0.438   1.240   1.612  2.2077 -0.8950 -2.4160
   32MOL   H53424776   0.291   1.023   1.748  0.3624 -0.1038 -1.7673
   32MOL   H53524777   0.573   1.148   1.777  1.2080 -1.1307 -2.6879
   32MOL   H53624778   0.499   1.057   1.906 -1.3609 -0.2194 -0.4326
   32MOL   H53724779   0.297   1.151   1.943  2.0753  0.1568  0.3001
   32MOL   H53824780   0.366   1.294   1.875 -0.1299  0.5103  0.1901
   32MOL   H53924781   0.122   1.321   1.880  1.2796  0.8645  1.0026
   32MOL   H54024782   0.093   1.178   1.801 -0.1440  0.7920  0.8226
   32MOL   H54124783   0.226   1.412   1.663 -3.0987  1.7049 -0.5200
   32MOL   H54224784   8.000   1.282   1.594  0.4940 -0.0998  0.8362
   32MOL   H54324785   8.024   1.426   1.678 -2.2340  0.8340 -1.8324
   32MOL   H54424786   0.195   1.519   1.294 -0.4582 -0.7775 -0.2889
   32MOL   H54524787   0.253   1.643   1.076  0.1585  0.6219  1.5302
   32MOL   H54624788   7.871   1.717   1.015  0.8780  0.7752  0.2831
   32MOL   H54724789   7.815   1.591   1.229 -0.1426  1.9345  1.4637
   32MOL   C54824790   0.654   1.936   0.785  0.4656  0.2883 -0.0316
   32MOL   C54924791   0.500   1.927   0.827 -0.6523 -0.1454 -0.0405
   32MOL   C55024792   0.417   1.960   0.706  0.1623  0.3583  0.6167
   32MOL   C55124793   0.269   1.949   0.724 -0.2631 -0.2080 -0.6283
   32MOL   O55224794   0.213   1.819   0.723  0.1186  0.1207 -0.3241
   32MOL   C55324795   0.457   2.102   0.668 -0.0323 -0.0628  0.2381
   32MOL   C55424796   0.604   2.108   0.615 -0.4129 -0.1391 -0.9989
   32MOL   C55524797   0.701   2.066   0.720 -0.2281  0.2536 -0.0319
   32MOL   C55624798   0.848   2.050   0.671 -0.6253 -0.0120  1.2401
   32MOL   O55724799   0.884   2.168   0.605  0.3737 -0.3186 -0.2331
   32MOL   C55824800   1.009   2.211   0.606  0.0301 -0.1526 -0.3623
   32MOL   O55924801   1.094   2.161   0.685 -0.3318 -0.4770 -0.4641
   32MOL   C56024802   1.036   2.310   0.500  0.6103  0.8657  0.2508
   32MOL   C56124803   1.163   2.375   0.501 -0.1351 -0.3644  0.5563
   32MOL   C56224804   1.185   2.477   0.403 -1.0035 -0.1896  0.5052
   32MOL   C56324805   1.083   2.499   0.306 -0.3187 -0.3026  0.0265
   32MOL   C56424806   1.101   2.586   0.185 -0.0179 -0.3069 -0.6769
   32MOL   O56524807   1.008   2.636   0.116 -0.2286 -0.5079  0.8307
   32MOL   O56624808   1.229   2.612   0.160 -0.4525  0.3544  0.8446
   32MOL   C56724809   0.957   2.443   0.316 -0.0453 -0.0319  0.1624
   32MOL   C56824810   0.930   2.343   0.411 -0.6547  0.1748  0.7938
   32MOL   H56924811   0.707   1.924   0.880  1.1327 -0.9194 -0.5500
   32MOL   H57024812   0.669   1.849   0.721  0.3706 -1.2423  1.9680
   32MOL   H57124813   0.478   1.828   0.866  0.2583  0.1301  1.1719
   32MOL   H57224814   0.470   1.999   0.903 -0.7018  1.2003 -1.3088
   32MOL   H57324815   0.439   1.897   0.619 -2.2062 -0.0683  0.3083
   32MOL   H57424816   0.238   2.001   0.814  2.0926  1.4034 -0.6865
   32MOL   H57524817   0.222   1.998   0.638 -1.3925  3.0680  1.7332
   32MOL   H57624818   0.394   2.141   0.588 -0.1466  0.1574  0.4352
   32MOL   H57724819   0.437   2.169   0.752  2.2122  0.4282  0.4252
   32MOL   H57824820   0.625   2.210   0.581 -0.1751  0.7978  1.8546
   32MOL   H57924821   0.630   2.048   0.527  1.4047 -1.5086  0.4272
   32MOL   H58024822   0.697   2.147   0.793 -0.3145 -1.2000  1.6075
   32MOL   H58124823   0.914   2.018   0.752  1.3063  0.2906 -0.1851
   32MOL   H58224824   0.836   1.969   0.599 -0.5678  0.7797  0.3203
   32MOL   H58324825   1.233   2.347   0.579  2.3355  1.5930 -0.8819
   32MOL   H58424826   1.276   2.534   0.414 -1.8273  1.6412 -1.5695
   32MOL   H58524827   0.873   2.461   0.250  0.0487 -0.2101 -0.0076
   32MOL   H58624828   0.833   2.295   0.418 -0.2061 -0.5538  2.2183
   32MOL   C58724829   1.476   3.035   7.806 -0.2495  0.6791  0.4704
   32MOL   C58824830   1.405   2.983   7.934 -0.2331  0.4888 -0.4463
   32MOL   C58924831   1.334   2.843   7.911 -0.4219  0.2665  0.0338
   32MOL   C59024832   1.279   2.799   0.012  0.5537 -0.6136 -0.1415
   32MOL   O59124833   1.254   2.657   0.020  0.4693  0.4381 -0.5305
   32MOL   C59224834   1.228   2.847   7.796 -0.3369 -0.3197  0.5629
   32MOL   C59324835   1.293   2.913   7.669  0.0291 -0.7792 -0.3104
   32MOL   C59424836   1.378   3.039   7.690 -0.2575  0.1292  0.1279
   32MOL   C59524837   1.453   3.078   7.555  0.3844 -0.4304 -0.5651
   32MOL   O59624838   1.482   3.221   7.566  0.2481  0.1454 -0.0151
   32MOL   C59724839   1.393   3.314   7.523  0.5053 -0.2446 -0.5763
   32MOL   O59824840   1.282   3.293   7.480 -0.5849 -0.5818  0.1028
   32MOL   C59924841   1.453   3.448   7.554 -0.1203 -0.2573  0.7542
   32MOL   C60024842   1.372   3.566   7.541 -0.1139 -1.2416  0.6361
   32MOL   C60124843   1.424   3.698   7.565  0.0093  0.1300  0.2335
   32MOL   C60224844   1.559   3.716   7.595 -0.2422  0.3829  0.0607
   32MOL   C60324845   1.627   3.850   7.612 -0.5988  0.6462  0.4555
   32MOL   O60424846   1.751   3.860   7.608 -0.0502 -0.0735  0.0246
   32MOL   O60524847   1.553   3.953   7.640 -0.6122  0.5015  0.1412
   32MOL   C60624848   1.636   3.598   7.608 -0.1682 -0.3697  0.4886
   32MOL   C60724849   1.584   3.467   7.584 -0.3492  0.3125  0.2603
   32MOL   H60824850   1.529   3.130   7.819 -2.3929  2.2881 -2.0174
   32MOL   H60924851   1.553   2.967   7.771 -1.5274  0.8975 -2.9179
   32MOL   H61024852   1.476   2.968   8.016 -2.4512  0.4376  1.5023
   32MOL   H61124853   1.338   3.059   7.973 -1.6892 -1.3624  0.7784
   32MOL   H61224854   1.414   2.774   7.885 -0.1855  0.5410  0.0192
   32MOL   H61324855   1.364   2.811   0.079  0.0453 -0.2477  0.4448
   32MOL   H61424856   1.190   2.858   0.036 -0.3845 -0.1566 -4.3492
   32MOL   H61524857   1.202   2.743   7.777  0.8511 -0.7075  0.9557
   32MOL   H61624858   1.139   2.889   7.842 -0.4207  0.2606 -0.1437
   32MOL   H61724859   1.227   2.932   7.585 -2.5786 -2.3544  1.2981
   32MOL   H61824860   1.356   2.831   7.632 -0.6206 -1.8732  0.9683
   32MOL   H61924861   1.304   3.111   7.724 -0.0048 -0.3151  1.6784
   32MOL   H62024862   1.539   3.011   7.552  0.4483 -0.4489  0.9982
   32MOL   H62124863   1.384   3.055   7.474  0.5540 -1.3848 -0.4475
   32MOL   H62224864   1.273   3.547   7.501  0.0662  0.4853 -0.6686
   32MOL   H62324865   1.357   3.782   7.552  2.2791  2.0453  0.5176
   32MOL   H62424866   1.743   3.603   7.626  0.6820 -0.7398 -4.0414
   32MOL   H62524867   1.652   3.385   7.599  0.6438  0.9393 -0.8261
   32MOL   C62624868   1.992   4.201   7.403 -0.5990  0.0123 -0.2774
   32MOL   C62724869   1.872   4.131   7.468 -0.1488  0.2859 -0.3248
   32MOL   C62824870   1.754   4.224   7.496  0.6385  0.2199  0.8712
   32MOL   C62924871   1.622   4.157   7.552 -0.1384 -1.0332  0.9042
   32MOL   O63024872   1.628   4.085   7.669  0.4292 -0.0112  0.2465
   32MOL   C63124873   1.808   4.334   7.597 -0.1133 -0.5799  0.3702
   32MOL   C63224874   1.930   4.412   7.537  0.9085 -0.1737  0.1436
   32MOL   C63324875   2.046   4.317   7.498  0.5304  0.4633 -0.4773
   32MOL   C63424876   2.155   4.400   7.426 -0.2902 -0.4795  0.2902
   32MOL   O63524877   2.274   4.327   7.393  0.4619  0.2925  0.0875
   32MOL   C63624878   2.366   4.389   7.317 -1.5688 -0.0231 -0.8865
   32MOL   O63724879   2.356   4.508   7.275 -0.1215  0.1659 -0.0920
   32MOL   C63824880   2.474   4.294   7.295 -0.1446  0.2548  0.0763
   32MOL   C63924881   2.500   4.175   7.373 -0.3337  0.1561  0.1460
   32MOL   C64024882   2.614   4.102   7.346  0.7569  0.2976 -0.4319
   32MOL   C64124883   2.713   4.140   7.254 -0.3036  0.0600 -0.0716
   32MOL   C64224884   2.844   4.067   7.249  0.4116 -0.7773  0.0995
   32MOL   O64324885   2.843   3.942   7.240 -0.0633  0.0203  0.1164
   32MOL   O64424886   2.957   4.142   7.246  0.6153 -0.3796 -0.1268
   32MOL   C64524887   2.686   4.254   7.171 -1.1863  0.8582  0.3293
   32MOL   C64624888   2.570   4.328   7.195 -0.8515  0.4781 -0.4624
   32MOL   H64724889   2.073   4.128   7.393 -0.5602 -0.0892  0.7242
   32MOL   H64824890   1.958   4.248   7.310 -2.8420  0.0854  0.5511
   32MOL   H64924891   1.828   4.055   7.403  1.1153  0.2583 -1.1596
   32MOL   H65024892   1.899   4.085   7.563  0.0738 -0.1049 -0.5727
   32MOL   H65124893   1.725   4.272   7.403  1.2242  1.3824  1.2809
   32MOL   H65224894   1.540   4.222   7.583 -2.0219 -2.6580 -0.5450
   32MOL   H65324895   1.587   4.091   7.473 -3.3260  0.5948  0.8436
   32MOL   H65424896   1.727   4.405   7.616 -0.4435 -1.0140  0.6026
   32MOL   H65524897   1.826   4.295   7.697  2.5013 -1.7845 -0.5226
   32MOL   H65624898   1.966   4.494   7.601  0.6376 -0.1001  0.2044
   32MOL   H65724899   1.901   4.448   7.439 -0.4820  1.4868  1.1233
   32MOL   H65824900   2.085   4.281   7.594 -0.1201 -0.6276 -0.6146
   32MOL   H65924901   2.118   4.423   7.326 -1.7043 -0.1085  0.8763
   32MOL   H66024902   2.171   4.495   7.477  1.9009 -1.2495  1.0846
   32MOL   H66124903   2.429   4.150   7.450 -0.4051 -1.1714 -0.3238
   32MOL   H66224904   2.637   4.012   7.401  0.0035  0.1559 -0.3433
   32MOL   H66324905   2.756   4.289   7.097 -0.3120 -1.0241  0.2600
   32MOL   H66424906   2.565   4.425   7.146  2.0438  1.0150  0.2480
   32MOL   C66524907   2.923   4.561   7.683 -0.5015 -0.7149 -0.2251
   32MOL   C66624908   2.990   4.444   7.623  0.1410 -0.1164  0.2140
   32MOL   C66724909   2.929   4.415   7.481 -0.2964  0.0302 -0.5004
   32MOL   C66824910   2.998   4.298   7.417 -0.1112  0.4265 -0.8313
   32MOL   O66924911   2.944   4.285   7.293  0.2867 -0.5535  0.6775
   32MOL   C67024912   2.775   4.385   7.503 -0.6660 -0.5500 -0.2516
   32MOL   C67124913   2.706   4.499   7.586 -0.2935  0.0929 -0.1711
   32MOL   C67224914   2.782   4.514   7.721  0.8625 -0.1835 -0.4219
   32MOL   C67324915   2.713   4.625   7.804  0.6002 -0.1030  0.3327
   32MOL   O67424916   2.731   4.748   7.752  0.4730  0.3020  0.2254
   32MOL   C67524917   2.691   4.860   7.822  0.2049  0.1682  0.1336
   32MOL   O67624918   2.626   4.850   7.926 -0.4602 -0.7876 -0.3940
   32MOL   C67724919   2.721   4.987   7.751  0.2399 -0.5594  0.0630
   32MOL   C67824920   2.668   5.109   7.805  0.0422  0.3354 -0.0101
   32MOL   C67924921   2.694   5.225   7.738 -0.4063 -0.9944  0.2812
   32MOL   C68024922   2.773   5.233   7.621 -0.3798 -0.0811 -0.5515
   32MOL   C68124923   2.790   5.366   7.557  0.2199 -0.6407  0.2675
   32MOL   O68224924   2.770   5.476   7.614  0.0497  0.7268  0.3261
   32MOL   O68324925   2.823   5.361   7.416  0.5783  0.1818 -0.3781
   32MOL   C68424926   2.827   5.114   7.571 -0.5462  0.4392 -0.1620
   32MOL   C68524927   2.800   4.988   7.633 -0.3990 -0.8631 -0.4119
   32MOL   H68624928   2.987   4.576   7.770 -0.0555  1.5632 -0.9121
   32MOL   H68724929   2.918   4.653   7.624 -0.1211 -0.2963  0.3887
   32MOL   H68824930   3.095   4.464   7.602  0.1302 -0.6043 -0.3280
   32MOL   H68924931   2.993   4.358   7.690  0.2701 -0.7334 -0.5896
   32MOL   H69024932   2.944   4.496   7.410  1.6019 -0.3540 -0.5551
   32MOL   H69124933   3.106   4.313   7.417 -0.4170  2.8815 -0.8203
   32MOL   H69224934   2.986   4.201   7.465  1.8934 -0.1771 -1.5272
   32MOL   H69324935   2.717   4.366   7.413 -1.2647 -1.7714  0.3761
   32MOL   H69424936   2.758   4.300   7.569 -1.2738  1.2907  2.0326
   32MOL   H69524937   2.612   4.453   7.617  0.6439 -1.3781  0.5359
   32MOL   H69624938   2.684   4.594   7.538 -0.2748 -0.3477 -1.0678
   32MOL   H69724939   2.789   4.424   7.782  1.5480 -0.3374 -0.7308
   32MOL   H69824940   2.607   4.606   7.792  0.4929  0.9493 -0.4477
   32MOL   H69924941   2.746   4.628   7.908 -0.5039 -0.3773  0.6910
   32MOL   H70024942   2.610   5.116   7.897 -0.1700  0.1468 -0.1295
   32MOL   H70124943   2.639   5.315   7.763  0.9268 -0.2687  0.6228
   32MOL   H70224944   2.875   5.116   7.474 -0.7936 -1.3851 -0.3426
   32MOL   H70324945   2.836   4.896   7.588  1.1019 -0.3124 -0.3763
   32MOL   C70424946   2.955   5.506   6.926 -0.2141  0.6491  0.1371
   32MOL   C70524947   2.940   5.464   7.070  0.1575  0.0530  0.0882
   32MOL   C70624948   2.971   5.571   7.173 -0.3136 -0.1729 -0.0672
   32MOL   C70724949   2.966   5.512   7.317  0.5028 -0.3964 -0.3291
   32MOL   O70824950   2.833   5.488   7.346 -1.1542 -0.5408  0.7740
   32MOL   C70924951   3.109   5.632   7.139 -0.2596 -0.0929  0.2155
   32MOL   C71024952   3.119   5.674   6.988 -0.7861  0.6976 -0.6755
   32MOL   C71124953   3.096   5.551   6.888 -0.3068 -0.0697 -0.3566
   32MOL   C71224954   3.124   5.576   6.731 -0.4880 -0.4782 -0.4808
   32MOL   O71324955   3.035   5.682   6.690 -0.4288  0.2796 -0.0745
   32MOL   C71424956   3.074   5.805   6.687  0.5784  0.0464  0.0324
   32MOL   O71524957   3.187   5.847   6.719  0.4455  0.2384  0.4908
   32MOL   C71624958   2.963   5.894   6.638  0.5580  0.4091 -0.7105
   32MOL   C71724959   2.846   5.843   6.581 -0.3227 -0.4926  0.5980
   32MOL   C71824960   2.747   5.923   6.527  0.1036  0.5606  0.2787
   32MOL   C71924961   2.753   6.066   6.536 -0.6238 -0.0398  0.6913
   32MOL   C72024962   2.647   6.161   6.486  0.1481  0.0146  0.0637
   32MOL   O72124963   2.667   6.273   6.448 -1.0620  0.0634 -0.5656
   32MOL   O72224964   2.528   6.104   6.489 -0.2872 -0.3999  0.1185
   32MOL   C72324965   2.867   6.115   6.601  0.4975 -0.4424 -0.5491
   32MOL   C72424966   2.973   6.031   6.646  0.2885 -0.3766 -0.4740
   32MOL   H72524967   2.935   5.423   6.859 -1.5212  0.9445  0.1618
   32MOL   H72624968   2.878   5.581   6.912 -0.0454  0.7587 -0.1971
   32MOL   H72724969   2.844   5.414   7.083 -0.0639  0.9208  1.9676
   32MOL   H72824970   3.014   5.384   7.076  0.9294  0.9031  2.5012
   32MOL   H72924971   2.904   5.657   7.164  1.8856  1.4456 -1.8048
   32MOL   H73024972   3.032   5.425   7.309  0.4931 -0.3457 -0.9966
   32MOL   H73124973   3.007   5.584   7.388  0.0260  0.3368 -0.7968
   32MOL   H73224974   3.147   5.712   7.202  1.1359  1.0112 -1.9862
   32MOL   H73324975   3.180   5.554   7.166  0.3904  0.5087  0.2529
   32MOL   H73424976   3.221   5.706   6.970  0.8517 -2.5456  2.1553
   32MOL   H73524977   3.060   5.766   6.983 -0.2906  1.1694  1.5961
   32MOL   H73624978   3.164   5.470   6.914 -1.2411 -0.5623  0.5721
   32MOL   H73724979   3.228   5.598   6.707 -0.0207  0.2303  1.9913
   32MOL   H73824980   3.105   5.484   6.676 -1.9535  0.1023 -0.9618
   32MOL   H73924981   2.819   5.739   6.571  0.6529 -0.5150 -2.5327
   32MOL   H74024982   2.663   5.876   6.479 -0.7607  2.0922  0.2742
   32MOL   H74124983   2.886   6.221   6.593  1.2390 -0.6064 -0.9320
   32MOL   H74224984   3.067   6.078   6.671  0.4573 -0.3283 -1.1749
   32MOL   C74324985   2.266   6.547   6.252 -0.7017  0.4009 -0.3986
   32MOL   C74424986   2.346   6.455   6.345  0.2256  0.9592 -0.0677
   32MOL   C74524987   2.255   6.353   6.413 -0.1655  0.4129 -0.1583
   32MOL   C74624988   2.339   6.257   6.494  0.0006  0.2895 -0.1823
   32MOL   O74724989   2.416   6.177   6.403 -0.1109  0.1892 -0.1140
   32MOL   C74824990   2.154   6.436   6.499 -0.0345 -0.0544  0.6512
   32MOL   C74924991   2.066   6.524   6.404 -0.2556 -0.0114  0.0238
   32MOL   C75024992   2.158   6.623   6.326 -0.1541 -0.0451  0.3683
   32MOL   C75124993   2.084   6.713   6.221 -0.8101  0.8422 -0.4086
   32MOL   O75224994   2.001   6.635   6.148 -0.0473 -0.5509  0.2731
   32MOL   C75324995   1.953   6.670   6.031 -0.2388 -0.4168  0.0221
   32MOL   O75424996   1.964   6.781   5.983 -0.6971 -0.2917  0.5432
   32MOL   C75524997   1.864   6.562   5.964  0.4962  0.0629 -0.9316
   32MOL   C75624998   1.847   6.434   6.028  0.1138 -0.5264  0.1137
   32MOL   C75724999   1.755   6.343   5.968  0.1003  0.1774  0.2685
   32MOL   C75825000   1.695   6.376   5.843  0.0137  0.5828  0.3567
   32MOL   C75925001   1.593   6.280   5.792  0.2599  0.0564  0.9945
   32MOL   O76025002   1.538   6.188   5.853 -0.2653 -0.0534  0.5175
   32MOL   O76125003   1.551   6.318   5.670  0.0566  0.0813 -0.2059
   32MOL   C76225004   1.713   6.499   5.781  0.5004 -0.0689 -0.2558
   32MOL   C76325005   1.791   6.593   5.853  0.7818  0.5613  0.4628
   32MOL   H76425006   2.341   6.611   6.205 -0.6318  0.5467 -0.0828
   32MOL   H76525007   2.212   6.486   6.179  0.1990 -0.8865  0.0031
   32MOL   H76625008   2.404   6.400   6.271  1.6839 -0.0863  1.8306
   32MOL   H76725009   2.417   6.510   6.406 -0.3935  2.2903 -0.5376
   32MOL   H76825010   2.199   6.292   6.343  1.6210 -1.7793  0.2685
   32MOL   H76925011   2.396   6.307   6.572  0.8137 -1.3833  0.3108
   32MOL   H77025012   2.265   6.212   6.560 -1.5520  0.6714 -1.6389
   32MOL   H77125013   2.090   6.366   6.553  0.7860 -0.6738  0.8311
   32MOL   H77225014   2.205   6.485   6.582 -2.0785  0.5306  1.5996
   32MOL   H77325015   1.987   6.564   6.467 -1.9398 -0.9542 -1.4274
   32MOL   H77425016   2.012   6.466   6.329 -1.0511  0.0084  0.5830
   32MOL   H77525017   2.197   6.697   6.396 -2.5883  1.7379 -0.0878
   32MOL   H77625018   2.025   6.791   6.270  0.6023  0.3668  2.1498
   32MOL   H77725019   2.158   6.766   6.162 -2.8592  3.5425 -0.6488
   32MOL   H77825020   1.887   6.414   6.126  0.4837 -2.2762 -0.3885
   32MOL   H77925021   1.743   6.247   6.017  0.1210  0.5203  0.9516
   32MOL   H78025022   1.674   6.520   5.682  1.1507 -0.4161 -0.5869
   32MOL   H78125023   1.821   6.685   5.804  0.9298 -0.2692 -1.0454
   32MOL   H78225024   1.467   6.279   5.650  1.2382 -2.3144 -0.6913
   33MOL     C125025   6.752   3.533   6.800  0.5472 -0.7439 -0.2306
   33MOL     C225026   6.873   3.531   6.699 -0.0093  0.6981 -0.1839
   33MOL     C325027   6.975   3.420   6.733  0.6034 -0.1113 -0.2255
   33MOL     C425028   7.086   3.414   6.634 -0.0031 -0.0476  0.0492
   33MOL     O525029   7.150   3.540   6.632  0.5015  0.1943  0.2081
   33MOL     C625030   7.022   3.431   6.879  0.2220  0.0696 -0.2144
   33MOL     C725031   6.907   3.466   6.979 -0.0034 -0.2507  0.7111
   33MOL     C825032   6.796   3.572   6.940  0.5606  0.9262  0.4956
   33MOL     C925033   6.676   3.577   7.035 -0.3635 -0.1556 -0.4336
   33MOL    O1025034   6.617   3.701   7.049 -0.1096  0.5749 -0.4939
   33MOL    C1125035   6.505   3.721   6.988 -0.2041 -0.3767 -0.2794
   33MOL    O1225036   6.446   3.637   6.915 -0.3310 -0.1501  0.3444
   33MOL    C1325037   6.454   3.859   7.013  0.6155  0.2332 -0.1478
   33MOL    C1425038   6.383   3.930   6.909  0.1184  0.0893 -0.3699
   33MOL    C1525039   6.325   4.056   6.930  0.1076  0.9310  0.1866
   33MOL    C1625040   6.323   4.104   7.061  0.0085 -0.4067  0.0259
   33MOL    C1725041   6.245   4.228   7.083  0.6948  0.5880  0.0379
   33MOL    O1825042   6.198   4.297   6.993  0.4602  0.2238  0.6962
   33MOL    O1925043   6.244   4.267   7.212  0.0006 -0.7114  0.2505
   33MOL    C2025044   6.386   4.034   7.168  0.7145  0.1080  0.0132
   33MOL    C2125045   6.464   3.921   7.137  0.1228 -0.4285 -0.3882
   33MOL    H2225046   6.680   3.606   6.765 -0.9484 -1.1029  1.9869
   33MOL    H2325047   6.688   3.446   6.816 -0.9287 -0.1300 -2.6028
   33MOL    H2425048   6.837   3.501   6.601  1.1202  0.3323 -0.5016
   33MOL    H2525049   6.924   3.627   6.691 -2.3766  2.1097  1.4045
   33MOL    H2625050   6.923   3.325   6.717 -0.4144  0.7945 -2.5207
   33MOL    H2725051   7.153   3.331   6.653 -0.0348  0.1105  0.8530
   33MOL    H2825052   7.048   3.388   6.535  0.5693  0.7581 -0.3953
   33MOL    H2925053   7.083   3.347   6.913 -0.2241  0.1262  0.7378
   33MOL    H3025054   7.089   3.517   6.871 -1.5582  1.3155 -2.0140
   33MOL    H3125055   6.961   3.496   7.069  3.7736  0.0846 -1.5276
   33MOL    H3225056   6.849   3.376   6.999  1.6649 -1.4638  0.2394
   33MOL    H3325057   6.845   3.667   6.920  1.3368  0.1455 -1.4181
   33MOL    H3425058   6.606   3.497   7.011  0.7105 -0.9648 -0.8963
   33MOL    H3525059   6.721   3.569   7.134 -3.0306  0.8011  0.9003
   33MOL    H3625060   6.390   3.883   6.812 -0.6297  2.3542 -1.5495
   33MOL    H3725061   6.272   4.108   6.852  1.2945 -0.8364 -1.8505
   33MOL    H3825062   6.376   4.061   7.272  3.1558  1.2669 -0.0143
   33MOL    H3925063   6.521   3.867   7.211  0.2599  1.2772  0.7904
   33MOL    H4025064   7.083   3.605   6.620 -0.2973 -0.5774  0.3980
   33MOL    C4125065   6.152   4.387   7.693 -0.4738 -0.2463  0.0829
   33MOL    C4225066   6.142   4.415   7.544 -0.0272 -0.2888  0.8364
   33MOL    C4325067   6.100   4.292   7.465 -0.0552  0.1366  0.6237
   33MOL    C4425068   6.047   4.321   7.319 -0.2987 -0.8525 -0.1086
   33MOL    O4525069   6.148   4.372   7.243 -0.3121  0.0387  0.7457
   33MOL    C4625070   6.209   4.185   7.492 -0.2737  0.0024  0.0407
   33MOL    C4725071   6.216   4.144   7.634 -0.0116 -0.3528  0.7338
   33MOL    C4825072   6.242   4.270   7.726  0.1927 -1.0691 -0.0434
   33MOL    C4925073   6.228   4.228   7.873 -0.1536 -0.0234  0.3816
   33MOL    O5025074   6.101   4.154   7.890  0.3546  0.4694  0.2352
   33MOL    C5125075   6.101   4.025   7.937  0.5580  0.4591 -0.5083
   33MOL    O5225076   6.205   3.965   7.944 -0.3858 -0.0421 -0.5442
   33MOL    C5325077   5.967   3.971   7.975 -0.0502  0.2189  0.0390
   33MOL    C5425078   5.951   3.841   8.026  0.3608  0.1902 -0.3265
   33MOL    C5525079   5.821   3.781   0.004  0.0748 -1.0386 -0.4791
   33MOL    C5625080   5.707   3.862   8.024  0.1006 -0.2333  0.1770
   33MOL    C5725081   5.570   3.814   0.006 -0.9379 -0.0620 -0.0292
   33MOL    O5825082   5.539   3.697   8.012  0.0935 -0.2165 -0.1610
   33MOL    O5925083   5.492   3.916   0.043  0.8576  0.7747 -0.0321
   33MOL    C6025084   5.727   3.995   7.984 -0.0678  0.7600 -0.2184
   33MOL    C6125085   5.853   4.047   7.962  0.0243  0.1385  0.0262
   33MOL    H6225086   6.181   4.483   7.737  0.7322  0.6641 -2.6040
   33MOL    H6325087   6.053   4.373   7.736 -0.0558  2.9079  2.2403
   33MOL    H6425088   6.072   4.497   7.530 -0.4291 -0.8451 -0.4665
   33MOL    H6525089   6.237   4.453   7.507 -0.7315  0.3351 -0.3796
   33MOL    H6625090   6.014   4.249   7.517 -1.6988  1.2912 -1.0962
   33MOL    H6725091   6.001   4.232   7.275 -0.7666 -0.6900  0.0430
   33MOL    H6825092   5.967   4.394   7.325  1.2192  0.6938  1.5055
   33MOL    H6925093   6.188   4.103   7.423 -0.0551 -0.4872  0.5469
   33MOL    H7025094   6.308   4.219   7.463 -0.4311 -0.7693 -1.4154
   33MOL    H7125095   6.296   4.071   7.643  0.5936  0.3968  1.6457
   33MOL    H7225096   6.118   4.107   7.662  0.4549 -0.6532  2.0420
   33MOL    H7325097   6.344   4.305   7.707 -1.1226  2.6546 -0.6929
   33MOL    H7425098   6.316   4.168   7.892 -1.2437 -1.4645  0.9175
   33MOL    H7525099   6.236   4.306   7.949 -3.8808  0.7919  0.0615
   33MOL    H7625100   6.038   3.783   0.016 -0.7627 -2.7147 -2.8581
   33MOL    H7725101   5.817   3.688   0.058  1.7755 -0.1544  1.2216
   33MOL    H7825102   5.640   4.057   7.971 -0.2588  0.8678  1.4941
   33MOL    H7925103   5.867   4.147   7.926 -0.2424  0.9990  2.2506
   33MOL    C8025104   4.924   3.961   0.095 -0.6556 -0.2714 -0.6346
   33MOL    C8125105   5.077   3.987   0.086  0.2518  0.0134 -0.0412
   33MOL    C8225106   5.131   3.949   7.987 -0.1465 -0.2867  0.5982
   33MOL    C8325107   5.281   3.967   7.985 -0.2931 -0.8600 -0.0549
   33MOL    O8425108   5.345   3.876   0.034  0.0744 -0.1331 -0.5925
   33MOL    C8525109   5.079   3.821   7.933  0.5361  0.0275  0.3610
   33MOL    C8625110   4.925   3.811   7.933 -0.5111 -0.3414 -0.0123
   33MOL    C8725111   4.888   3.819   0.052  0.0695  0.5409 -0.1520
   33MOL    C8825112   4.731   3.809   0.060 -0.0365 -0.0720 -0.1739
   33MOL    O8925113   4.689   3.684   0.109 -0.2144 -0.1739 -0.5868
   33MOL    C9025114   4.647   3.683   0.240 -0.1207 -0.2702 -0.2826
   33MOL    O9125115   4.682   3.764   0.325 -0.1562  0.2924 -0.5864
   33MOL    C9225116   4.568   3.558   0.282  0.2133  0.2419 -0.2929
   33MOL    C9325117   4.555   3.446   0.199 -0.0783 -0.4243 -0.5658
   33MOL    C9425118   4.478   3.332   0.238  0.4247 -0.0348  0.0041
   33MOL    C9525119   4.427   3.322   0.367  0.1355 -0.3216 -0.3343
   33MOL    C9625120   4.363   3.200   0.415 -0.3805 -0.0940  0.4264
   33MOL    O9725121   4.348   3.099   0.346  0.3019 -0.2254  0.3119
   33MOL    O9825122   4.315   3.209   0.547  0.8189 -0.4585  0.0648
   33MOL    C9925123   4.446   3.438   0.453 -0.3132 -0.1180  0.4917
   33MOL   C10025124   4.513   3.553   0.412 -0.0201  0.3737 -0.2355
   33MOL   H10125125   4.890   3.976   0.197  1.9391  0.8777  0.0905
   33MOL   H10225126   4.864   4.030   0.034 -0.6400 -0.4424 -0.8441
   33MOL   H10325127   5.102   4.091   0.110  0.6134 -0.7141  2.8944
   33MOL   H10425128   5.118   3.914   0.155 -0.1646  0.6627  0.9154
   33MOL   H10525129   5.090   4.021   7.915 -1.1407 -2.0915 -0.6759
   33MOL   H10625130   5.326   3.956   7.887 -0.8470 -0.6530 -0.3289
   33MOL   H10725131   5.302   4.071   8.006  1.0553 -0.7525 -1.8207
   33MOL   H10825132   5.106   3.807   7.828  0.2446 -2.7891  0.6207
   33MOL   H10925133   5.125   3.743   7.994  1.4632  0.3530  0.0988
   33MOL   H11025134   4.885   3.719   7.890 -0.5408 -0.2077 -0.2743
   33MOL   H11125135   4.885   3.899   7.883  1.7325  0.5863 -0.2639
   33MOL   H11225136   4.948   3.747   0.107 -0.3298  0.0229 -0.3960
   33MOL   H11325137   4.683   3.896   0.103 -1.9071 -1.6869  1.0758
   33MOL   H11425138   4.677   3.816   8.001 -0.7616 -0.0110  0.2464
   33MOL   H11525139   4.596   3.451   0.099  0.8873 -0.1177 -0.1590
   33MOL   H11625140   4.479   3.255   0.162 -2.4863  0.1531 -0.2785
   33MOL   H11725141   4.414   3.430   0.556 -0.2457 -1.1635  0.4392
   33MOL   H11825142   4.520   3.633   0.484 -0.3820  0.6407 -0.4947
   33MOL   C11925143   3.847   2.870   0.488  0.3061  0.6828 -0.2500
   33MOL   C12025144   3.970   2.969   0.481  1.4292  0.1439 -0.4824
   33MOL   C12125145   3.980   3.058   0.610 -0.8563  0.3677 -0.0406
   33MOL   C12225146   4.093   3.161   0.592  0.3059  0.1083 -0.3479
   33MOL   O12325147   4.220   3.097   0.585  0.0277  0.1363 -0.0405
   33MOL   C12425148   3.840   3.124   0.628 -0.4333  0.0737  0.1595
   33MOL   C12525149   3.725   3.017   0.636 -0.5603  0.4094  1.2910
   33MOL   C12625150   3.711   2.934   0.508  0.0303 -0.4203 -0.8129
   33MOL   C12725151   3.597   2.831   0.511  0.0717 -0.0137  0.1724
   33MOL   O12825152   3.570   2.784   0.386  0.2293 -0.1529  0.3109
   33MOL   C12925153   3.484   2.687   0.350 -0.1190 -0.2335  0.1891
   33MOL   O13025154   3.409   2.639   0.433 -0.4645  0.0611  0.5022
   33MOL   C13125155   3.494   2.653   0.205  0.4021 -0.1333 -0.5966
   33MOL   C13225156   3.603   2.693   0.126  0.5071 -0.1578  0.2206
   33MOL   C13325157   3.591   2.677   8.024 -0.5241  0.4678  0.3074
   33MOL   C13425158   3.472   2.616   7.968 -0.7608  0.8655 -0.1699
   33MOL   C13525159   3.466   2.589   7.821 -0.0352 -0.3916 -0.3276
   33MOL   O13625160   3.559   2.621   7.741 -0.2761  0.0363  0.3617
   33MOL   O13725161   3.343   2.545   7.780 -0.1387  0.1628  0.5369
   33MOL   C13825162   3.369   2.574   0.016  0.1824 -0.4770  0.5064
   33MOL   C13925163   3.379   2.593   0.155  0.3140  0.6613  0.2195
   33MOL   H14025164   3.837   2.802   0.404  0.5107 -0.1865  0.4178
   33MOL   H14125165   3.869   2.815   0.580 -0.7740  0.3066 -0.2077
   33MOL   H14225166   4.057   2.911   0.451  0.9488 -0.7240 -0.2345
   33MOL   H14325167   3.946   3.034   0.397  0.7834  0.7458  0.1604
   33MOL   H14425168   3.990   2.994   0.697 -1.7836  0.9110  0.4745
   33MOL   H14525169   4.080   3.212   0.496  2.3758 -0.8044 -1.1519
   33MOL   H14625170   4.100   3.239   0.668  1.4491  2.1560 -2.4821
   33MOL   H14725171   3.836   3.188   0.717 -0.1702 -0.0697  0.2740
   33MOL   H14825172   3.821   3.195   0.548  1.1986  0.8257  0.4207
   33MOL   H14925173   3.626   3.058   0.651 -1.7592 -0.4042 -3.4585
   33MOL   H15025174   3.752   2.963   0.726 -4.4286  0.1043  2.3323
   33MOL   H15125175   3.704   2.998   0.421 -1.8420 -0.0460 -0.4185
   33MOL   H15225176   3.630   2.753   0.579  1.7518  1.5049  1.1369
   33MOL   H15325177   3.507   2.872   0.554 -0.7494 -0.6982 -0.8624
   33MOL   H15425178   3.687   2.742   0.171  1.0418  1.6445 -2.6306
   33MOL   H15525179   3.676   2.703   7.963  0.0112  0.5765  1.0989
   33MOL   H15625180   3.276   2.534   8.013 -0.7128  1.0817  1.0267
   33MOL   H15725181   3.305   2.565   0.229  0.3460 -0.5021 -0.1815
   33MOL   C15825182   3.113   2.085   7.716  0.6311  0.0855  0.7553
   33MOL   C15925183   3.229   2.162   7.650 -0.5044  0.0956  0.1034
   33MOL   C16025184   3.215   2.313   7.673  0.4742 -0.2439 -0.3847
   33MOL   C16125185   3.343   2.380   7.602  0.3874 -0.2068  0.1964
   33MOL   O16225186   3.332   2.518   7.630 -0.5820 -0.1432 -0.0584
   33MOL   C16325187   3.084   2.351   7.598 -0.7697 -0.1513 -0.0137
   33MOL   C16425188   2.957   2.275   7.655  0.1585 -0.4342 -0.9198
   33MOL   C16525189   2.976   2.120   7.640 -0.0342 -0.3930 -0.4416
   33MOL   C16625190   2.850   2.040   7.690  0.1787  0.0845  0.4818
   33MOL   O16725191   2.836   2.057   7.839  0.7608 -0.3396 -0.2644
   33MOL   C16825192   2.830   1.952   7.924  0.1976  0.3637 -0.4396
   33MOL   O16925193   2.849   1.831   7.893  0.2287  0.9633 -0.5216
   33MOL   C17025194   2.798   2.004   0.026  0.1759  0.5732  0.7471
   33MOL   C17125195   2.811   1.920   0.140  0.7014  0.2776  0.5266
   33MOL   C17225196   2.795   1.979   0.268 -1.2700 -0.9064  1.4481
   33MOL   C17325197   2.770   2.116   0.279 -0.4871  0.7027 -0.0430
   33MOL   C17425198   2.759   2.177   0.415 -0.3010 -0.3193 -0.7432
   33MOL   O17525199   2.756   2.116   0.515  1.1247 -0.0082  0.1026
   33MOL   O17625200   2.748   2.311   0.402 -0.0997 -0.0960  0.0667
   33MOL   C17725201   2.742   2.195   0.163 -0.1115  0.3311 -0.6633
   33MOL   C17825202   2.756   2.138   0.041  0.0966  0.1372 -0.0163
   33MOL   H17925203   3.125   1.977   7.710  0.4586  0.0838  0.4160
   33MOL   H18025204   3.116   2.118   7.819  0.5021 -0.7945  1.0477
   33MOL   H18125205   3.324   2.135   7.696 -0.3491  0.0200 -0.2589
   33MOL   H18225206   3.247   2.134   7.546  0.7067 -2.1879  0.8967
   33MOL   H18325207   3.213   2.335   7.780 -0.1412  0.9383 -0.6260
   33MOL   H18425208   3.439   2.355   7.646  1.3214  0.3380 -1.4912
   33MOL   H18525209   3.350   2.373   7.494 -0.6673  1.5625 -0.0201
   33MOL   H18625210   3.066   2.457   7.614 -4.0724 -0.3492 -2.1452
   33MOL   H18725211   3.094   2.341   7.490 -1.4286 -0.6423 -0.0310
   33MOL   H18825212   2.867   2.307   7.601  0.6823  1.2017 -0.8663
   33MOL   H18925213   2.949   2.306   7.759  1.8150 -0.1783 -0.8561
   33MOL   H19025214   2.994   2.101   7.534 -0.6100 -2.3506 -0.2067
   33MOL   H19125215   2.758   2.071   7.641 -0.8472 -0.8460  1.7603
   33MOL   H19225216   2.865   1.933   7.672 -1.4399 -0.1593  0.4562
   33MOL   H19325217   2.846   1.819   0.126  0.4540  0.1698  0.6831
   33MOL   H19425218   2.817   1.921   0.356  0.8069 -0.8767  0.9793
   33MOL   H19525219   2.718   2.300   0.161 -1.1575  0.1889  2.0595
   33MOL   H19625220   2.730   2.197   7.990  0.6815  0.1870 -0.1538
   33MOL   C19725221   2.916   2.728   0.288  0.2519  0.4688  0.5008
   33MOL   C19825222   2.896   2.578   0.339  0.3017  0.1681 -0.0709
   33MOL   C19925223   2.927   2.568   0.488  0.0335  0.1048  0.1270
   33MOL   C20025224   2.908   2.427   0.546  0.6008 -0.0709  0.5354
   33MOL   O20125225   2.772   2.387   0.536  0.1071  0.0353  0.1687
   33MOL   C20225226   3.064   2.626   0.516  0.2085  0.2744 -0.0903
   33MOL   C20325227   3.075   2.772   0.465 -0.8477 -0.0476 -0.4107
   33MOL   C20425228   3.052   2.784   0.310  0.5611 -0.8128  0.5989
   33MOL   C20525229   3.070   2.922   0.251 -0.2496 -0.3170  0.2501
   33MOL   O20625230   3.200   2.976   0.271  0.6975 -0.1755  0.3443
   33MOL   C20725231   3.300   2.954   0.179  0.3620 -0.5860  0.3176
   33MOL   O20825232   3.281   2.873   0.081 -0.0372 -0.3482 -0.1216
   33MOL   C20925233   3.412   3.043   0.185  0.3960 -0.6422  0.8830
   33MOL   C21025234   3.440   3.124   0.301 -0.3518  0.0614 -0.5113
   33MOL   C21125235   3.550   3.213   0.298 -0.1744 -0.1392 -0.1089
   33MOL   C21225236   3.648   3.200   0.194  0.5027 -0.0590  1.2612
   33MOL   C21325237   3.785   3.267   0.207 -0.1560 -0.7374  0.0166
   33MOL   O21425238   3.827   3.330   0.302  0.1052  0.1820  0.7186
   33MOL   O21525239   3.858   3.257   0.095  0.1331 -0.3391 -0.2141
   33MOL   C21625240   3.619   3.120   0.078  0.1545  0.5395  0.1817
   33MOL   C21725241   3.499   3.048   0.071  0.6966  0.3063 -1.1931
   33MOL   H21825242   2.894   2.723   0.182 -0.2429 -2.5626  0.6865
   33MOL   H21925243   2.847   2.802   0.328 -0.9157 -0.3954  0.1231
   33MOL   H22025244   2.793   2.550   0.316  0.1254 -0.8564  1.9594
   33MOL   H22125245   2.959   2.510   0.283 -0.3499 -0.3914 -0.1313
   33MOL   H22225246   2.855   2.636   0.532 -1.4237 -0.5390 -1.2311
   33MOL   H22325247   2.964   2.356   0.486 -0.2838 -0.7469  0.4926
   33MOL   H22425248   2.942   2.413   0.649 -0.0665 -0.7700  0.6689
   33MOL   H22525249   3.089   2.625   0.622  1.8767  0.7760 -0.4556
   33MOL   H22625250   3.142   2.570   0.463  1.7818  2.4982 -0.1981
   33MOL   H22725251   3.176   2.808   0.484 -1.4716  2.2582 -1.2860
   33MOL   H22825252   3.001   2.839   0.508 -1.1893 -0.9893  0.4899
   33MOL   H22925253   3.131   2.721   0.268  0.9059  1.2854 -2.1165
   33MOL   H23025254   3.043   2.923   0.145 -1.1937  3.0830  0.4497
   33MOL   H23125255   2.997   2.999   0.279  1.7650  1.6728  0.1509
   33MOL   H23225256   3.379   3.132   0.390  2.0900  0.9833  1.1232
   33MOL   H23325257   3.580   3.274   0.382  2.1495 -2.4604  0.7893
   33MOL   H23425258   3.695   3.102   0.004  0.7190  0.2763  0.8192
   33MOL   H23525259   3.475   3.000   8.013  0.4341  0.8910 -1.4245
   33MOL   C23625260   4.094   2.870   0.054 -0.1882 -1.0877 -0.6323
   33MOL   C23725261   4.092   3.007   0.122 -0.6880 -0.3523 -0.4792
   33MOL   C23825262   4.109   3.129   0.022 -0.8877 -1.1272  1.0326
   33MOL   C23925263   4.101   3.268   0.096 -0.1434 -0.3307  0.9043
   33MOL   O24025264   3.980   3.347   0.076  0.6895  0.0386 -0.3972
   33MOL   C24125265   4.247   3.097   7.981 -0.0623  0.8468  0.7076
   33MOL   C24225266   4.241   2.957   7.913 -0.6229 -0.1348 -0.4810
   33MOL   C24325267   4.227   2.850   8.020  0.4403 -0.0832 -0.4847
   33MOL   C24425268   4.244   2.708   7.958 -0.3652 -0.0494  0.0525
   33MOL   O24525269   4.174   2.697   7.838  0.0743  0.1651  0.0261
   33MOL   C24625270   4.098   2.579   7.819  0.0919  0.9890 -0.3273
   33MOL   O24725271   4.120   2.473   7.873  0.6206  0.2598 -0.6162
   33MOL   C24825272   3.995   2.588   7.706 -0.5395  0.1754  0.3679
   33MOL   C24925273   3.975   2.711   7.636 -0.0207  0.7819 -1.2299
   33MOL   C25025274   3.887   2.718   7.527 -0.3636 -0.1342  0.0092
   33MOL   C25125275   3.805   2.605   7.494  0.0569  0.3158 -0.4397
   33MOL   C25225276   3.730   2.597   7.363 -0.0818 -0.3859 -0.0285
   33MOL   O25325277   3.737   2.679   7.275  0.2228  0.1917  0.3110
   33MOL   O25425278   3.654   2.485   7.361 -1.4157  0.2418 -0.6128
   33MOL   C25525279   3.840   2.485   7.562 -0.8509 -0.4857  0.4432
   33MOL   C25625280   3.924   2.476   7.671 -0.3824 -0.3203  0.5485
   33MOL   H25725281   4.066   2.797   0.130  2.7340 -1.3276  0.2592
   33MOL   H25825282   4.012   2.866   8.018  1.2350  0.0396 -2.3910
   33MOL   H25925283   3.991   3.010   0.162 -1.3590  1.1649 -2.2155
   33MOL   H26025284   4.158   3.008   0.209 -1.1547 -0.1765 -0.1269
   33MOL   H26125285   4.027   3.127   7.985 -0.5252 -0.9724  0.6153
   33MOL   H26225286   4.106   3.252   0.204 -0.3532 -1.8932  0.6868
   33MOL   H26325287   4.189   3.329   0.073 -0.5682 -0.4540 -1.1217
   33MOL   H26425288   4.271   3.173   7.907  0.4761 -0.0740 -0.0687
   33MOL   H26525289   4.330   3.106   0.015 -0.5759 -0.0843  1.4546
   33MOL   H26625290   4.340   2.956   7.867  0.7847  2.9288  2.3073
   33MOL   H26725291   4.172   2.949   7.828  0.6645  0.5681 -1.6153
   33MOL   H26825292   4.301   2.858   0.064  0.7940  0.3401 -0.8603
   33MOL   H26925293   4.350   2.687   7.951 -0.5305 -0.7877 -0.3003
   33MOL   H27025294   4.220   2.632   8.032 -0.6403  0.8680  0.9226
   33MOL   H27125295   4.032   2.800   7.660 -1.3949  1.0897  1.1208
   33MOL   H27225296   3.885   2.812   7.474 -1.3198  1.5729  2.9345
   33MOL   H27325297   3.795   2.393   7.529 -1.1450 -0.0955 -0.2518
   33MOL   H27425298   3.947   2.378   7.711 -4.8688 -1.2143  1.2434
   33MOL   C27525299   3.323   2.438   6.863  0.4557  0.4585 -0.3937
   33MOL   C27625300   3.427   2.477   6.965 -0.2569  0.1251  0.3961
   33MOL   C27725301   3.379   2.439   7.114  0.5346 -1.1580  0.4106
   33MOL   C27825302   3.458   2.507   7.230  0.0284 -0.1023  0.7288
   33MOL   O27925303   3.590   2.446   7.232  0.3803  0.0935 -0.0327
   33MOL   C28025304   3.226   2.473   7.137  0.7991 -0.3838 -0.1677
   33MOL   C28125305   3.123   2.442   7.021 -0.1933  0.3563  0.2501
   33MOL   C28225306   3.182   2.493   6.890 -0.1044  0.7595 -0.1457
   33MOL   C28325307   3.091   2.460   6.762  0.0517 -0.8250  0.2166
   33MOL   O28425308   3.093   2.324   6.726 -0.1903 -0.3936  0.3273
   33MOL   C28525309   3.003   2.270   6.632  0.1784  0.0281 -0.2957
   33MOL   O28625310   2.914   2.335   6.576 -0.2700 -0.0074  0.0605
   33MOL   C28725311   3.030   2.123   6.609 -0.0677 -0.0282 -0.4895
   33MOL   C28825312   2.997   2.055   6.494 -0.2764 -0.1142  0.5409
   33MOL   C28925313   3.021   1.917   6.475 -1.1783 -0.2069  1.1800
   33MOL   C29025314   3.086   1.841   6.574  0.7493  0.4459  0.0603
   33MOL   C29125315   3.109   1.694   6.561 -0.0689 -0.3495 -0.2006
   33MOL   O29225316   3.162   1.632   6.647  0.6794 -0.1009 -0.1728
   33MOL   O29325317   3.073   1.637   6.445  0.6918  0.6157  0.5276
   33MOL   C29425318   3.119   1.907   6.694  0.9086  0.3571  0.1102
   33MOL   C29525319   3.097   2.047   6.709  0.9782  0.0856 -0.3638
   33MOL   H29625320   3.358   2.467   6.763  2.3200  0.3373  0.1944
   33MOL   H29725321   3.316   2.330   6.853 -1.0837  0.7431 -3.0484
   33MOL   H29825322   3.518   2.422   6.942 -0.5389  0.2857 -1.1495
   33MOL   H29925323   3.437   2.580   6.932 -2.3141 -0.0702 -0.9548
   33MOL   H30025324   3.379   2.331   7.111  1.2041 -1.2453  2.4034
   33MOL   H30125325   3.455   2.615   7.212 -2.1632 -0.4333 -1.2222
   33MOL   H30225326   3.409   2.484   7.324 -0.3767  3.8157  1.5541
   33MOL   H30325327   3.198   2.422   7.229 -0.2081  0.2814 -0.1069
   33MOL   H30425328   3.221   2.581   7.149 -2.9561 -0.5483  0.2713
   33MOL   H30525329   3.025   2.487   7.039 -0.4769  0.1893 -0.8134
   33MOL   H30625330   3.104   2.335   7.015 -2.8157  0.8327 -0.6733
   33MOL   H30725331   3.198   2.600   6.899  0.6060  0.7310 -0.9263
   33MOL   H30825332   2.989   2.497   6.773  1.4696  3.3217  0.0492
   33MOL   H30925333   3.136   2.512   6.678 -2.9599 -0.6071 -1.2913
   33MOL   H31025334   2.954   2.105   6.409  2.7256  1.7139  0.0068
   33MOL   H31125335   3.003   1.873   6.378 -0.3253 -0.9519  1.3540
   33MOL   H31225336   3.184   1.858   6.765  0.8928 -0.1450 -0.2200
   33MOL   H31325337   3.131   2.084   6.804 -1.2795  2.2875 -0.3593
   33MOL   C31425338   3.191   1.665   5.994 -0.3186 -0.0980  0.1828
   33MOL   C31525339   3.193   1.660   6.148  1.2743  0.2977  0.5962
   33MOL   C31625340   3.234   1.518   6.198 -0.6010  0.0168 -0.3696
   33MOL   C31725341   3.235   1.497   6.353  0.1045 -0.7024 -0.3989
   33MOL   O31825342   3.116   1.494   6.429 -1.0403 -0.5164 -0.0073
   33MOL   C31925343   3.137   1.419   6.135 -0.0680 -0.1291  0.3996
   33MOL   C32025344   3.139   1.416   5.983  0.1517  0.3075  0.0718
   33MOL   C32125345   3.108   1.550   5.933  0.3058  0.7190  0.2405
   33MOL   C32225346   3.117   1.560   5.779 -0.1718 -0.5175  0.2787
   33MOL   O32325347   3.011   1.477   5.731 -0.0359 -0.3938 -0.0307
   33MOL   C32425348   2.915   1.519   5.648  0.4629  0.3468  0.5229
   33MOL   O32525349   2.902   1.633   5.602  0.0901  0.9667 -0.1958
   33MOL   C32625350   2.829   1.409   5.611  0.2287 -0.1996 -0.9567
   33MOL   C32725351   2.712   1.432   5.538 -0.4573  0.0296 -0.7616
   33MOL   C32825352   2.617   1.335   5.514  0.5413 -0.4230 -0.3346
   33MOL   C32925353   2.641   1.200   5.551  0.5002  0.5982  0.0134
   33MOL   C33025354   2.530   1.098   5.528 -0.1537  0.5470 -0.0605
   33MOL   O33125355   2.445   1.116   5.442 -0.3657  0.6643  0.3853
   33MOL   O33225356   2.535   0.999   5.616  0.2322  0.4572 -0.5334
   33MOL   C33325357   2.752   1.165   5.630 -0.4827 -0.4623  0.3860
   33MOL   C33425358   2.847   1.269   5.650  0.1434 -0.0731  0.0613
   33MOL   H33525359   3.168   1.765   5.960 -1.5913 -0.8791 -1.3086
   33MOL   H33625360   3.297   1.646   5.975 -0.2272  0.1873  0.4009
   33MOL   H33725361   3.263   1.734   6.187  0.1073  1.4043  0.6461
   33MOL   H33825362   3.094   1.683   6.187 -0.4357 -0.5896 -3.0039
   33MOL   H33925363   3.337   1.501   6.167 -0.7134  1.7940 -1.7948
   33MOL   H34025364   3.276   1.399   6.376  0.5658 -0.0285  1.7065
   33MOL   H34125365   3.301   1.567   6.403 -1.9946  1.4454 -0.5844
   33MOL   H34225366   3.143   1.320   6.179  2.0082 -0.0386  0.3387
   33MOL   H34325367   3.033   1.436   6.162 -0.9980 -1.6443 -2.0066
   33MOL   H34425368   3.061   1.356   5.937  1.7111 -0.3549 -1.7753
   33MOL   H34525369   3.238   1.393   5.944 -0.4124 -1.8604 -0.1557
   33MOL   H34625370   3.007   1.584   5.955  0.8621  2.1694  0.6473
   33MOL   H34725371   3.115   1.663   5.743 -0.2692 -1.5557 -2.7571
   33MOL   H34825372   3.217   1.535   5.744 -0.5902 -1.7214 -0.0670
   33MOL   H34925373   2.688   1.536   5.519  4.0791  1.1985 -0.6966
   33MOL   H35025374   2.525   1.370   5.471  0.5299  1.7890  1.3535
   33MOL   H35125375   2.766   1.064   5.665  0.6316 -0.5914 -0.4084
   33MOL   H35225376   2.938   1.243   5.702  1.0726  0.0367 -1.4626
   33MOL   C35325377   2.132   0.569   5.655  0.2807  0.6077 -0.4031
   33MOL   C35425378   2.260   0.655   5.656  0.1762  0.0852 -0.0919
   33MOL   C35525379   2.281   0.720   5.517  0.1800 -1.1530  0.0946
   33MOL   C35625380   2.404   0.812   5.517 -0.6327 -0.5902 -0.2364
   33MOL   O35725381   2.412   0.917   5.625 -0.0775  1.1198  0.2365
   33MOL   C35825382   2.303   0.608   5.405 -1.1847 -1.1830 -0.3072
   33MOL   C35925383   2.176   0.519   5.409  0.2678  0.6446 -0.2821
   33MOL   C36025384   2.148   0.455   5.548 -0.2051 -0.2385 -0.5645
   33MOL   C36125385   2.020   0.366   5.555  0.6840  0.8595 -0.1284
   33MOL   O36225386   2.053   0.254   5.483  0.1098  0.2207  0.8761
   33MOL   C36325387   1.965   0.209   5.396 -0.1941 -0.7948  0.3583
   33MOL   O36425388   1.846   0.253   5.376 -0.3367 -0.0035  0.2169
   33MOL   C36525389   2.017   0.094   5.311 -0.0562  0.5925  0.3686
   33MOL   C36625390   2.137   0.023   5.343 -0.5410 -0.5551  0.3634
   33MOL   C36725391   2.175   7.945   5.266  0.2712 -0.1462 -0.1704
   33MOL   C36825392   2.103   7.907   5.153  0.3152 -0.4684  0.0166
   33MOL   C36925393   2.138   7.787   5.085 -0.3338 -1.0117 -0.4045
   33MOL   O37025394   2.089   7.751   4.983 -0.5894 -0.1145 -1.1853
   33MOL   O37125395   2.244   7.722   5.151  0.4358 -0.3679 -0.0080
   33MOL   C37225396   1.990   7.984   5.117  0.0621 -0.0082 -0.3580
   33MOL   C37325397   1.949   0.058   5.192 -0.6558 -0.3795 -0.0136
   33MOL   H37425398   2.127   0.519   5.752  1.3606  0.4434 -0.4222
   33MOL   H37525399   2.044   0.631   5.643  0.3168  0.3363 -2.2811
   33MOL   H37625400   2.253   0.731   5.734 -1.9570  0.0917 -0.2483
   33MOL   H37725401   2.347   0.594   5.681 -1.6342 -2.6082 -0.1179
   33MOL   H37825402   2.193   0.781   5.498 -1.0970 -2.6479  1.0778
   33MOL   H37925403   2.486   0.743   5.536 -0.8404 -1.1953 -1.5188
   33MOL   H38025404   2.427   0.856   5.420 -3.9459  0.7443 -0.4931
   33MOL   H38125405   2.310   0.654   5.306  2.5381 -0.9874 -0.0142
   33MOL   H38225406   2.397   0.558   5.425 -0.0712  1.1797  0.4328
   33MOL   H38325407   2.185   0.442   5.331 -2.0818  0.4485 -0.4050
   33MOL   H38425408   2.076   0.556   5.387  0.1736 -0.2343 -1.3804
   33MOL   H38525409   2.228   0.385   5.568 -1.9554 -1.6394  1.8345
   33MOL   H38625410   2.008   0.339   5.660  3.3827  1.7180  0.4304
   33MOL   H38725411   1.931   0.418   5.519 -0.1256 -1.1803 -1.1552
   33MOL   H38825412   2.201   0.058   5.422  2.4970  1.8764 -2.9824
   33MOL   H38925413   2.265   7.899   5.303  2.2291  3.4384 -0.2206
   33MOL   H39025414   1.936   7.947   5.031  2.7193 -0.4526 -1.9116
   33MOL   H39125415   1.856   0.106   5.164  0.3822  1.9733  0.4445
   33MOL   C39225416   2.364   7.197   4.921  0.0882 -0.4479  0.4042
   33MOL   C39325417   2.303   7.328   4.940  0.4364  0.0846 -0.6099
   33MOL   C39425418   2.269   7.357   5.089  0.8904 -0.3646 -0.9701
   33MOL   C39525419   2.207   7.493   5.114  0.1137  0.5643 -0.5290
   33MOL   O39625420   2.294   7.598   5.079 -0.0871 -0.1779 -0.2077
   33MOL   C39725421   2.173   7.243   5.139 -0.6239 -0.1124  0.4926
   33MOL   C39825422   2.227   7.110   5.116 -0.3253  0.4136 -0.0573
   33MOL   C39925423   2.269   7.083   4.966 -0.0421 -0.3492  0.7624
   33MOL   C40025424   2.333   6.940   4.931 -0.3819 -0.1429  0.4968
   33MOL   O40125425   2.315   6.918   4.793  0.2156 -0.4534  0.1165
   33MOL   C40225426   2.423   6.872   4.716 -0.4639 -0.0570 -0.9861
   33MOL   O40325427   2.537   6.853   4.762 -0.0798  0.3122  0.5005
   33MOL   C40425428   2.397   6.845   4.570 -0.0043  0.0952 -0.0305
   33MOL   C40525429   2.283   6.900   4.500 -0.2256  0.1141 -0.5762
   33MOL   C40625430   2.276   6.879   4.358  0.3429  0.3401 -0.4769
   33MOL   C40725431   2.383   6.819   4.289 -0.0618  0.1047 -0.7064
   33MOL   C40825432   2.376   6.804   4.138 -0.1253 -0.1289 -0.3337
   33MOL   O40925433   2.284   6.827   4.061 -0.0933  0.4412  0.5831
   33MOL   O41025434   2.496   6.768   4.090  0.2890 -0.6658 -0.4695
   33MOL   C41125435   2.490   6.763   4.359 -0.1283  0.0208  0.4749
   33MOL   C41225436   2.497   6.770   4.502  0.8240  0.6129 -0.3745
   33MOL   H41325437   2.369   7.184   4.812 -3.6705 -0.9031  0.2302
   33MOL   H41425438   2.467   7.202   4.958  0.1245  3.8067 -0.0980
   33MOL   H41525439   2.385   7.395   4.912 -0.2879  0.3605 -2.1197
   33MOL   H41625440   2.213   7.343   4.879 -0.2748  2.1071  0.8552
   33MOL   H41725441   2.355   7.340   5.154  0.0448  0.2712  0.3512
   33MOL   H41825442   2.104   7.508   5.080 -0.3712 -2.5968 -0.6838
   33MOL   H41925443   2.194   7.505   5.222  0.1860  0.5242 -0.5155
   33MOL   H42025444   2.156   7.254   5.246  1.9475  0.6157  0.8725
   33MOL   H42125445   2.080   7.252   5.084  0.7035  2.0271 -1.5023
   33MOL   H42225446   2.156   7.033   5.147 -0.6807  0.5351 -0.5718
   33MOL   H42325447   2.312   7.088   5.181 -0.8418 -2.5457 -0.2937
   33MOL   H42425448   2.179   7.089   4.905 -0.7521  1.9325  1.9821
   33MOL   H42525449   2.437   6.947   4.960  0.5143  2.9773 -3.0473
   33MOL   H42625450   2.282   6.862   4.988  0.8357  0.0680  1.9009
   33MOL   H42725451   2.217   6.970   4.548  1.7372  1.4129  0.2900
   33MOL   H42825452   2.191   6.924   4.309 -2.3713 -3.5851  0.3085
   33MOL   H42925453   2.572   6.711   4.310 -0.3001  0.6928 -0.5195
   33MOL   H43025454   2.584   6.729   4.550  2.7059  3.6000 -1.1166
   33MOL   C43125455   2.680   6.653   3.563 -0.8404 -0.2348  0.2418
   33MOL   C43225456   2.671   6.678   3.713  0.7278 -0.3700 -0.1965
   33MOL   C43325457   2.529   6.625   3.753 -0.2377  0.1760 -0.3111
   33MOL   C43425458   2.507   6.636   3.906 -0.0829  0.4066  0.9295
   33MOL   O43525459   2.505   6.773   3.940 -0.1012  0.3863 -0.2052
   33MOL   C43625460   2.415   6.687   3.677 -0.1150  0.1784 -0.4068
   33MOL   C43725461   2.427   6.670   3.529 -0.1987 -0.0872 -0.3506
   33MOL   C43825462   2.569   6.709   3.477  0.7608 -0.6812 -0.3404
   33MOL   C43925463   2.581   6.700   3.326  0.2974  0.3971  0.1141
   33MOL   O44025464   2.597   6.565   3.282  0.4895 -0.4211  0.0400
   33MOL   C44125465   2.589   6.532   3.152  0.7941  0.7076  0.8289
   33MOL   O44225466   2.584   6.616   3.060  0.1635  0.7512 -0.2553
   33MOL   C44325467   2.592   6.384   3.138 -0.0724  0.1939 -0.1426
   33MOL   C44425468   2.621   6.286   3.242  0.1570 -0.9784 -0.3864
   33MOL   C44525469   2.620   6.148   3.217  0.2878  0.2971  0.5532
   33MOL   C44625470   2.621   6.099   3.082  0.5042  0.0330  0.6179
   33MOL   C44725471   2.630   5.950   3.060 -0.4795 -0.2357 -0.4850
   33MOL   O44825472   2.675   5.867   3.143 -0.1303 -0.6600  0.5947
   33MOL   O44925473   2.573   5.909   2.945 -0.7531 -0.0741 -0.4022
   33MOL   C45025474   2.588   6.190   2.977  0.5271 -0.2847 -0.3315
   33MOL   C45125475   2.578   6.330   3.004 -0.0433  0.1447 -0.0211
   33MOL   H45225476   2.768   6.698   3.518 -2.0392  1.5014 -0.4097
   33MOL   H45325477   2.679   6.545   3.550 -1.3795 -0.2759  0.6196
   33MOL   H45425478   2.744   6.620   3.769  2.3600 -0.2511 -2.1859
   33MOL   H45525479   2.692   6.783   3.734  0.6859  0.1079 -2.4993
   33MOL   H45625480   2.529   6.517   3.740 -2.1127  0.0024  0.9333
   33MOL   H45725481   2.423   6.577   3.943  0.2340 -0.6984 -0.0784
   33MOL   H45825482   2.598   6.595   3.952 -0.7739 -3.0828 -0.6893
   33MOL   H45925483   2.325   6.640   3.718 -1.0286  2.8403  0.7423
   33MOL   H46025484   2.412   6.791   3.710  3.1167 -0.4454  2.1180
   33MOL   H46125485   2.357   6.734   3.475  0.8568  0.1512 -1.4425
   33MOL   H46225486   2.405   6.567   3.502 -2.8888  0.1736  0.6329
   33MOL   H46325487   2.575   6.815   3.502 -3.8278 -1.0308  2.9598
   33MOL   H46425488   2.492   6.743   3.280  0.1849  0.1504  0.1022
   33MOL   H46525489   2.668   6.760   3.297 -0.3470  1.3923  0.2138
   33MOL   H46625490   2.654   6.315   3.340  1.4814 -1.1613 -0.7682
   33MOL   H46725491   2.631   6.084   3.303  0.7278  0.5019  0.6471
   33MOL   H46825492   2.568   6.152   2.878 -1.7668  0.3327 -0.1235
   33MOL   H46925493   2.569   6.398   2.920  2.0840  1.6201  0.8972
   33MOL   C47025494   2.133   5.535   2.764  0.6653 -0.2376 -0.1063
   33MOL   C47125495   2.196   5.671   2.791  0.0480 -0.3471 -0.1233
   33MOL   C47225496   2.305   5.664   2.901  0.0904 -0.0234 -0.3706
   33MOL   C47325497   2.372   5.796   2.928 -0.0264  0.1171 -0.1241
   33MOL   O47425498   2.509   5.776   2.945  0.2767 -0.5423  0.2740
   33MOL   C47525499   2.236   5.616   3.026  0.2381  0.3552  0.3053
   33MOL   C47625500   2.164   5.481   3.002  0.1450 -0.1140  0.0828
   33MOL   C47725501   2.058   5.488   2.893  0.3924  0.2583  0.2859
   33MOL   C47825502   1.998   5.346   2.889 -0.1630 -0.0924  0.2340
   33MOL   O47925503   1.897   5.325   2.798  0.0073 -0.4841 -0.8145
   33MOL   C48025504   1.832   5.208   2.794 -0.2596 -0.9109 -0.0409
   33MOL   O48125505   1.858   5.114   2.874  0.0720  0.1544  0.1588
   33MOL   C48225506   1.734   5.195   2.680  0.0605 -0.2475  0.1456
   33MOL   C48325507   1.722   5.070   2.623 -0.2796 -0.3363 -0.2607
   33MOL   C48425508   1.621   5.045   2.523 -0.9100 -0.0080  0.4376
   33MOL   C48525509   1.552   5.153   2.468  0.5923 -0.3736  0.3871
   33MOL   C48625510   1.446   5.133   2.369 -0.5959 -0.3714 -0.2808
   33MOL   O48725511   1.355   5.214   2.342  0.0886 -0.4402  0.1271
   33MOL   O48825512   1.450   5.000   2.321 -0.5393 -0.1476  0.6196
   33MOL   C48925513   1.571   5.282   2.513 -0.1427 -0.0980  0.6067
   33MOL   C49025514   1.660   5.306   2.624 -0.5135  0.5288  0.2011
   33MOL   H49125515   2.066   5.535   2.678  0.2256  0.9220  0.2332
   33MOL   H49225516   2.212   5.465   2.736 -0.4668 -1.4875 -0.2615
   33MOL   H49325517   2.245   5.692   2.696 -0.4529 -0.2577 -0.3618
   33MOL   H49425518   2.120   5.746   2.813  0.0099  0.1893 -2.0392
   33MOL   H49525519   2.384   5.601   2.860  1.1596  0.4761  0.8965
   33MOL   H49625520   2.358   5.859   2.839 -1.6936  0.1330  0.1331
   33MOL   H49725521   2.333   5.846   3.016  0.1270  0.1678 -0.0832
   33MOL   H49825522   2.315   5.586   3.094 -1.6081 -1.8935  1.5584
   33MOL   H49925523   2.182   5.699   3.072  0.2025 -0.7065  2.2205
   33MOL   H50025524   2.112   5.440   3.088 -2.4820 -0.9956 -1.8904
   33MOL   H50125525   2.231   5.398   2.977 -1.2093 -1.0258 -0.5598
   33MOL   H50225526   1.986   5.564   2.926  0.9072  1.6460 -1.7045
   33MOL   H50325527   2.077   5.272   2.877 -1.4972 -1.4468 -0.2936
   33MOL   H50425528   1.959   5.337   2.990  3.5561  0.1014  1.7468
   33MOL   H50525529   1.775   4.985   2.663 -2.3692 -1.2332  0.6863
   33MOL   H50625530   1.615   4.943   2.487  0.6623  1.0728 -3.1317
   33MOL   H50725531   1.516   5.362   2.465  0.9206 -0.4499 -1.2703
   33MOL   H50825532   1.680   5.408   2.654 -0.9321  0.1624  1.7585
   33MOL   C50925533   0.894   4.888   2.153 -0.0129  0.0026  0.3711
   33MOL   C51025534   1.026   4.942   2.221 -0.2932 -0.7467  0.4266
   33MOL   C51125535   1.125   4.826   2.252  0.2536 -0.2398  0.8188
   33MOL   C51225536   1.252   4.872   2.327  0.0694  1.1420  0.9379
   33MOL   O51325537   1.328   4.966   2.247  0.1811  0.8313 -0.2719
   33MOL   C51425538   1.047   4.718   2.327 -0.2076 -0.0675 -0.1644
   33MOL   C51525539   0.923   4.666   2.260  0.1718  0.5500  0.0538
   33MOL   C51625540   0.817   4.780   2.241 -1.3029  0.1412 -0.3784
   33MOL   C51725541   0.687   4.744   2.178  0.1568  0.2783  0.8851
   33MOL   O51825542   0.601   4.845   2.215  0.2804  0.2174  0.7950
   33MOL   C51925543   0.486   4.866   2.151 -0.6163 -0.0641 -0.3694
   33MOL   O52025544   0.436   4.798   2.059  0.1477 -0.2326 -0.0191
   33MOL   C52125545   0.423   4.986   2.207 -0.0129  0.3684  0.6437
   33MOL   C52225546   0.287   5.018   2.178  0.5117 -0.3135 -0.5505
   33MOL   C52325547   0.225   5.130   2.238 -0.3401  0.5662 -0.1842
   33MOL   C52425548   0.298   5.208   2.332 -0.3887 -0.4159  0.7259
   33MOL   C52525549   0.235   5.331   2.393  0.8875  0.0217 -0.0448
   33MOL   O52625550   0.267   5.387   2.493 -0.2453 -0.2448 -0.1564
   33MOL   O52725551   0.128   5.371   2.326  0.1063 -0.3329  0.0023
   33MOL   C52825552   0.429   5.177   2.361 -0.1691  0.3704  0.0688
   33MOL   C52925553   0.495   5.067   2.299  0.1767  0.8324 -0.1669
   33MOL   H53025554   0.826   4.973   2.143  0.3101  0.2281  0.1055
   33MOL   H53125555   0.916   4.850   2.053 -0.8657  1.2959 -0.3173
   33MOL   H53225556   1.079   5.020   2.167  1.9277 -2.7202 -0.2844
   33MOL   H53325557   1.005   4.995   2.314  0.4343  1.9680 -0.8786
   33MOL   H53425558   1.151   4.785   2.154 -1.0850  0.2637  0.2458
   33MOL   H53525559   1.219   4.921   2.418  0.3136  0.8868  1.1656
   33MOL   H53625560   1.317   4.791   2.363 -2.5284 -0.9908  0.9677
   33MOL   H53725561   1.099   4.624   2.346  2.7333  1.4896 -0.3272
   33MOL   H53825562   1.026   4.766   2.422 -0.4281  2.0565 -1.2412
   33MOL   H53925563   0.879   4.579   2.308  1.4062 -0.2650 -0.2896
   33MOL   H54025564   0.944   4.622   2.163 -2.7327 -0.5598 -0.1417
   33MOL   H54125565   0.795   4.824   2.338  1.7282  2.2384 -0.5580
   33MOL   H54225566   0.698   4.733   2.070 -0.9143  1.6122  0.6310
   33MOL   H54325567   0.671   4.649   2.231 -0.1909 -0.1156  0.0793
   33MOL   H54425568   0.233   4.965   2.101  0.4804 -0.5522 -0.3657
   33MOL   H54525569   0.124   5.160   2.217  0.9726  4.0810 -1.9639
   33MOL   H54625570   0.500   5.232   2.421 -0.4412  0.9277 -0.1178
   33MOL   H54725571   0.592   5.042   2.341  0.5690 -1.1772 -2.1443
   33MOL   C54825572   7.865   5.826   2.504  0.6239  0.3692  0.7118
   33MOL   C54925573   7.973   5.707   2.484 -0.1709 -0.0122 -0.1729
   33MOL   C55025574   7.901   5.573   2.457 -0.1584  0.0051  0.0638
   33MOL   C55125575   7.994   5.456   2.454  0.1403 -0.7735 -0.2860
   33MOL   O55225576   0.064   5.494   2.373  0.1057  0.0679  0.8498
   33MOL   C55325577   7.783   5.545   2.559 -0.6861 -0.1429  0.0897
   33MOL   C55425578   7.691   5.667   2.586 -0.0691 -0.1470 -0.0066
   33MOL   C55525579   7.766   5.794   2.615 -0.6813 -0.5112  0.7203
   33MOL   C55625580   7.672   5.914   2.636  0.2728  1.1483  0.9399
   33MOL   O55725581   7.742   6.033   2.652 -0.0275  0.8484  0.5746
   33MOL   C55825582   7.668   6.142   2.683 -0.6083 -0.2000 -0.1605
   33MOL   O55925583   7.548   6.133   2.705 -0.0781 -0.7291  0.2753
   33MOL   C56025584   7.738   6.272   2.688  0.1957 -0.1534  0.4494
   33MOL   C56125585   7.659   6.387   2.700  0.3724  0.1362  0.2166
   33MOL   C56225586   7.716   6.515   2.697  0.6554 -0.0465 -0.5536
   33MOL   C56325587   7.851   6.533   2.680  0.3503  0.2058 -0.1767
   33MOL   C56425588   7.910   6.669   2.692  0.4461 -0.0054 -0.2595
   33MOL   O56525589   7.838   6.774   2.709 -0.3230 -0.1214  1.1814
   33MOL   O56625590   0.008   6.673   2.670  0.5226  0.3211 -0.1991
   33MOL   C56725591   7.932   6.412   2.668  0.0995 -0.5657 -0.1810
   33MOL   C56825592   7.879   6.284   2.679  0.2441  0.1529 -0.0939
   33MOL   H56925593   7.932   5.910   2.520  1.5102 -0.5075  1.6900
   33MOL   H57025594   7.808   5.844   2.413  1.2231 -0.7839  0.1024
   33MOL   H57125595   0.016   5.739   2.415  0.1327  1.4052  0.8124
   33MOL   H57225596   8.032   5.698   2.575  1.6897  1.0599 -1.2473
   33MOL   H57325597   7.852   5.578   2.360 -0.7125  1.2325  0.4015
   33MOL   H57425598   8.027   5.439   2.556  1.8639  0.9511 -0.5393
   33MOL   H57525599   7.931   5.373   2.422  2.3251 -2.1736 -1.0899
   33MOL   H57625600   7.721   5.461   2.528  0.4577 -0.9324 -0.1030
   33MOL   H57725601   7.818   5.507   2.655  0.3203 -0.1603 -0.2769
   33MOL   H57825602   7.631   5.640   2.673 -0.7187  0.1856 -0.3451
   33MOL   H57925603   7.628   5.690   2.501  0.1187  0.3932  0.0032
   33MOL   H58025604   7.822   5.779   2.707  2.1273  0.1290 -0.8373
   33MOL   H58125605   7.630   5.922   2.535 -1.6544 -0.6640  1.5504
   33MOL   H58225606   7.597   5.899   2.714  2.1685 -2.8308  2.1017
   33MOL   H58325607   7.551   6.382   2.703  0.4059  0.5396  2.7602
   33MOL   H58425608   7.653   6.600   2.715  0.9928 -0.5343  3.2135
   33MOL   H58525609   0.003   6.427   2.661 -0.0378  0.9586  0.6601
   33MOL   H58625610   7.936   6.193   2.670 -0.2478  0.0857 -3.0315
   33MOL   C58725611   0.007   7.217   2.855  0.1650 -0.7975 -0.3682
   33MOL   C58825612   8.025   7.073   2.826  0.3034 -0.2064  0.8382
   33MOL   C58925613   0.123   6.994   2.817 -0.0512  0.1009  0.6699
   33MOL   C59025614   0.107   6.840   2.804 -0.2276 -0.9294  0.6741
   33MOL   O59125615   0.068   6.810   2.673  0.0660  0.3234  0.4344
   33MOL   C59225616   0.211   7.048   2.698  0.2976 -0.2283  0.5367
   33MOL   C59325617   0.238   7.199   2.739  0.0401 -0.4403  0.4596
   33MOL   C59425618   0.109   7.287   2.755  0.3973 -0.2885 -0.4981
   33MOL   C59525619   0.146   7.428   2.796 -1.5407  0.3154  0.1993
   33MOL   O59625620   0.041   7.513   2.836 -0.2743  0.4293  0.1671
   33MOL   C59725621   0.005   7.536   2.954 -0.4163 -0.5108  0.2429
   33MOL   O59825622   0.055   7.479   3.054 -0.3508 -0.1667 -0.3306
   33MOL   C59925623   7.928   7.636   2.958  0.3752  0.1045  0.1805
   33MOL   C60025624   7.883   7.691   2.839 -0.1569  0.2602  0.3151
   33MOL   C60125625   7.778   7.778   2.831 -0.2165 -0.4639 -0.9028
   33MOL   C60225626   7.722   7.821   2.950 -0.5794  0.7021 -0.1192
   33MOL   C60325627   7.608   7.914   2.947 -0.2568 -0.3803  0.1161
   33MOL   O60425628   7.554   7.955   3.051  0.3000  0.2607 -0.1524
   33MOL   O60525629   7.565   7.951   2.818 -0.3367 -0.5023 -0.4566
   33MOL   C60625630   7.768   7.772   3.071  0.4401 -0.3766  0.1612
   33MOL   C60725631   7.863   7.670   3.078 -0.3517  0.7136 -0.3570
   33MOL   H60825632   7.941   7.257   2.846  0.5999  0.0329 -1.6400
   33MOL   H60925633   0.038   7.229   2.959 -1.4270  0.5948 -0.0208
   33MOL   H61025634   7.960   7.016   2.892  0.2320 -1.5163 -0.3443
   33MOL   H61125635   7.981   7.058   2.727  1.9441  1.8735 -0.2545
   33MOL   H61225636   0.158   7.007   2.919  0.1345 -0.3979  0.6716
   33MOL   H61325637   0.203   6.793   2.824 -0.2926 -1.1785  0.4084
   33MOL   H61425638   0.031   6.799   2.870  0.2550  2.1961  3.2934
   33MOL   H61525639   0.304   6.993   2.682  1.5830  1.7361  1.0990
   33MOL   H61625640   0.156   7.055   2.605  0.4808  1.4762  0.5420
   33MOL   H61725641   0.296   7.243   2.657 -0.6316  1.3669  0.9178
   33MOL   H61825642   0.303   7.221   2.823  0.9697 -0.1312 -0.3225
   33MOL   H61925643   0.054   7.299   2.661 -0.9371 -1.2433  0.1401
   33MOL   H62025644   0.207   7.413   2.886 -0.5628 -0.6436 -0.6109
   33MOL   H62125645   0.196   7.461   2.706  0.1735  3.2137  2.1445
   33MOL   H62225646   7.911   7.656   2.740 -1.1658  4.4527 -1.5357
   33MOL   H62325647   7.752   7.814   2.733 -1.6659  1.3746  0.1145
   33MOL   H62425648   7.728   7.801   3.167  0.8308  2.0329 -0.3843
   33MOL   H62525649   7.876   7.633   3.179 -3.2955  0.5731  0.0309
   33MOL   C62625650   7.176   0.287   2.602  0.2423  0.4482  0.0410
   33MOL   C62725651   7.296   0.191   2.620 -0.0593 -0.1967  0.1788
   33MOL   C62825652   7.378   0.240   2.734 -0.5115  0.1171  0.0252
   33MOL   C62925653   7.492   0.139   2.766  0.1086  0.7738 -0.6335
   33MOL   O63025654   7.445   0.009   2.820 -0.1615 -0.3455  0.5610
   33MOL   C63125655   7.430   0.384   2.698 -0.0704  0.4338 -0.1892
   33MOL   C63225656   7.322   0.492   2.664 -0.3863  0.1086 -0.1301
   33MOL   C63325657   7.216   0.432   2.566  0.1048  0.5683  0.2342
   33MOL   C63425658   7.091   0.525   2.545  0.0595  0.4435 -0.4549
   33MOL   O63525659   7.132   0.639   2.464 -0.3078  0.0864  0.0517
   33MOL   C63625660   7.155   0.754   2.524  0.3224 -0.6917 -0.5143
   33MOL   O63725661   7.151   0.765   2.651  0.0239 -0.4512 -0.4399
   33MOL   C63825662   7.186   0.865   2.433 -0.0654  0.8234  0.0248
   33MOL   C63925663   7.210   0.848   2.292 -0.0740 -0.1008  0.4039
   33MOL   C64025664   7.261   0.948   2.211 -0.1919  1.2406  1.1292
   33MOL   C64125665   7.281   1.073   2.267  0.2465  0.0467 -0.1910
   33MOL   C64225666   7.353   1.179   2.196  0.5112  0.5292  0.2818
   33MOL   O64325667   7.371   1.286   2.245 -0.5985 -0.5793  0.4822
   33MOL   O64425668   7.389   1.151   2.065 -0.3169 -0.5119  0.6499
   33MOL   C64525669   7.243   1.098   2.402 -0.0405 -0.1464  0.6228
   33MOL   C64625670   7.209   0.991   2.484  0.3801  0.0994  0.9494
   33MOL   H64725671   7.105   0.240   2.534  1.7971 -2.5171  0.4061
   33MOL   H64825672   7.130   0.288   2.701  2.6691  0.3205  1.1989
   33MOL   H64925673   7.263   0.089   2.643  2.8820 -1.4400 -0.8889
   33MOL   H65025674   7.352   0.172   2.528 -3.3572  0.8568 -2.1629
   33MOL   H65125675   7.316   0.242   2.823 -2.0352 -1.3831 -0.9710
   33MOL   H65225676   7.548   0.120   2.675  1.1385 -1.8769  0.4932
   33MOL   H65325677   7.560   0.171   2.845 -1.1310 -3.2335  2.2308
   33MOL   H65425678   7.478   0.428   2.786  0.0663  0.0558 -0.0726
   33MOL   H65525679   7.511   0.385   2.625  0.2422 -1.8053  0.0846
   33MOL   H65625680   7.366   0.575   2.609 -1.6571 -0.4215 -2.0071
   33MOL   H65725681   7.285   0.542   2.754 -0.6764 -0.5248  0.1069
   33MOL   H65825682   7.264   0.422   2.469 -0.7019 -3.0362  0.1346
   33MOL   H65925683   7.015   0.470   2.489  1.7111  0.1604 -2.4826
   33MOL   H66025684   7.048   0.546   2.643 -0.5318 -0.3695 -0.5285
   33MOL   H66125685   7.196   0.748   2.254 -0.0514  0.3386 -0.7727
   33MOL   H66225686   7.282   0.917   2.110  0.8855  1.0411  1.3999
   33MOL   H66325687   7.253   1.192   2.454 -2.6715  0.0922  0.7580
   33MOL   H66425688   7.199   1.009   2.590 -0.8060 -1.5304  1.1347
   33MOL   C66525689   7.480   1.643   1.727 -0.0797  0.5460 -0.2543
   33MOL   C66625690   7.389   1.532   1.768 -0.0066  0.4542 -0.9292
   33MOL   C66725691   7.473   1.436   1.857  0.8465 -0.5511  0.7796
   33MOL   C66825692   7.387   1.329   1.915  0.1714 -0.0045 -0.5071
   33MOL   O66925693   7.473   1.255   2.007  0.1186 -0.0534 -0.3169
   33MOL   C67025694   7.588   1.381   1.770 -0.4786  0.0235 -0.3013
   33MOL   C67125695   7.681   1.497   1.740  0.5271 -0.4078 -0.5494
   33MOL   C67225696   7.603   1.601   1.657  0.3810 -0.3362  0.6573
   33MOL   C67325697   7.698   1.728   1.638  0.1974 -0.4015 -0.1373
   33MOL   O67425698   7.642   1.850   1.586 -0.7650  0.6927  0.3640
   33MOL   C67525699   7.712   1.918   1.494 -0.3145 -0.1243 -0.0652
   33MOL   O67625700   7.812   1.886   1.432 -0.5272  0.5007  0.2701
   33MOL   C67725701   7.642   2.048   1.468  0.6351  0.0786  0.4343
   33MOL   C67825702   7.519   2.077   1.532  0.1280  0.0924  0.4377
   33MOL   C67925703   7.442   2.185   1.496  0.3417 -0.3208  0.2491
   33MOL   C68025704   7.480   2.264   1.380 -0.2053  0.0321  0.0281
   33MOL   C68125705   7.404   2.389   1.336 -0.3588 -0.0254 -1.0298
   33MOL   O68225706   7.316   2.438   1.408 -0.5637 -0.4317 -0.4156
   33MOL   O68325707   7.447   2.430   1.215  0.0177 -0.1018  0.6217
   33MOL   C68425708   7.598   2.227   1.311  0.1260  0.0952  0.1811
   33MOL   C68525709   7.690   2.128   1.363  0.3223 -0.0790 -0.8108
   33MOL   H68625710   7.421   1.710   1.664  2.2167  3.0502  0.1700
   33MOL   H68725711   7.503   1.707   1.812  1.1455 -0.6906  0.3566
   33MOL   H68825712   7.306   1.570   1.827  1.0743  0.1346  0.8280
   33MOL   H68925713   7.351   1.472   1.685 -0.3841  1.3720 -1.4278
   33MOL   H69025714   7.529   1.478   1.941 -1.4152  0.0634  2.0079
   33MOL   H69125715   7.302   1.368   1.971  2.1373  2.3431  0.9101
   33MOL   H69225716   7.334   1.265   1.844  2.1609  0.5218 -2.5210
   33MOL   H69325717   7.645   1.308   1.828  0.0210  1.6999  1.3584
   33MOL   H69425718   7.551   1.334   1.679  0.0520 -1.5258  0.2758
   33MOL   H69525719   7.759   1.449   1.681  1.2178  0.1258 -0.0750
   33MOL   H69625720   7.721   1.542   1.831 -1.6980 -0.0741  0.2983
   33MOL   H69725721   7.587   1.542   1.567 -0.0050 -1.0311  1.1771
   33MOL   H69825722   7.739   1.746   1.737  1.7611 -0.7131 -0.7048
   33MOL   H69925723   7.785   1.692   1.582  2.5175 -0.8690  3.5851
   33MOL   H70025724   7.483   2.017   1.614 -0.5693  1.4762  1.1457
   33MOL   H70125725   7.347   2.200   1.547  1.1179  3.1383  0.8510
   33MOL   H70225726   7.638   2.286   1.229 -0.9457  0.2156 -0.2592
   33MOL   H70325727   7.781   2.105   1.309  0.6539  0.7895 -0.6189
   33MOL   C70425728   7.263   2.921   0.942 -0.1223 -0.1782 -0.2614
   33MOL   C70525729   7.346   2.795   0.988 -0.3217 -0.2712  0.4071
   33MOL   C70625730   7.251   2.682   1.012  0.4410 -0.5243 -0.0802
   33MOL   C70725731   7.324   2.550   1.049  0.0781 -0.0141  0.2071
   33MOL   O70825732   7.407   2.566   1.166  0.1591  0.1400  0.1016
   33MOL   C70925733   7.150   2.718   1.124 -0.2919 -0.5171 -0.3963
   33MOL   C71025734   7.074   2.841   1.081 -0.0239 -0.0330  1.1677
   33MOL   C71125735   7.165   2.959   1.049  0.1118 -0.0913 -0.3041
   33MOL   C71225736   7.085   3.080   1.010  0.2005  0.1532  0.6583
   33MOL   O71325737   7.145   3.188   0.935 -0.1151  0.1157  0.4233
   33MOL   C71425738   7.060   3.273   0.869  0.3423 -0.0153  0.3561
   33MOL   O71525739   6.936   3.266   0.876  0.5072  0.0955 -0.0978
   33MOL   C71625740   7.131   3.365   0.784 -0.4706 -0.5498  1.1916
   33MOL   C71725741   7.066   3.447   0.689  0.1414 -0.3757 -0.5257
   33MOL   C71825742   7.138   3.544   0.617  0.6868  0.1172  0.2847
   33MOL   C71925743   7.276   3.559   0.633  0.9932  0.2299 -0.0079
   33MOL   C72025744   7.361   3.650   0.555  0.2147  0.1740  0.4790
   33MOL   O72125745   7.487   3.651   0.560 -0.2234  0.0248  0.1668
   33MOL   O72225746   7.286   3.729   0.470  0.1993 -0.4928 -0.1512
   33MOL   C72325747   7.338   3.487   0.731  0.0154  0.0321  0.6746
   33MOL   C72425748   7.273   3.380   0.792  0.6960 -0.5521 -0.0997
   33MOL   H72525749   7.326   3.006   0.915 -0.2055  0.9387  2.9314
   33MOL   H72625750   7.214   2.906   0.846  0.8769 -1.7271 -0.5438
   33MOL   H72725751   7.430   2.777   0.922 -1.0981  1.3984 -1.0909
   33MOL   H72825752   7.390   2.829   1.082  1.6906  1.1113 -0.9968
   33MOL   H72925753   7.201   2.645   0.922 -0.5214 -2.2576  1.1186
   33MOL   H73025754   7.252   2.473   1.077 -1.2964  1.5245  1.0571
   33MOL   H73125755   7.391   2.515   0.971  2.4688 -0.3123  2.3351
   33MOL   H73225756   7.074   2.643   1.147 -0.7604  0.0827  0.0330
   33MOL   H73325757   7.197   2.731   1.221 -3.3999 -0.0752  1.1070
   33MOL   H73425758   6.991   2.866   1.147  1.6288  2.3784  2.4403
   33MOL   H73525759   7.022   2.819   0.989 -0.6564  0.6746  1.3509
   33MOL   H73625760   7.227   2.990   1.133  0.5464 -1.3834 -0.1370
   33MOL   H73725761   7.019   3.036   0.935  1.8728 -0.0520 -0.7178
   33MOL   H73825762   7.023   3.106   1.097 -0.4182  1.6188 -0.2029
   33MOL   H73925763   6.961   3.436   0.670  0.4403  0.3308 -2.7538
   33MOL   H74025764   7.087   3.588   0.533  0.8359  3.1248  1.6916
   33MOL   H74125765   7.444   3.489   0.755  0.0837 -1.4741  0.5486
   33MOL   H74225766   7.334   3.315   0.853  1.3719 -0.2565 -0.4665
   33MOL   C74325767   7.247   3.803   7.971 -0.4283  0.2451  0.4197
   33MOL   C74425768   7.353   3.774   0.045 -0.5663  0.3879  0.2384
   33MOL   C74525769   7.295   3.807   0.181 -0.1691 -0.8836 -0.2164
   33MOL   C74625770   7.412   3.789   0.277  0.0970 -0.7264  0.2135
   33MOL   O74725771   7.368   3.832   0.407 -0.0362 -0.4376  0.1026
   33MOL   C74825772   7.224   3.950   0.176  0.1582  0.2273  0.0282
   33MOL   C74925773   7.121   3.957   0.075 -0.5965  0.1012  0.7679
   33MOL   C75025774   7.190   3.945   7.979 -0.2121  0.4891 -0.0912
   33MOL   C75125775   7.110   3.997   7.855  0.3235 -0.0132 -0.7389
   33MOL   O75225776   7.204   4.031   7.747 -0.2618 -0.8600 -0.3113
   33MOL   C75325777   7.213   3.975   7.628  0.8087 -0.2068 -0.0547
   33MOL   O75425778   7.145   3.874   7.597  0.1192 -0.3703  0.0738
   33MOL   C75525779   7.316   4.026   7.533  0.4791 -0.0200 -0.2841
   33MOL   C75625780   7.305   4.002   7.390 -0.4675 -0.6375 -0.3040
   33MOL   C75725781   7.392   4.066   7.299  0.0585  0.4475 -0.2468
   33MOL   C75825782   7.497   4.149   7.341  0.0176 -0.6366 -0.1336
   33MOL   C75925783   7.579   4.228   7.245  0.1195  0.2506  0.2868
   33MOL   O76025784   7.648   4.321   7.274 -0.8711  1.0858 -0.5856
   33MOL   O76125785   7.580   4.177   7.121 -0.4543  0.5939  0.2976
   33MOL   C76225786   7.510   4.166   7.478  0.0686  0.5641 -0.4704
   33MOL   C76325787   7.426   4.108   7.574  0.0393 -0.2639  1.1634
   33MOL   H76425788   7.281   3.774   7.872 -2.0204  0.2858 -0.1677
   33MOL   H76525789   7.158   3.740   7.977 -0.9800  1.0740  1.0213
   33MOL   H76625790   7.384   3.670   0.044  2.5822  1.2873  0.5962
   33MOL   H76725791   7.447   3.823   0.020 -0.7096 -1.0825 -3.4695
   33MOL   H76825792   7.222   3.731   0.207 -0.0688 -0.3983  1.5639
   33MOL   H76925793   7.433   3.683   0.290 -1.7385 -1.1250  0.0882
   33MOL   H77025794   7.503   3.840   0.245 -1.3056  1.5707 -0.1931
   33MOL   H77125795   7.185   3.968   0.277 -0.3353 -1.2635  0.1230
   33MOL   H77225796   7.297   4.030   0.163 -0.7805  0.6051 -3.3209
   33MOL   H77325797   7.073   4.053   0.092 -0.3675  0.2906  0.3647
   33MOL   H77425798   7.042   3.885   0.094  0.1511 -0.0284  3.5994
   33MOL   H77525799   7.273   4.016   7.979  1.2320 -1.1668  0.6964
   33MOL   H77625800   7.032   3.934   7.814  0.5750  0.7153 -2.3771
   33MOL   H77725801   7.066   4.093   7.881  1.9260  0.3104  0.9533
   33MOL   H77825802   7.227   3.934   7.358 -1.0174 -1.4503  2.5945
   33MOL   H77925803   7.377   4.057   7.192 -2.4449 -1.0483  0.2020
   33MOL   H78025804   7.597   4.217   7.517 -2.6491  3.5295  1.9775
   33MOL   H78125805   7.446   4.134   7.677  1.2426 -3.1432  1.7061
   33MOL   H78225806   7.644   4.229   7.076  1.0508 -0.3760  1.2344
   34MOL     C125807   0.585   7.712   1.411 -0.2168 -0.2463 -0.0485
   34MOL     C225808   0.632   7.828   1.320  0.4971  0.3256  0.3673
   34MOL     C325809   0.634   7.780   1.171  0.2986 -0.3243 -0.4447
   34MOL     C425810   0.687   7.897   1.081 -0.4852 -0.3656  0.3998
   34MOL     O525811   0.715   7.848   0.952 -0.1622 -0.2735  0.3500
   34MOL     C625812   0.715   7.655   1.149  0.3155  0.1910  0.6260
   34MOL     C725813   0.665   7.541   1.245  0.0518  0.5956  0.9563
   34MOL     C825814   0.666   7.587   1.385 -0.5049 -0.3705 -0.1619
   34MOL     C925815   0.644   7.476   1.491  0.1006  0.6930 -0.4769
   34MOL    O1025816   0.505   7.431   1.494  0.1693 -0.5456 -0.0896
   34MOL    C1125817   0.471   7.303   1.470 -0.2510  0.0636  0.4724
   34MOL    O1225818   0.547   7.210   1.450  0.0857  0.1094 -0.5377
   34MOL    C1325819   0.319   7.283   1.475 -0.1514 -0.3401  0.1438
   34MOL    C1425820   0.262   7.167   1.408 -0.6009  0.7129 -0.4461
   34MOL    C1525821   0.124   7.161   1.390  0.2660 -0.2617 -0.1081
   34MOL    C1625822   0.036   7.258   1.433  0.0272 -0.4312 -0.1968
   34MOL    C1725823   7.925   7.256   1.426 -0.1202 -0.3773 -0.6270
   34MOL    O1825824   7.843   7.315   1.496  0.2931 -0.5632  0.2841
   34MOL    O1925825   7.882   7.171   1.324 -0.1384  0.3496  0.3882
   34MOL    C2025826   0.087   7.382   1.485 -0.2861 -0.5348  0.4963
   34MOL    C2125827   0.227   7.390   1.503 -0.5318 -0.3945  0.0853
   34MOL    H2225828   0.601   7.732   1.517 -2.7563  0.2869  0.2492
   34MOL    H2325829   0.481   7.683   1.399 -0.2158 -0.9949  1.6271
   34MOL    H2425830   0.569   7.914   1.339 -1.4560 -1.2182  1.0863
   34MOL    H2525831   0.737   7.845   1.342  0.5567  0.6408 -0.1487
   34MOL    H2625832   0.531   7.754   1.149 -0.3453  1.1391  0.7751
   34MOL    H2725833   0.608   7.972   1.072 -0.3147 -0.2756 -0.4453
   34MOL    H2825834   0.779   7.947   1.110 -1.1240  1.6210 -0.9111
   34MOL    H2925835   0.690   7.621   1.048  2.2531  0.4988  0.0287
   34MOL    H3025836   0.822   7.675   1.146  0.0488  1.4788 -1.5147
   34MOL    H3125837   0.713   7.443   1.238 -2.5410 -0.6988  0.4049
   34MOL    H3225838   0.560   7.514   1.235 -0.4312  3.1788 -1.9155
   34MOL    H3325839   0.770   7.617   1.399 -0.4707 -0.8865  0.7188
   34MOL    H3425840   0.706   7.387   1.478  0.2387  0.7576 -0.2501
   34MOL    H3525841   0.667   7.525   1.585 -2.8924  0.8277  0.2377
   34MOL    H3625842   0.336   7.096   1.372  1.2204  1.5373  1.5181
   34MOL    H3725843   0.078   7.069   1.357 -2.0893  0.7055  0.4032
   34MOL    H3825844   0.036   7.474   1.509  2.4962  0.7808  1.5398
   34MOL    H3925845   0.262   7.488   1.531  1.9408 -1.6442  1.4953
   34MOL    H4025846   0.770   7.772   0.959  1.4423  0.6266 -1.7474
   34MOL    C4125847   7.361   6.995   1.166  0.1246  0.5274  0.4317
   34MOL    C4225848   7.510   7.048   1.183 -0.0344  1.0391  0.6782
   34MOL    C4325849   7.513   7.177   1.262 -0.0621  0.2189  0.1472
   34MOL    C4425850   7.658   7.237   1.258 -0.3483  0.2708 -0.3501
   34MOL    O4525851   7.735   7.141   1.333  0.3806 -0.5653  0.2484
   34MOL    C4625852   7.422   7.276   1.202  0.2021  0.2220  0.2495
   34MOL    C4725853   7.272   7.229   1.183 -0.1974  0.3158  0.0563
   34MOL    C4825854   7.277   7.106   1.093  0.0870 -0.0104 -0.1086
   34MOL    C4925855   7.144   7.052   1.049 -0.8862  0.1257  0.2359
   34MOL    O5025856   7.075   7.133   0.954  0.2687 -0.3784 -0.0282
   34MOL    C5125857   6.944   7.104   0.925  0.3511  0.2200  0.0485
   34MOL    O5225858   6.885   7.005   0.970  0.2287  0.4491  0.0741
   34MOL    C5325859   6.885   7.192   0.816  0.1068 -0.5171 -0.3522
   34MOL    C5425860   6.784   7.145   0.733  0.4533  0.2072 -0.1928
   34MOL    C5525861   6.740   7.223   0.621 -0.3765 -0.4150  0.1396
   34MOL    C5625862   6.796   7.348   0.586  0.1626 -0.7736 -0.1167
   34MOL    C5725863   6.764   7.422   0.460 -0.5961  0.2550 -0.8350
   34MOL    O5825864   6.771   7.546   0.446 -0.0140 -0.1399  0.1891
   34MOL    O5925865   6.742   7.338   0.356 -1.1513 -0.2258  0.1950
   34MOL    C6025866   6.894   7.399   0.676 -0.3911  0.3080  0.3022
   34MOL    C6125867   6.932   7.326   0.796 -0.2384  0.2762  0.5036
   34MOL    H6225868   7.369   6.906   1.104 -0.0513 -0.6222  2.0381
   34MOL    H6325869   7.311   6.963   1.257 -3.8857  0.1391 -1.7725
   34MOL    H6425870   7.568   6.969   1.231  0.0030 -0.2063 -1.3551
   34MOL    H6525871   7.554   7.045   1.083 -0.3661 -2.9029  0.5960
   34MOL    H6625872   7.480   7.146   1.361 -1.3908  2.4710  0.4219
   34MOL    H6725873   7.694   7.241   1.156  2.3266 -1.3609  0.4970
   34MOL    H6825874   7.656   7.336   1.305 -0.0279 -0.4477  1.1924
   34MOL    H6925875   7.421   7.373   1.252 -1.8125  1.1381 -1.4564
   34MOL    H7025876   7.457   7.306   1.103 -0.1719  3.2112  0.9606
   34MOL    H7125877   7.215   7.315   1.148 -2.0816 -1.4782 -1.4337
   34MOL    H7225878   7.239   7.199   1.282  1.1760  2.6363  1.2562
   34MOL    H7325879   7.330   7.145   1.006 -0.3051 -1.2062 -0.8954
   34MOL    H7425880   7.171   6.960   0.997 -0.6098  0.8955 -0.9877
   34MOL    H7525881   7.079   7.021   1.131 -0.2982  0.5202  0.8566
   34MOL    H7625882   6.739   7.049   0.753  0.1655  0.8193  2.1774
   34MOL    H7725883   6.664   7.181   0.558 -0.2240 -1.1284  0.4163
   34MOL    H7825884   6.925   7.501   0.661  0.0534 -0.0856 -1.5881
   34MOL    H7925885   6.999   7.375   0.866  0.5338  1.9494 -1.3433
   34MOL    C8025886   6.889   7.523   7.817  0.4797 -0.0774 -0.4424
   34MOL    C8125887   6.917   7.459   7.957 -0.3210 -0.3745  0.2644
   34MOL    C8225888   6.797   7.469   0.009 -0.1375  0.4439 -0.2597
   34MOL    C8325889   6.828   7.411   0.152  0.2024 -0.3870 -0.0029
   34MOL    O8425890   6.711   7.406   0.228 -0.6657  0.0129  0.5491
   34MOL    C8525891   6.749   7.617   0.023  0.0894 -0.3504 -0.1853
   34MOL    C8625892   6.723   7.683   7.916 -0.6064 -0.2566 -0.3880
   34MOL    C8725893   6.849   7.673   7.829 -0.5557  0.3509 -0.1123
   34MOL    C8825894   6.818   7.740   7.693 -0.1794  0.1985  0.1625
   34MOL    O8925895   6.723   7.674   7.619 -0.4698  0.0426  0.3645
   34MOL    C9025896   6.746   7.632   7.491  0.5021  0.9524 -0.4406
   34MOL    O9125897   6.847   7.660   7.430  0.0846 -0.1887 -0.7169
   34MOL    C9225898   6.641   7.548   7.435  0.3076  0.2817 -0.2901
   34MOL    C9325899   6.536   7.507   7.516 -0.1961 -0.4827  0.5212
   34MOL    C9425900   6.439   7.411   7.464 -0.4538 -0.8179  0.1630
   34MOL    C9525901   6.456   7.363   7.330  0.1996 -0.1696 -0.4629
   34MOL    C9625902   6.360   7.265   7.266  0.9438  0.7982 -0.2985
   34MOL    O9725903   6.346   7.238   7.150 -0.1889  0.2595 -0.5362
   34MOL    O9825904   6.288   7.206   7.354  0.4173 -0.1461  0.3714
   34MOL    C9925905   6.562   7.407   7.253 -0.4564  0.4137 -0.1500
   34MOL   C10025906   6.658   7.496   7.308  0.2270  0.5942  0.3418
   34MOL   H10125907   6.967   7.498   7.744 -0.0363 -1.0978 -0.6588
   34MOL   H10225908   6.805   7.466   7.777  0.0230  0.8041 -0.7591
   34MOL   H10325909   6.943   7.353   7.961 -0.9481 -0.5369  0.0773
   34MOL   H10425910   7.007   7.504   7.997 -0.6327  0.4819  0.0210
   34MOL   H10525911   6.710   7.418   8.003  0.0227 -0.4980  0.5634
   34MOL   H10625912   6.868   7.310   0.147 -2.2656 -1.4756  1.3857
   34MOL   H10725913   6.912   7.457   0.203  1.9814 -2.5257 -0.9286
   34MOL   H10825914   6.664   7.607   0.091 -0.0179  0.3528 -0.2141
   34MOL   H10925915   6.824   7.676   0.075 -0.4189  0.1540 -0.0141
   34MOL   H11025916   6.687   7.785   7.927 -1.2005 -0.1305 -3.2088
   34MOL   H11125917   6.636   7.635   7.870 -1.2744  1.4353 -0.9401
   34MOL   H11225918   6.935   7.724   7.873 -1.4386  1.6120  0.1703
   34MOL   H11325919   6.770   7.838   7.696 -2.3240 -0.8209  0.3187
   34MOL   H11425920   6.911   7.765   7.642 -0.6761  0.5761 -0.5704
   34MOL   H11525921   6.519   7.548   7.615 -1.1589 -3.0400  1.4566
   34MOL   H11625922   6.357   7.377   7.525  0.4596 -3.6003 -0.0883
   34MOL   H11725923   6.593   7.377   7.154  3.8092 -1.3446  1.5816
   34MOL   H11825924   6.744   7.515   7.246  0.0433 -1.7913 -0.6882
   34MOL   C11925925   5.847   6.831   7.349  0.2435  0.3691  0.0044
   34MOL   C12025926   5.968   6.921   7.381 -0.1798 -0.5260  0.4426
   34MOL   C12125927   5.958   7.038   7.280 -0.1695 -0.7346 -1.1649
   34MOL   C12225928   6.061   7.144   7.314 -0.7193  0.2330 -1.0356
   34MOL   O12325929   6.194   7.101   7.299  0.2132  0.1301  0.6407
   34MOL   C12425930   5.964   6.999   7.133  0.3833 -0.4724 -0.1848
   34MOL   C12525931   5.852   6.897   7.101  0.5189 -0.5066 -0.0218
   34MOL   C12625932   5.850   6.780   7.200  0.3867 -0.0449  0.1365
   34MOL   C12725933   5.731   6.687   7.170  0.0448 -0.0648 -0.0541
   34MOL   O12825934   5.753   6.566   7.247 -0.1480 -0.2448  0.5241
   34MOL   C12925935   5.802   6.465   7.181 -0.7451 -0.3808  0.0093
   34MOL   O13025936   5.807   6.452   7.053  0.0722  0.1091  0.2747
   34MOL   C13125937   5.844   6.357   7.271 -0.1677 -0.3444 -0.6027
   34MOL   C13225938   5.840   6.219   7.222  0.0864  0.2228 -0.2766
   34MOL   C13325939   5.860   6.115   7.312  0.1515  0.3946 -0.4593
   34MOL   C13425940   5.889   6.135   7.448 -0.3017  0.0937  0.2101
   34MOL   C13525941   5.902   6.016   7.547 -0.1647 -0.5600  0.3290
   34MOL   O13625942   5.916   5.901   7.512  0.5687  0.1272  0.5854
   34MOL   O13725943   5.908   6.052   7.673  0.2617 -0.7067  0.1066
   34MOL   C13825944   5.886   6.266   7.496 -0.3716  0.6459 -0.2993
   34MOL   C13925945   5.872   6.377   7.410 -0.3513  0.2432  0.3623
   34MOL   H14025946   5.845   6.742   7.411  2.6674 -0.5997 -1.2518
   34MOL   H14125947   5.750   6.881   7.356 -0.3144 -0.1627 -2.9958
   34MOL   H14225948   5.962   6.951   7.486 -0.8693 -3.3778  1.2683
   34MOL   H14325949   6.060   6.868   7.357  0.0102  0.2288 -0.5131
   34MOL   H14425950   5.861   7.086   7.290  1.5288  2.9784 -1.5775
   34MOL   H14525951   6.047   7.229   7.249  0.3625  1.9603  0.9260
   34MOL   H14625952   6.029   7.184   7.411 -0.7020 -1.2531 -0.4009
   34MOL   H14725953   5.957   7.083   7.064  0.1725 -0.6863 -0.4281
   34MOL   H14825954   6.060   6.948   7.124  1.1626  0.9791 -0.2129
   34MOL   H14925955   5.853   6.871   6.996  0.2183  0.2632 -0.2195
   34MOL   H15025956   5.755   6.945   7.114  0.9471  0.0260  1.4434
   34MOL   H15125957   5.943   6.723   7.191  0.8693  0.6351  0.8159
   34MOL   H15225958   5.638   6.726   7.211 -0.5340 -0.0989 -1.2998
   34MOL   H15325959   5.716   6.672   7.063  0.6214 -1.2990  0.0267
   34MOL   H15425960   5.831   6.200   7.116  1.6105  0.0802 -0.4020
   34MOL   H15525961   5.864   6.014   7.273  1.5624 -0.0667  0.8078
   34MOL   H15625962   5.897   6.287   7.601 -1.0213 -2.0301  0.3440
   34MOL   H15725963   5.871   6.478   7.447  0.5697 -0.4097  2.2559
   34MOL   C15825964   6.353   6.229   7.884  0.9093 -0.5931 -0.5974
   34MOL   C15925965   6.303   6.102   7.825 -0.5891  0.0336  0.0382
   34MOL   C16025966   6.153   6.096   7.838 -0.5563  0.1204 -0.2275
   34MOL   C16125967   6.096   5.958   7.781 -0.2827 -0.4608  0.7543
   34MOL   O16225968   5.951   5.950   7.779  0.3618  0.0320  0.5106
   34MOL   C16325969   6.104   6.119   7.981 -0.0985  0.4017  0.8952
   34MOL   C16425970   6.160   6.255   0.008 -0.0383  0.2272  0.1309
   34MOL   C16525971   6.314   6.262   8.028  0.6656  0.5413 -0.9768
   34MOL   C16625972   6.363   6.402   0.041 -0.4361  0.4938 -0.7364
   34MOL   O16725973   6.350   6.417   0.185 -0.0478  0.2233 -0.0787
   34MOL   C16825974   6.459   6.420   0.259 -0.0332 -0.0921 -0.5607
   34MOL   O16925975   6.571   6.407   0.209 -0.3301 -0.1707  0.3002
   34MOL   C17025976   6.430   6.432   0.402 -0.0560 -0.0876  0.6660
   34MOL   C17125977   6.539   6.474   0.475  0.3560 -0.3059 -0.2440
   34MOL   C17225978   6.519   6.477   0.612 -0.4206  1.2135  0.4231
   34MOL   C17325979   6.401   6.420   0.675 -0.2845  0.4143  0.1745
   34MOL   C17425980   6.389   6.398   0.815  0.3220  0.1607 -0.4124
   34MOL   O17525981   6.298   6.336   0.876  0.4260 -0.0734 -0.1618
   34MOL   O17625982   6.492   6.449   0.887  0.7685  0.3662  0.3696
   34MOL   C17725983   6.291   6.389   0.593 -0.1608 -0.0108  0.3727
   34MOL   C17825984   6.303   6.397   0.456 -0.0337 -0.4178  0.4801
   34MOL   H17925985   6.461   6.219   7.894  1.0220  0.0224 -1.1567
   34MOL   H18025986   6.329   6.316   7.823 -1.8601  0.1027  1.3893
   34MOL   H18125987   6.328   6.091   7.720  3.8284 -0.7136  1.0320
   34MOL   H18225988   6.342   6.011   7.872  2.8840  1.6596  0.4720
   34MOL   H18325989   6.116   6.176   7.773 -3.4697 -1.7360 -0.9715
   34MOL   H18425990   6.138   5.954   7.680 -0.6474  2.3253  0.4519
   34MOL   H18525991   6.129   5.872   7.838  0.8150  0.1034  0.9907
   34MOL   H18625992   5.996   6.125   7.994 -0.1515 -0.3120  0.8518
   34MOL   H18725993   6.135   6.029   8.035 -0.1256 -0.4120 -0.4220
   34MOL   H18825994   6.144   6.264   0.116 -0.1858  0.6159  0.0775
   34MOL   H18925995   6.120   6.338   7.986  0.8591  0.5710 -0.0050
   34MOL   H19025996   6.359   6.178   0.046 -0.5353 -0.5943 -1.7095
   34MOL   H19125997   6.465   6.421   0.007 -0.6083  1.8192 -0.5049
   34MOL   H19225998   6.304   6.483   8.034  0.7122  3.3354  2.8634
   34MOL   H19325999   6.631   6.493   0.422  2.0394 -1.2590  2.1974
   34MOL   H19426000   6.601   6.491   0.681 -0.4234  3.9531 -0.0718
   34MOL   H19526001   6.204   6.339   0.634  0.3220  0.8657  2.5056
   34MOL   H19626002   6.220   6.372   0.391  1.2239 -1.1678 -0.8621
   34MOL   C19726003   6.488   6.356   1.449 -0.5625  0.7429  0.3231
   34MOL   C19826004   6.525   6.398   1.304  0.1702 -0.0166 -0.0443
   34MOL   C19926005   6.540   6.280   1.208  0.3925  0.5456  0.6410
   34MOL   C20026006   6.579   6.335   1.073 -0.4305 -0.3232  0.0720
   34MOL   O20126007   6.474   6.428   1.034 -0.1006 -0.0085 -0.0310
   34MOL   C20226008   6.652   6.181   1.257  0.2488 -0.2153 -0.0522
   34MOL   C20326009   6.627   6.148   1.400  1.8105 -0.0752 -0.1037
   34MOL   C20426010   6.602   6.265   1.502 -0.0373  0.1355 -0.2840
   34MOL   C20526011   6.569   6.209   1.644 -0.3198 -0.5778 -0.2741
   34MOL   O20626012   6.443   6.155   1.642  0.2568 -0.0421  0.3378
   34MOL   C20726013   6.388   6.088   1.755 -0.1968  0.0457  0.1743
   34MOL   O20826014   6.449   6.068   1.862  0.1053  0.0542 -0.2616
   34MOL   C20926015   6.250   6.042   1.718 -0.6050  0.2736  1.0354
   34MOL   C21026016   6.190   6.071   1.598  0.8052 -0.0664  0.4005
   34MOL   C21126017   6.057   6.040   1.579  0.0096 -0.7614 -0.8563
   34MOL   C21226018   5.982   5.975   1.679 -0.2346 -0.4274 -0.0313
   34MOL   C21326019   5.843   5.938   1.648 -0.2448  0.6053 -0.0330
   34MOL   O21426020   5.764   5.892   1.731  0.3279  0.3406 -0.1692
   34MOL   O21526021   5.818   5.941   1.523  0.2307 -0.4035  1.1115
   34MOL   C21626022   6.042   5.941   1.802  0.0257  0.0853  0.0381
   34MOL   C21726023   6.177   5.977   1.823  0.1500 -0.6254  0.1802
   34MOL   H21826024   6.469   6.445   1.509 -2.3700  1.5144 -1.3457
   34MOL   H21926025   6.391   6.311   1.433 -1.1054  1.1063  2.5166
   34MOL   H22026026   6.449   6.464   1.260  0.9310  1.4851  0.8563
   34MOL   H22126027   6.614   6.461   1.305 -0.0956  0.3430  1.3796
   34MOL   H22226028   6.445   6.226   1.209 -0.0504  1.3168  0.7180
   34MOL   H22326029   6.670   6.394   1.085  0.1719 -1.0373 -0.9316
   34MOL   H22426030   6.581   6.249   1.007  1.0750  0.6319 -1.1516
   34MOL   H22526031   6.649   6.089   1.199 -1.5513 -0.6303  0.6699
   34MOL   H22626032   6.747   6.229   1.231  1.0856 -1.4819  0.6284
   34MOL   H22726033   6.712   6.087   1.431  1.0652 -0.4510  1.2171
   34MOL   H22826034   6.546   6.077   1.414  2.6539 -0.3018  4.3031
   34MOL   H22926035   6.697   6.319   1.492 -1.0834  1.8865 -0.9625
   34MOL   H23026036   6.639   6.134   1.680 -0.4220 -0.9825 -0.9254
   34MOL   H23126037   6.569   6.293   1.714 -0.1208  0.0200 -0.9826
   34MOL   H23226038   6.234   6.117   1.510 -0.2035 -0.1732 -0.1691
   34MOL   H23326039   6.002   6.080   1.495  0.9286  0.5700 -0.8409
   34MOL   H23426040   5.990   5.884   1.878 -2.0587  2.5285  0.4979
   34MOL   H23526041   6.225   5.950   1.916  0.0366 -1.2677  0.0551
   34MOL   C23626042   5.246   6.072   1.440  1.2062 -0.2745 -0.3674
   34MOL   C23726043   5.384   6.074   1.389  0.0512  0.4487  0.2501
   34MOL   C23826044   5.469   5.991   1.488  0.0624  1.1549  0.2999
   34MOL   C23926045   5.612   6.015   1.452 -0.1850 -0.9212 -0.1116
   34MOL   O24026046   5.681   5.893   1.485 -0.4649  0.7898 -0.2243
   34MOL   C24126047   5.454   6.028   1.635 -0.0287  0.6569 -0.4782
   34MOL   C24226048   5.305   6.027   1.676 -0.1544 -0.9088 -0.4079
   34MOL   C24326049   5.234   6.127   1.587  0.5174  0.1089  0.1810
   34MOL   C24426050   5.088   6.151   1.641  0.6735 -0.2896 -0.6875
   34MOL   O24526051   5.034   6.259   1.564  0.4842  0.2141 -0.0333
   34MOL   C24626052   4.910   6.301   1.580 -0.0872  0.0047  0.3898
   34MOL   O24726053   4.828   6.254   1.658 -0.1961  0.7604  0.0598
   34MOL   C24826054   4.884   6.422   1.496  0.6318  0.1326 -0.0672
   34MOL   C24926055   4.984   6.484   1.424  0.2137  0.0732 -0.1710
   34MOL   C25026056   4.957   6.594   1.346  0.1573  0.2659 -0.3814
   34MOL   C25126057   4.832   6.659   1.357 -0.6307 -0.0280  0.5614
   34MOL   C25226058   4.815   6.798   1.299  0.3111 -0.7961 -0.2666
   34MOL   O25326059   4.878   6.848   1.201  0.7089 -0.2107  0.0137
   34MOL   O25426060   4.723   6.866   1.368 -0.7693 -0.4251 -0.5500
   34MOL   C25526061   4.728   6.595   1.421 -0.1095 -0.1114 -0.3439
   34MOL   C25626062   4.754   6.478   1.494 -0.0516  0.1361  0.1166
   34MOL   H25726063   5.192   6.144   1.379  1.8286  1.2702  0.8758
   34MOL   H25826064   5.190   5.979   1.426  0.1246  0.4968 -1.2761
   34MOL   H25926065   5.390   6.030   1.290  2.0445 -0.2227  0.6451
   34MOL   H26026066   5.437   6.168   1.373  0.1223  0.6056  1.3556
   34MOL   H26126067   5.430   5.890   1.485 -0.7901  1.4957 -0.6427
   34MOL   H26226068   5.617   6.023   1.343  3.7144 -1.7480 -0.0884
   34MOL   H26326069   5.658   6.103   1.497  0.4550 -1.6209  0.6079
   34MOL   H26426070   5.521   5.962   1.691 -2.1873 -0.2481  1.0897
   34MOL   H26526071   5.488   6.129   1.659  0.9091 -0.1862  1.9011
   34MOL   H26626072   5.283   6.050   1.780  0.1397 -2.6588  0.0592
   34MOL   H26726073   5.265   5.928   1.655 -1.1160 -0.3477 -1.2524
   34MOL   H26826074   5.285   6.222   1.597  1.1507 -0.0559 -1.3571
   34MOL   H26926075   5.018   6.068   1.634 -0.5455  0.8122 -1.7930
   34MOL   H27026076   5.079   6.178   1.746  1.1464  0.7779 -0.9155
   34MOL   H27126077   5.085   6.445   1.425  0.6919  1.2633  1.5714
   34MOL   H27226078   5.038   6.644   1.296  1.8553  0.2026  2.2344
   34MOL   H27326079   4.629   6.638   1.430 -0.5502 -1.4376  1.3551
   34MOL   H27426080   4.671   6.441   1.554 -1.5334  3.7732  0.4492
   34MOL   C27526081   4.311   6.974   1.438 -0.0500  0.7172 -0.0736
   34MOL   C27626082   4.462   6.970   1.433 -0.2004  0.8209 -0.0715
   34MOL   C27726083   4.527   7.106   1.446 -0.3303  0.0583  0.5843
   34MOL   C27826084   4.680   7.098   1.422  0.4338  0.0797 -0.4572
   34MOL   O27926085   4.714   7.011   1.317 -0.3088 -0.7229  0.1485
   34MOL   C28026086   4.453   7.206   1.354  0.4967  0.9514 -0.6046
   34MOL   C28126087   4.295   7.205   1.365  0.4544 -0.5459 -0.1804
   34MOL   C28226088   4.249   7.065   1.328  0.1064 -0.2494 -0.4502
   34MOL   C28326089   4.096   7.062   1.318  0.0797  0.3402 -0.2849
   34MOL   O28426090   4.055   6.927   1.292  0.4630 -0.5296  0.4033
   34MOL   C28526091   3.951   6.869   1.353  0.2103 -0.2916  0.4359
   34MOL   O28626092   3.896   6.917   1.450  0.4243 -0.1184  0.6978
   34MOL   C28726093   3.909   6.733   1.302  0.2162 -0.2225  0.1821
   34MOL   C28826094   3.959   6.668   1.184 -0.0754 -1.2168 -0.1165
   34MOL   C28926095   3.898   6.548   1.131 -0.2085 -0.2914 -0.1504
   34MOL   C29026096   3.792   6.495   1.200  0.1329 -0.5825  0.7054
   34MOL   C29126097   3.717   6.372   1.143  0.5085 -0.1049 -0.2327
   34MOL   O29226098   3.631   6.310   1.211  0.4019 -0.4788 -0.2704
   34MOL   O29326099   3.751   6.342   1.008  0.2201 -0.3182 -0.4288
   34MOL   C29426100   3.748   6.552   1.323  0.1767 -0.1697  0.1416
   34MOL   C29526101   3.800   6.675   1.368 -0.1220  0.2546 -0.5793
   34MOL   H29626102   4.269   6.874   1.427  1.0037  0.0632  1.5900
   34MOL   H29726103   4.290   7.002   1.541 -0.5100 -1.4236  0.4311
   34MOL   H29826104   4.498   6.909   1.516  0.3116 -0.5968 -1.3121
   34MOL   H29926105   4.487   6.913   1.343  0.3317 -0.6769  1.0126
   34MOL   H30026106   4.509   7.153   1.543  2.4695  3.3069 -0.3419
   34MOL   H30126107   4.732   7.192   1.402  0.7116 -0.4797 -2.3879
   34MOL   H30226108   4.735   7.061   1.509 -0.9291  1.0479  0.8694
   34MOL   H30326109   4.486   7.308   1.375  0.6899  0.7558  0.0558
   34MOL   H30426110   4.490   7.196   1.252  1.3587 -4.0356  0.0872
   34MOL   H30526111   4.254   7.285   1.303  0.9358  0.1591  0.4003
   34MOL   H30626112   4.249   7.211   1.464  0.4769  0.8583 -0.2422
   34MOL   H30726113   4.288   7.037   1.230  2.1832  2.0318 -0.3355
   34MOL   H30826114   4.060   7.101   1.414  0.7168  2.4070 -0.8580
   34MOL   H30926115   4.060   7.136   1.247 -1.5126 -1.0546 -0.9479
   34MOL   H31026116   4.036   6.717   1.127  0.7550 -0.0336  1.9409
   34MOL   H31126117   3.932   6.510   1.036 -1.4629 -2.0160  0.0860
   34MOL   H31226118   3.667   6.512   1.382 -0.0347  1.1754  0.7798
   34MOL   H31326119   3.745   6.715   1.452  1.5836 -0.9058  1.1401
   34MOL   C31426120   3.447   6.046   0.601  0.1611  0.4110 -0.3311
   34MOL   C31526121   3.552   6.123   0.683 -0.2995  0.5297 -0.2729
   34MOL   C31626122   3.491   6.256   0.741  0.0421  0.3677 -0.3388
   34MOL   C31726123   3.582   6.337   0.836 -0.4523  0.1915  0.5492
   34MOL   O31826124   3.649   6.256   0.931 -0.2280  0.0778  0.2121
   34MOL   C31926125   3.444   6.343   0.620  0.2081  0.5735  0.2705
   34MOL   C32026126   3.345   6.275   0.534 -0.1571  0.6783 -0.1038
   34MOL   C32126127   3.395   6.135   0.486 -0.3005  0.4659  0.3519
   34MOL   C32226128   3.281   6.071   0.403 -0.2738 -0.7003 -0.5115
   34MOL   O32326129   3.329   5.943   0.367  0.4042  0.5800 -0.0787
   34MOL   C32426130   3.338   5.915   0.234 -0.3064  0.0734 -0.7815
   34MOL   O32526131   3.318   5.992   0.143 -0.1428 -0.1866 -0.1598
   34MOL   C32626132   3.373   5.772   0.197 -0.1110 -0.6244  0.6948
   34MOL   C32726133   3.359   5.717   0.064 -0.2074  0.2419  0.5726
   34MOL   C32826134   3.390   5.584   0.033  0.4174  0.3399  0.0986
   34MOL   C32926135   3.440   5.499   0.131  0.0156  0.2406 -0.4666
   34MOL   C33026136   3.485   5.359   0.096 -0.4521 -0.5023 -0.1768
   34MOL   O33126137   3.582   5.305   0.150 -0.1748  0.2076  0.4189
   34MOL   O33226138   3.406   5.304   0.004 -0.0455 -0.6684  0.0785
   34MOL   C33326139   3.469   5.549   0.258  0.2096  0.2512 -0.5743
   34MOL   C33426140   3.428   5.680   0.292  0.6331 -0.5771 -0.2494
   34MOL   H33526141   3.488   5.954   0.559 -2.2726 -0.6226 -0.5484
   34MOL   H33626142   3.363   6.020   0.666  0.0837 -0.8612 -0.9328
   34MOL   H33726143   3.591   6.067   0.768  0.9958  1.9634  0.0881
   34MOL   H33826144   3.642   6.141   0.625 -0.7530  1.4260 -0.7223
   34MOL   H33926145   3.399   6.228   0.792  1.4499 -1.2785  1.4256
   34MOL   H34026146   3.666   6.378   0.779 -0.7144 -0.4674 -0.3284
   34MOL   H34126147   3.540   6.410   0.905  2.3152  0.7628  1.6877
   34MOL   H34226148   3.391   6.432   0.654 -0.8631  0.3628 -0.8370
   34MOL   H34326149   3.518   6.373   0.546 -1.2320  2.3431 -0.4919
   34MOL   H34426150   3.335   6.339   0.447  1.5849  2.0738  0.6826
   34MOL   H34526151   3.248   6.263   0.582  0.7184  0.1630  1.6025
   34MOL   H34626152   3.475   6.159   0.416  0.0524  0.4748  0.7542
   34MOL   H34726153   3.187   6.061   0.458 -0.3724 -0.0641 -0.5644
   34MOL   H34826154   3.264   6.133   0.315  2.8892  3.2377  1.5033
   34MOL   H34926155   3.330   5.785   8.021  0.5408 -0.2394 -0.1218
   34MOL   H35026156   3.396   5.544   7.969  1.4961 -0.6556  0.5558
   34MOL   H35126157   3.511   5.477   0.326  3.0867  0.3243 -2.2052
   34MOL   H35226158   3.448   5.715   0.392  1.0749 -1.2411 -0.0991
   34MOL   C35326159   3.737   4.843   8.023  0.1368  1.2459  0.0863
   34MOL   C35426160   3.676   4.980   8.030  0.1509 -0.6920  0.1156
   34MOL   C35526161   3.570   4.995   7.917  1.0196  0.0948 -0.3944
   34MOL   C35626162   3.519   5.139   7.918 -0.6283 -0.0090  0.7270
   34MOL   O35726163   3.419   5.155   8.018 -0.0488 -0.5318  0.6785
   34MOL   C35826164   3.622   4.958   7.776  0.3056 -0.2173 -0.2463
   34MOL   C35926165   3.704   4.829   7.774 -0.2538  0.1401  0.0137
   34MOL   C36026166   3.804   4.812   7.890 -0.0024  0.3955  0.0194
   34MOL   C36126167   3.866   4.677   7.876 -0.2097 -0.1988 -0.4117
   34MOL   O36226168   3.925   4.654   7.754  0.3719 -0.4541 -0.1078
   34MOL   C36326169   3.963   4.538   7.711  0.2100  0.6033 -0.4878
   34MOL   O36426170   3.966   4.438   7.779  0.1335 -0.4515 -0.1668
   34MOL   C36526171   4.015   4.548   7.578  0.0527 -1.0904  0.1185
   34MOL   C36626172   4.042   4.433   7.502 -0.0884  0.0369  0.3425
   34MOL   C36726173   4.122   4.447   7.391  0.0890 -0.5052 -0.6587
   34MOL   C36826174   4.166   4.571   7.337  0.2963 -0.0524  0.5754
   34MOL   C36926175   4.235   4.581   7.205  0.3371  0.0660  0.0191
   34MOL   O37026176   4.260   4.687   7.143 -0.3497 -0.0706 -0.5655
   34MOL   O37126177   4.267   4.460   7.154  0.2087  0.1837  0.1209
   34MOL   C37226178   4.123   4.688   7.410  0.5853 -0.4765 -0.0228
   34MOL   C37326179   4.064   4.681   7.536 -0.5130  0.2523  0.2427
   34MOL   H37426180   3.801   4.853   0.075  0.1894 -1.2985  0.3607
   34MOL   H37526181   3.666   4.762   0.005  2.6213 -0.8014  0.9409
   34MOL   H37626182   3.626   4.989   0.091 -1.8050 -1.9338 -0.7571
   34MOL   H37726183   3.761   5.048   8.019 -1.0910  1.4309  2.9925
   34MOL   H37826184   3.486   4.931   7.944 -0.8676  2.6674 -0.0291
   34MOL   H37926185   3.601   5.211   7.925  0.5900 -1.3835  0.6751
   34MOL   H38026186   3.471   5.144   7.820 -1.1258  0.2385  0.9792
   34MOL   H38126187   3.535   4.926   7.719  0.2590  0.2709 -0.4572
   34MOL   H38226188   3.669   5.040   7.720 -0.0473 -0.3315 -0.7066
   34MOL   H38326189   3.755   4.820   7.678  0.4699  0.6773  0.3406
   34MOL   H38426190   3.629   4.751   7.774  1.5623 -1.6603  1.4792
   34MOL   H38526191   3.883   4.886   7.882  0.2176  0.4067  2.0784
   34MOL   H38626192   3.951   4.664   7.943 -0.5574 -0.7005 -0.0550
   34MOL   H38726193   3.791   4.601   7.903  0.5275 -0.6310  0.4457
   34MOL   H38826194   4.020   4.339   7.550  1.9904 -1.2329 -1.1158
   34MOL   H38926195   4.148   4.358   7.334  2.0396  0.2300 -0.9408
   34MOL   H39026196   4.146   4.782   7.363 -2.5291  1.8800  2.8333
   34MOL   H39126197   4.054   4.768   7.600  1.3929  0.5709  0.1291
   34MOL   C39226198   4.483   4.724   6.717  0.1459  0.6586 -0.5171
   34MOL   C39326199   4.381   4.663   6.812 -0.1767 -0.1893 -0.4270
   34MOL   C39426200   4.396   4.510   6.800  0.3799 -0.1686 -0.4885
   34MOL   C39526201   4.297   4.456   6.912 -0.5012 -0.0426 -0.2924
   34MOL   O39626202   4.368   4.472   7.034  0.4067 -0.0174  0.5279
   34MOL   C39726203   4.354   4.459   6.655 -0.5010  0.6707  0.1911
   34MOL   C39826204   4.450   4.523   6.553  0.5127  0.6531 -0.4817
   34MOL   C39926205   4.460   4.677   6.573  0.2761  0.9109  0.0670
   34MOL   C40026206   4.576   4.720   6.478  0.2144 -0.6186  0.2059
   34MOL   O40126207   4.696   4.690   6.543 -0.5469  0.3479 -0.1244
   34MOL   C40226208   4.810   4.750   6.500 -0.2111 -0.8194 -0.1352
   34MOL   O40326209   4.816   4.813   6.398 -0.3133 -0.1049 -0.0942
   34MOL   C40426210   4.930   4.718   6.582  0.2533  0.1753  0.4162
   34MOL   C40526211   4.916   4.639   6.698  0.7397 -1.2548 -0.6840
   34MOL   C40626212   5.025   4.629   6.784 -0.0454 -0.4388 -0.3072
   34MOL   C40726213   5.154   4.680   6.751 -0.4347  0.2134 -0.3742
   34MOL   C40826214   5.278   4.646   6.833 -0.6928 -0.1881  0.1429
   34MOL   O40926215   5.391   4.683   6.805 -0.0801  0.2916 -0.5543
   34MOL   O41026216   5.249   4.577   6.947  0.0297  0.3411  0.5592
   34MOL   C41126217   5.165   4.761   6.631  0.2637 -0.6961 -0.5510
   34MOL   C41226218   5.049   4.781   6.548  0.3773  0.3612  0.2607
   34MOL   H41326219   4.480   4.833   6.724  0.6235  0.6789 -0.6021
   34MOL   H41426220   4.583   4.696   6.751  0.8042  1.4086 -1.7848
   34MOL   H41526221   4.401   4.699   6.913  1.2672  0.6630 -1.0075
   34MOL   H41626222   4.277   4.692   6.794 -0.0748  0.8468  0.6082
   34MOL   H41726223   4.498   4.476   6.819 -0.9253 -2.2634  3.4044
   34MOL   H41826224   4.199   4.502   6.903 -1.0886 -0.7797  1.9126
   34MOL   H41926225   4.282   4.349   6.900  0.6950 -0.3282  0.6271
   34MOL   H42026226   4.368   4.352   6.639 -0.2755  0.5324  1.2545
   34MOL   H42126227   4.256   4.488   6.618 -0.9334  0.3921  1.0894
   34MOL   H42226228   4.418   4.512   6.449 -0.3971  0.7086 -0.2166
   34MOL   H42326229   4.550   4.480   6.561  0.9993  1.9506  0.5107
   34MOL   H42426230   4.362   4.710   6.539 -1.2332 -1.0868  2.2974
   34MOL   H42526231   4.565   4.658   6.389 -0.4058  1.5670 -1.2783
   34MOL   H42626232   4.549   4.824   6.462  0.6489 -0.4706  0.4432
   34MOL   H42726233   4.823   4.596   6.731 -0.0768  0.6953 -0.3886
   34MOL   H42826234   5.008   4.583   6.881 -2.3216  4.7682  1.9816
   34MOL   H42926235   5.257   4.812   6.608 -0.0746 -0.3173 -1.0842
   34MOL   H43026236   5.066   4.840   6.459  0.5650  0.1741  0.1732
   34MOL   C43126237   5.338   4.087   7.260  0.1848  0.4389  0.2712
   34MOL   C43226238   5.359   4.147   7.127  0.6186 -0.0141  0.1509
   34MOL   C43326239   5.320   4.297   7.129  0.2249  0.0072  0.4592
   34MOL   C43426240   5.367   4.379   7.008  0.4784 -0.0267  0.6442
   34MOL   O43526241   5.364   4.520   7.026  0.3035  0.4985 -0.0310
   34MOL   C43626242   5.171   4.314   7.170  0.4163 -0.3821 -0.4297
   34MOL   C43726243   5.140   4.249   7.300  0.1275  0.0867 -0.4115
   34MOL   C43826244   5.189   4.099   7.299  1.0284 -0.3769  0.4120
   34MOL   C43926245   5.156   4.032   7.435 -0.0060  0.0770  0.1968
   34MOL   O44026246   5.021   4.019   7.468  0.2075 -0.3004  0.2642
   34MOL   C44126247   4.981   3.903   7.531 -0.8582  0.2417 -0.3548
   34MOL   O44226248   5.047   3.802   7.549  0.0403 -0.0799  0.6217
   34MOL   C44326249   4.839   3.910   7.590  0.2569 -1.1143 -0.3362
   34MOL   C44426250   4.770   4.030   7.591 -0.7518  0.0483 -0.0511
   34MOL   C44526251   4.646   4.046   7.647 -0.5941  0.2075 -0.5257
   34MOL   C44626252   4.580   3.938   7.704 -0.2019 -0.0018  0.3143
   34MOL   C44726253   4.457   3.957   7.784 -0.0104 -0.3300  0.2300
   34MOL   O44826254   4.422   3.875   7.866  0.2106 -0.2044 -0.1948
   34MOL   O44926255   4.393   4.078   7.762 -0.3363 -0.4770 -0.8729
   34MOL   C45026256   4.647   3.818   7.694 -0.4640  0.0276 -0.2048
   34MOL   C45126257   4.775   3.799   7.642 -0.0471 -0.5742 -0.6510
   34MOL   H45226258   5.362   3.980   7.255 -0.3048  0.3100  0.7164
   34MOL   H45326259   5.400   4.125   7.342 -1.1065 -1.1533  2.0204
   34MOL   H45426260   5.458   4.114   7.094  0.8638  0.2978  0.5704
   34MOL   H45526261   5.288   4.101   7.057  1.7110 -1.3473 -0.1150
   34MOL   H45626262   5.388   4.337   7.204  1.2927  0.7721 -0.8974
   34MOL   H45726263   5.468   4.345   6.984  1.0748  0.6121  2.1607
   34MOL   H45826264   5.301   4.348   6.927  1.0437  0.3142  0.0413
   34MOL   H45926265   5.144   4.417   7.194 -0.4557 -0.7960  0.4611
   34MOL   H46026266   5.106   4.283   7.088  1.3219 -0.1903 -1.2219
   34MOL   H46126267   5.033   4.251   7.323  0.0846  0.7105 -0.6611
   34MOL   H46226268   5.189   4.297   7.385  1.2137  0.1781 -1.0884
   34MOL   H46326269   5.127   4.048   7.226 -1.3327  1.2908  1.2150
   34MOL   H46426270   5.207   3.936   7.438 -0.9401 -0.4319 -0.0179
   34MOL   H46526271   5.192   4.100   7.512 -0.5926  1.4898 -0.7411
   34MOL   H46626272   4.825   4.105   7.536 -0.5001  0.1585  0.3471
   34MOL   H46726273   4.607   4.147   7.642 -1.1861 -0.0105 -0.3369
   34MOL   H46826274   4.605   3.734   7.748  0.7683 -0.2178  0.3868
   34MOL   H46926275   4.823   3.703   7.647  0.8081 -0.0769  0.9942
   34MOL   C47026276   3.952   4.012   0.093 -0.1579  0.3542 -0.0530
   34MOL   C47126277   4.064   4.001   8.024 -0.2452  0.0546 -0.0659
   34MOL   C47226278   4.061   4.113   7.918  0.1400  0.1665 -0.2644
   34MOL   C47326279   4.161   4.077   7.804  0.7632  0.5432  0.0602
   34MOL   O47426280   4.287   4.112   7.862 -0.0996  0.0092 -0.9938
   34MOL   C47526281   3.919   4.114   7.856 -0.8833  0.7020 -0.4312
   34MOL   C47626282   3.822   4.154   7.966 -0.2999 -0.7863 -0.1696
   34MOL   C47726283   3.814   4.046   0.041 -0.1861  0.3063 -0.9254
   34MOL   C47826284   3.724   4.089   0.155  0.3428 -0.2711  0.3425
   34MOL   O47926285   3.596   4.075   0.099  0.0539  0.6574 -0.5304
   34MOL   C48026286   3.489   4.089   0.162 -1.2153  0.1842 -0.2563
   34MOL   O48126287   3.486   4.125   0.278  0.0792 -0.2488 -0.8298
   34MOL   C48226288   3.367   4.058   0.083 -0.0128 -0.0759 -0.1426
   34MOL   C48326289   3.243   4.057   0.145 -1.0537 -0.5159 -0.1466
   34MOL   C48426290   3.126   4.031   0.071 -0.1995 -0.5824 -0.0400
   34MOL   C48526291   3.128   4.000   7.969 -1.7448 -0.5080 -0.2169
   34MOL   C48626292   3.001   3.952   7.890 -0.0085  0.0644  0.1729
   34MOL   O48726293   2.888   3.950   7.937 -0.1703 -0.3571  0.3814
   34MOL   O48826294   3.031   3.907   7.774 -0.2934  0.2392 -0.1815
   34MOL   C48926295   3.257   3.993   7.910 -0.5539  0.3693  0.0286
   34MOL   C49026296   3.375   4.022   7.980  0.0710  0.0597 -0.0383
   34MOL   H49126297   3.945   3.918   0.148  0.6996  0.0499 -0.4670
   34MOL   H49226298   3.976   4.083   0.172  0.0031  1.0001 -0.6698
   34MOL   H49326299   4.158   4.000   0.043 -1.1940  1.1824  1.6544
   34MOL   H49426300   4.068   3.903   7.977  0.9874  0.1209 -0.1181
   34MOL   H49526301   4.078   4.210   7.963 -2.3285  0.7386 -0.4899
   34MOL   H49626302   4.172   3.971   7.778 -0.6287  0.0894  1.2551
   34MOL   H49726303   4.151   4.134   7.712  0.3082 -2.1601 -1.6256
   34MOL   H49826304   3.920   4.185   7.774  2.1929 -2.5918 -3.4187
   34MOL   H49926305   3.885   4.021   7.811 -2.3215  0.7810  0.4625
   34MOL   H50026306   3.720   4.159   7.929 -0.6453  0.8291  0.9027
   34MOL   H50126307   3.843   4.253   8.008  1.8607  0.0227 -3.0597
   34MOL   H50226308   3.775   3.957   8.028 -2.7390  0.5107  0.6578
   34MOL   H50326309   3.732   4.044   0.254 -1.0751  0.6891  0.9167
   34MOL   H50426310   3.739   4.196   0.169 -1.8146  0.2521 -1.1234
   34MOL   H50526311   3.243   4.083   0.250 -1.9425  0.7212 -0.4389
   34MOL   H50626312   3.036   4.023   0.129 -0.1754 -1.3802 -0.1031
   34MOL   H50726313   3.275   3.963   7.808 -1.8458  0.5648 -0.2699
   34MOL   H50826314   3.464   4.020   7.919  0.3796 -2.6673  0.4567
   34MOL   C50926315   2.499   3.745   7.762  0.7528  0.1412 -0.2489
   34MOL   C51026316   2.627   3.829   7.747 -0.3050  0.0084  0.0976
   34MOL   C51126317   2.716   3.771   7.640  0.0296 -0.8793 -0.0259
   34MOL   C51226318   2.848   3.847   7.620 -0.6329 -0.2578 -0.4714
   34MOL   O51326319   2.931   3.799   7.725  0.4168 -0.1611  0.7549
   34MOL   C51426320   2.741   3.619   7.652 -0.4596 -0.3562 -0.6718
   34MOL   C51526321   2.614   3.531   7.666  0.4434 -0.1928 -0.2525
   34MOL   C51626322   2.536   3.594   7.786 -0.0962 -0.4445  0.0216
   34MOL   C51726323   2.405   3.519   7.818 -0.3074  0.0456 -0.1368
   34MOL   O51826324   2.408   3.385   7.870 -0.0314 -0.0755  0.0827
   34MOL   C51926325   2.410   3.366   8.001  0.4154  0.2553  0.0658
   34MOL   O52026326   2.371   3.441   0.057  0.3030  0.6886  0.4888
   34MOL   C52126327   2.449   3.223   8.028  0.2896  0.8329 -0.3729
   34MOL   C52226328   2.513   3.191   0.113  0.3374 -0.2110 -0.4340
   34MOL   C52326329   2.558   3.063   0.155  0.1644  0.0793  0.3501
   34MOL   C52426330   2.526   2.957   0.070 -0.5691  0.6197  0.1376
   34MOL   C52526331   2.545   2.813   0.119 -0.0182  0.8834  0.6590
   34MOL   O52626332   2.603   2.788   0.228 -0.3864 -0.0788  0.0048
   34MOL   O52726333   2.489   2.707   0.036  0.6566 -0.1359  0.1706
   34MOL   C52826334   2.478   2.986   7.978 -0.0127 -0.0485 -0.1518
   34MOL   C52926335   2.433   3.113   7.940  0.2858  0.4090 -0.5652
   34MOL   H53026336   2.448   3.773   7.854  1.2103  2.1362 -0.5821
   34MOL   H53126337   2.427   3.758   7.681  1.3931  4.0050 -0.2831
   34MOL   H53226338   2.590   3.923   7.707  0.9689  0.1643 -0.7192
   34MOL   H53326339   2.672   3.839   7.846  0.2324 -1.7012  0.0359
   34MOL   H53426340   2.652   3.796   7.556 -0.2851  0.6882  0.6703
   34MOL   H53526341   2.888   3.823   7.521  1.1053 -1.3139  0.4664
   34MOL   H53626342   2.828   3.954   7.614  1.3713  0.1612 -0.0512
   34MOL   H53726343   2.795   3.586   7.563 -1.7621  0.7824 -1.9008
   34MOL   H53826344   2.811   3.607   7.735 -0.1646 -2.7600 -1.2248
   34MOL   H53926345   2.640   3.426   7.677  2.4452  0.1920 -1.1141
   34MOL   H54026346   2.551   3.540   7.577 -0.9659  3.6843  0.9930
   34MOL   H54126347   2.600   3.594   7.874 -0.7743  1.3501  0.5560
   34MOL   H54226348   2.336   3.578   7.878 -0.7433  2.0037 -2.5024
   34MOL   H54326349   2.349   3.510   7.725 -1.1505  1.4293  0.2146
   34MOL   H54426350   2.531   3.273   0.180 -0.5064 -1.4865  1.3881
   34MOL   H54526351   2.605   3.054   0.252  0.6153 -1.4095  0.0067
   34MOL   H54626352   2.467   2.901   7.911  2.6699 -1.2184  0.7969
   34MOL   H54726353   2.390   3.115   7.841  0.5872 -0.6649 -0.7278
   34MOL   C54826354   2.640   2.484   7.640  0.7495 -0.1389  0.0516
   34MOL   C54926355   2.632   2.439   7.797  0.1317 -0.0722 -0.5643
   34MOL   C55026356   2.623   2.565   7.886  0.8579  1.0257 -0.4560
   34MOL   C55126357   2.630   2.530   8.035 -0.6847 -0.4922 -0.3539
   34MOL   O55226358   2.514   2.562   0.073  0.2328 -0.6616  0.2587
   34MOL   C55326359   2.735   2.663   7.848 -0.3583 -0.8357  0.1035
   34MOL   C55426360   2.728   2.709   7.703  0.4564  0.3609 -0.2149
   34MOL   C55526361   2.749   2.585   7.607 -0.7588  0.0474 -0.2107
   34MOL   C55626362   2.734   2.612   7.455  0.4514  0.2241  0.6054
   34MOL   O55726363   2.851   2.659   7.398 -0.1575  0.3039  0.0751
   34MOL   C55826364   2.855   2.690   7.266 -0.6682  0.7413  0.2287
   34MOL   O55926365   2.758   2.680   7.189  0.1641 -0.1824  0.0882
   34MOL   C56026366   2.986   2.741   7.215 -0.5440 -0.3081 -0.0387
   34MOL   C56126367   3.001   2.772   7.079 -0.1019 -0.6854 -1.3042
   34MOL   C56226368   3.109   2.847   7.031  0.6229  0.0527  0.0412
   34MOL   C56326369   3.214   2.884   7.120 -0.1023  0.2462  0.6746
   34MOL   C56426370   3.316   2.979   7.068  1.0297  0.3852 -0.5199
   34MOL   O56526371   3.344   2.996   6.950  0.7627  0.0491  0.2568
   34MOL   O56626372   3.378   3.048   7.167 -0.4089 -0.1370 -0.2608
   34MOL   C56726373   3.213   2.835   7.253 -0.3883 -0.8450 -0.4990
   34MOL   C56826374   3.098   2.771   7.300 -0.7845 -0.3789  0.3001
   34MOL   H56926375   2.659   2.395   7.580 -1.4340  0.4392 -1.5530
   34MOL   H57026376   2.541   2.519   7.613  0.4766 -2.5837 -2.3207
   34MOL   H57126377   2.543   2.376   7.807 -0.2162  0.5270  0.2131
   34MOL   H57226378   2.721   2.378   7.807 -0.2209 -0.7238 -1.4274
   34MOL   H57326379   2.523   2.603   7.867 -0.3715 -1.1026  1.4053
   34MOL   H57426380   2.646   2.422   0.008  0.5951 -0.5566 -3.0575
   34MOL   H57526381   2.711   2.583   0.049 -1.2231 -0.1339  0.1503
   34MOL   H57626382   2.728   2.754   7.907  3.0722 -0.9257  0.7631
   34MOL   H57726383   2.837   2.629   7.866 -0.7289 -2.8140 -1.3346
   34MOL   H57826384   2.813   2.776   7.688  1.1846 -0.6831 -0.7916
   34MOL   H57926385   2.634   2.757   7.677  0.2958  0.2670  0.1866
   34MOL   H58026386   2.847   2.544   7.629  0.4235  1.2849 -3.0095
   34MOL   H58126387   2.713   2.518   7.404 -1.5296  1.6199 -1.2222
   34MOL   H58226388   2.648   2.675   7.432  0.1230  0.0609  1.3701
   34MOL   H58326389   2.919   2.742   7.016 -1.7012  1.6690 -0.4594
   34MOL   H58426390   3.120   2.886   6.931 -0.0685  0.0653 -0.0307
   34MOL   H58526391   3.293   2.846   7.325 -0.9944 -2.3980  0.4337
   34MOL   H58626392   3.105   2.744   7.404  3.1899  1.6378  0.6680
   34MOL   C58726393   3.870   3.282   7.273  0.2787 -0.0931 -0.8077
   34MOL   C58826394   3.747   3.201   7.298  0.7445  0.0261 -0.1125
   34MOL   C58926395   3.742   3.080   7.208  0.5251  0.4533 -0.1746
   34MOL   C59026396   3.607   3.013   7.198  0.0654 -0.0338 -0.2621
   34MOL   O59126397   3.514   3.088   7.122 -0.0715  0.5264  0.1548
   34MOL   C59226398   3.793   3.103   7.059 -0.3570 -0.7036  0.7678
   34MOL   C59326399   3.918   3.184   7.057  0.0381 -0.4364  0.5536
   34MOL   C59426400   3.895   3.320   7.132 -0.0977  0.4297  0.5323
   34MOL   C59526401   4.018   3.414   7.115  0.0159 -0.1788  0.6987
   34MOL   O59626402   4.045   3.440   6.980 -0.3468 -0.4835  0.1926
   34MOL   C59726403   4.090   3.559   6.949  0.1987 -0.2128 -0.7616
   34MOL   O59826404   4.095   3.659   7.022 -0.1109 -0.4175 -0.2287
   34MOL   C59926405   4.123   3.556   6.804 -0.1431  0.1875 -0.1905
   34MOL   C60026406   4.191   3.670   6.744  0.3138  0.2344 -0.7508
   34MOL   C60126407   4.203   3.667   6.608 -0.5609 -0.7420  0.6588
   34MOL   C60226408   4.172   3.563   6.524  0.0612 -0.1175 -0.5849
   34MOL   C60326409   4.199   3.576   6.378  0.4556  1.0290 -0.1099
   34MOL   O60426410   4.248   3.677   6.325  0.2514 -0.0105 -0.0487
   34MOL   O60526411   4.138   3.480   6.304 -0.3666  0.2334 -0.1818
   34MOL   C60626412   4.107   3.453   6.580  0.0979 -0.1228  0.4773
   34MOL   C60726413   4.079   3.450   6.719  0.1906 -0.0524  0.0479
   34MOL   H60826414   3.877   3.367   7.341  0.9029 -1.3432  0.7226
   34MOL   H60926415   3.958   3.226   7.304  0.3718  0.5947  0.2177
   34MOL   H61026416   3.744   3.171   7.402  1.4325  0.6107  0.0788
   34MOL   H61126417   3.658   3.264   7.290 -0.4356 -1.4728  0.9993
   34MOL   H61226418   3.817   3.020   7.261  0.9870  0.7137 -0.5254
   34MOL   H61326419   3.621   2.917   7.147  0.7815  0.9629 -2.0152
   34MOL   H61426420   3.575   2.996   7.300 -2.0727 -0.0846 -0.9218
   34MOL   H61526421   3.798   3.013   6.998  0.2343 -0.2969  0.2099
   34MOL   H61626422   3.709   3.157   7.014  0.6943  0.3709  0.0704
   34MOL   H61726423   3.932   3.200   6.951 -1.2012  2.7838  0.8434
   34MOL   H61826424   4.012   3.139   7.089  0.4022  0.0042  0.0986
   34MOL   H61926425   3.797   3.354   7.096 -0.8575 -0.3386  1.8560
   34MOL   H62026426   3.999   3.503   7.175 -1.3775  1.2230 -1.7841
   34MOL   H62126427   4.112   3.372   7.152  0.0724  0.3627  1.1886
   34MOL   H62226428   4.220   3.756   6.802 -4.1320  1.2149  0.1979
   34MOL   H62326429   4.228   3.763   6.565 -0.5151 -1.2441 -0.4303
   34MOL   H62426430   4.075   3.376   6.512 -0.1645 -0.6467  1.1875
   34MOL   H62526431   4.025   3.366   6.760 -0.3723  0.7472  0.9400
   34MOL   C62626432   4.127   3.360   5.730  0.4092 -0.5616 -0.1592
   34MOL   C62726433   4.107   3.373   5.878  0.2666 -0.4758  0.7027
   34MOL   C62826434   4.037   3.500   5.939  0.3098  0.8753 -0.1456
   34MOL   C62926435   4.036   3.487   6.094 -0.3249  0.1294  0.0283
   34MOL   O63026436   4.160   3.485   6.158  0.4859 -0.1430 -0.3131
   34MOL   C63126437   4.101   3.623   5.881  0.4371 -0.5553  0.2051
   34MOL   C63226438   4.097   3.619   5.730 -0.1921 -0.3639 -0.7539
   34MOL   C63326439   4.184   3.501   5.685 -0.3165 -0.1571  0.8332
   34MOL   C63426440   4.227   3.504   5.538 -0.2420  0.2079  0.5330
   34MOL   O63526441   4.123   3.456   5.453  0.2220  0.7845 -0.1662
   34MOL   C63626442   4.089   3.523   5.341 -0.2203  0.1059 -0.2159
   34MOL   O63726443   4.132   3.631   5.304  0.5683  0.1496 -0.3925
   34MOL   C63826444   3.991   3.441   5.256  0.1326 -0.5215 -0.3756
   34MOL   C63926445   3.959   3.489   5.126  0.6296 -0.2783 -0.0926
   34MOL   C64026446   3.870   3.410   5.045  0.1053 -0.5348  0.3319
   34MOL   C64126447   3.810   3.294   5.093 -0.0672  0.2835 -0.6380
   34MOL   C64226448   3.710   3.233   5.003 -0.4516  0.9363  0.1797
   34MOL   O64326449   3.686   3.272   4.890 -0.0038  0.1347  0.0373
   34MOL   O64426450   3.629   3.146   5.066 -0.5301 -0.5638  0.0178
   34MOL   C64526451   3.842   3.244   5.220 -0.2262  0.7208 -0.0993
   34MOL   C64626452   3.927   3.319   5.301 -0.4486 -1.0357  1.0501
   34MOL   H64726453   4.196   3.282   5.698 -1.1943 -2.1787  0.3060
   34MOL   H64826454   4.037   3.334   5.674  0.4471 -0.8084 -0.1035
   34MOL   H64926455   4.071   3.278   5.917  0.9105 -2.0457 -2.3815
   34MOL   H65026456   4.203   3.382   5.929  1.3876  2.4232 -1.7734
   34MOL   H65126457   3.934   3.493   5.905  1.1461 -1.0172 -2.3791
   34MOL   H65226458   3.982   3.573   6.135 -0.7564  0.1149 -0.4993
   34MOL   H65326459   3.987   3.393   6.118  1.2524 -0.9191 -0.7562
   34MOL   H65426460   4.056   3.714   5.921 -1.9227 -0.6405 -2.1236
   34MOL   H65526461   4.205   3.641   5.909  0.8820 -1.2530 -0.9651
   34MOL   H65626462   4.125   3.714   5.684  0.5025 -0.9856 -1.6153
   34MOL   H65726463   3.996   3.593   5.697 -0.4815 -1.6326  1.0506
   34MOL   H65826464   4.279   3.517   5.737 -1.0551 -1.0297  2.5107
   34MOL   H65926465   4.238   3.610   5.513 -1.6391  0.2307 -0.0551
   34MOL   H66026466   4.313   3.440   5.519 -0.5581  0.0521 -0.4212
   34MOL   H66126467   4.000   3.582   5.089 -2.6173  0.4726 -1.9518
   34MOL   H66226468   3.839   3.449   4.949 -0.4826 -2.2738 -0.1953
   34MOL   H66326469   3.781   3.166   5.263 -0.1863  2.0873  2.4879
   34MOL   H66426470   3.931   3.289   5.405  1.2399 -0.0854  1.2865
   34MOL   C66526471   3.790   2.747   5.201 -0.1418  0.2841  0.0235
   34MOL   C66626472   3.754   2.859   5.101  0.6521 -0.0942 -0.2561
   34MOL   C66726473   3.611   2.843   5.042  0.1081 -0.2169  0.0925
   34MOL   C66826474   3.559   2.952   4.943 -0.1027 -0.3753  0.1037
   34MOL   O66926475   3.522   3.080   4.984 -0.5701  0.4476 -0.5241
   34MOL   C67026476   3.610   2.701   4.981  0.6794 -0.1252  0.4754
   34MOL   C67126477   3.633   2.585   5.082 -0.3202 -0.4802 -0.1410
   34MOL   C67226478   3.773   2.599   5.142 -0.1546  0.2554  0.0627
   34MOL   C67326479   3.799   2.487   5.252  0.3943 -0.4963  0.8901
   34MOL   O67426480   3.715   2.508   5.366  0.0563  0.1418 -0.1854
   34MOL   C67526481   3.736   2.439   5.481  0.0066  0.8324 -0.3070
   34MOL   O67626482   3.822   2.347   5.495 -0.2932 -0.3143 -0.2769
   34MOL   C67726483   3.647   2.488   5.596  0.0286  0.3191  0.3802
   34MOL   C67826484   3.563   2.601   5.582  0.3326 -0.3747  0.4156
   34MOL   C67926485   3.485   2.651   5.691  0.0794 -0.7281 -0.1721
   34MOL   C68026486   3.493   2.586   5.821 -0.4831 -0.6311  0.1133
   34MOL   C68126487   3.400   2.629   5.933  0.6892  0.1688 -0.0952
   34MOL   O68226488   3.358   2.748   5.946  0.1449 -0.4645 -0.5527
   34MOL   O68326489   3.369   2.526   6.010  0.7928  0.8326 -0.1360
   34MOL   C68426490   3.583   2.477   5.838  0.3349 -1.0449  0.2943
   34MOL   C68526491   3.652   2.424   5.722  0.4537  0.2587  0.7081
   34MOL   H68626492   3.893   2.760   5.234 -0.1232 -0.6692  0.3432
   34MOL   H68726493   3.723   2.765   5.284  0.8850  1.2699  0.6566
   34MOL   H68826494   3.773   2.948   5.161  1.8144  0.5757 -1.5943
   34MOL   H68926495   3.830   2.850   5.024  0.8379  1.2962 -0.2382
   34MOL   H69026496   3.538   2.849   5.122 -1.7719  0.7223 -1.6424
   34MOL   H69126497   3.619   2.951   4.852 -1.3549  1.7634 -0.8098
   34MOL   H69226498   3.462   2.923   4.901  1.1574 -0.9780 -2.5000
   34MOL   H69326499   3.512   2.696   4.934  1.5565 -0.3277 -1.3944
   34MOL   H69426500   3.673   2.701   4.891  3.2023  4.2637  2.0591
   34MOL   H69526501   3.627   2.490   5.030  0.2308 -0.7235  0.2349
   34MOL   H69626502   3.549   2.593   5.151  0.0004  0.3066  0.1652
   34MOL   H69726503   3.847   2.590   5.063  1.1844  0.3470  1.2901
   34MOL   H69826504   3.790   2.390   5.202 -2.4485  0.3041 -0.2345
   34MOL   H69926505   3.903   2.496   5.282  1.0954 -0.8573 -1.3257
   34MOL   H70026506   3.558   2.639   5.482  0.7296 -1.9214 -0.2076
   34MOL   H70126507   3.412   2.729   5.674  0.8899  0.4625  1.7107
   34MOL   H70226508   3.585   2.424   5.932 -0.6729 -1.2986  0.1684
   34MOL   H70326509   3.717   2.339   5.735 -2.5856 -2.5979 -1.7645
   34MOL   C70426510   3.298   2.217   6.368 -0.1424 -0.4626 -0.1297
   34MOL   C70526511   3.245   2.342   6.303 -0.4335 -0.1722  0.1480
   34MOL   C70626512   3.358   2.453   6.295 -0.7508  0.2843  1.0944
   34MOL   C70726513   3.317   2.589   6.230 -0.1923  0.0407  0.2527
   34MOL   O70826514   3.259   2.560   6.104  0.0144  0.0695 -0.2729
   34MOL   C70926515   3.428   2.470   6.434  0.0058 -0.9520  0.0377
   34MOL   C71026516   3.471   2.345   6.489  0.7126 -0.7044  0.0825
   34MOL   C71126517   3.360   2.243   6.508  0.1528  0.1698  0.1786
   34MOL   C71226518   3.407   2.106   6.547  0.1992  0.2768  0.1508
   34MOL   O71326519   3.424   2.111   6.688  0.1665  0.7315  0.2836
   34MOL   C71426520   3.544   2.124   6.750 -0.7242 -0.0494  0.0864
   34MOL   O71526521   3.649   2.142   6.693 -0.5304 -0.2189 -0.1009
   34MOL   C71626522   3.540   2.105   6.903  0.2850 -0.3249 -0.0468
   34MOL   C71726523   3.650   2.147   6.986 -0.1364 -0.2570  0.2133
   34MOL   C71826524   3.639   2.150   7.121  0.3572  0.8517 -0.3409
   34MOL   C71926525   3.525   2.099   7.185 -0.4054 -0.2236 -0.0967
   34MOL   C72026526   3.522   2.108   7.334 -0.9599  1.0032 -0.2046
   34MOL   O72126527   3.593   2.184   7.403  0.0243 -0.5177  0.0150
   34MOL   O72226528   3.445   2.009   7.383 -0.0013 -0.4470  0.0165
   34MOL   C72326529   3.417   2.044   7.107 -0.0784 -0.5463 -0.1141
   34MOL   C72426530   3.433   2.046   6.966  0.6031  0.4208 -0.1174
   34MOL   H72526531   3.215   2.147   6.367 -0.0800 -0.5477 -2.4594
   34MOL   H72626532   3.369   2.168   6.300  0.1892  0.3330 -0.3604
   34MOL   H72726533   3.219   2.320   6.199  0.6024 -0.3787 -0.0794
   34MOL   H72826534   3.155   2.385   6.345 -0.6823  1.5677 -2.0445
   34MOL   H72926535   3.433   2.410   6.229  1.9684 -0.3030  4.3958
   34MOL   H73026536   3.254   2.645   6.300  0.6806  1.5228 -0.1185
   34MOL   H73126537   3.398   2.661   6.221  0.0102 -0.5068 -2.8318
   34MOL   H73226538   3.512   2.540   6.429 -0.0724 -0.7347  1.4492
   34MOL   H73326539   3.359   2.515   6.506 -0.2841 -2.5637  0.7798
   34MOL   H73426540   3.522   2.357   6.585 -3.1389  1.3366  2.0142
   34MOL   H73526541   3.538   2.303   6.414  1.9994 -0.6131  1.1620
   34MOL   H73626542   3.281   2.274   6.576  0.1741  1.2466 -0.2853
   34MOL   H73726543   3.329   2.035   6.520 -1.0518  1.5764  0.2816
   34MOL   H73826544   3.506   2.072   6.516 -0.0839 -0.1727 -0.2662
   34MOL   H73926545   3.740   2.183   6.939  0.2046  2.9704  3.1304
   34MOL   H74026546   3.726   2.187   7.174  3.2151 -0.9300 -3.5319
   34MOL   H74126547   3.322   2.002   7.139  0.0486 -0.5171  0.2984
   34MOL   H74226548   3.344   2.022   6.909  0.6461 -1.6551  0.6375
   34MOL   C74326549   3.795   1.653   7.763 -1.1005 -0.1942 -0.5272
   34MOL   C74426550   3.716   1.698   7.636 -0.2545  0.6372  0.9157
   34MOL   C74526551   3.646   1.840   7.635  0.4596 -0.0477  0.1532
   34MOL   C74626552   3.561   1.844   7.507  0.4539  0.4852 -0.1959
   34MOL   O74726553   3.488   1.971   7.521 -0.1135  0.1078 -0.1602
   34MOL   C74826554   3.559   1.844   7.763 -0.6141  0.1214  0.4909
   34MOL   C74926555   3.647   1.813   7.882  0.1407  0.2752 -0.6814
   34MOL   C75026556   3.704   1.665   7.888  0.7067 -0.4374  0.2696
   34MOL   C75126557   3.782   1.642   8.014  0.2965  0.3800  0.0463
   34MOL   O75226558   3.813   1.500   8.028 -0.1073 -0.0009  0.5743
   34MOL   C75326559   3.728   1.413   0.037 -0.5702  0.1697 -0.2266
   34MOL   O75426560   3.613   1.431   0.060  0.1790  0.1975  0.4149
   34MOL   C75526561   3.798   1.283   0.079 -0.3291  0.1001 -0.4896
   34MOL   C75626562   3.715   1.173   0.118  0.4140  0.1165  1.1228
   34MOL   C75726563   3.772   1.051   0.149 -0.0389  0.4956 -0.1704
   34MOL   C75826564   3.914   1.034   0.156 -0.3439 -0.3789  0.4788
   34MOL   C75926565   3.973   0.903   0.213  0.1676 -0.1361  0.4001
   34MOL   O76026566   3.918   0.832   0.295  0.6075  0.8183 -0.2613
   34MOL   O76126567   4.090   0.873   0.155  0.2951 -0.1286  0.2164
   34MOL   C76226568   3.997   1.138   0.112 -0.5357  0.3436 -0.4129
   34MOL   C76326569   3.938   1.263   0.070 -0.1124  0.0341 -0.4622
   34MOL   H76426570   3.827   1.549   7.748  1.3364  0.3473  0.5413
   34MOL   H76526571   3.893   1.697   7.782 -0.9499 -0.9565  0.5795
   34MOL   H76626572   3.787   1.704   7.554 -1.4175  0.7548 -0.1139
   34MOL   H76726573   3.649   1.616   7.608  1.3607  0.6928 -3.4429
   34MOL   H76826574   3.708   1.929   7.621  2.1758 -0.9401  1.8999
   34MOL   H76926575   3.628   1.856   7.421  2.2000 -1.2745  0.8793
   34MOL   H77026576   3.500   1.756   7.491  0.4391  0.3655  0.5226
   34MOL   H77126577   3.510   1.941   7.773 -3.9406 -1.0540 -3.1675
   34MOL   H77226578   3.479   1.770   7.770 -0.1460 -0.5406 -0.8949
   34MOL   H77326579   3.592   1.841   7.972  1.9662  2.1572 -0.1229
   34MOL   H77426580   3.731   1.882   7.888  0.0643  0.2680  0.8967
   34MOL   H77526581   3.610   1.609   7.878  1.0390 -0.8469 -0.6122
   34MOL   H77626582   3.872   1.701   8.004  1.3738 -1.1363  0.5941
   34MOL   H77726583   3.736   1.672   0.072 -1.3785  0.8112 -0.8962
   34MOL   H77826584   3.608   1.180   0.123  0.3100 -0.9318  0.5596
   34MOL   H77926585   3.709   0.965   0.169  1.7727 -0.4398  1.7597
   34MOL   H78026586   4.105   1.131   0.107 -0.6294 -0.9138 -0.6820
   34MOL   H78126587   4.008   1.325   0.016  0.3613 -0.9730 -1.0263
   34MOL   H78226588   4.120   0.788   0.183 -1.4414 -0.9749 -0.4265
   35MOL     C126589   5.794   4.958   4.521 -0.3736 -0.5575 -0.4890
   35MOL     C226590   5.920   4.876   4.514  0.4881 -0.3107 -0.3523
   35MOL     C326591   5.889   4.719   4.526 -0.4036  0.0867 -0.5839
   35MOL     C426592   6.017   4.638   4.494 -0.0983 -0.2422  0.0030
   35MOL     O526593   6.118   4.664   4.593 -0.1269  0.8166  0.1281
   35MOL     C626594   5.822   4.703   4.664  0.2675 -0.1147  0.3214
   35MOL     C726595   5.697   4.793   4.670  0.2579  0.6545  0.1632
   35MOL     C826596   5.731   4.938   4.660 -0.8988  0.0157  0.6168
   35MOL     C926597   5.602   5.027   4.687 -0.0367  0.1395  0.5574
   35MOL    O1026598   5.538   5.004   4.812 -0.0562  0.5137 -0.1901
   35MOL    C1126599   5.405   5.003   4.826 -0.3442 -0.0808  0.3548
   35MOL    O1226600   5.332   5.024   4.733  0.1597 -0.4270 -0.1607
   35MOL    C1326601   5.366   4.985   4.963 -0.0142  0.1824  0.9839
   35MOL    C1426602   5.458   4.954   5.065 -0.8916  0.3205 -0.0069
   35MOL    C1526603   5.412   4.939   5.200  0.5312 -0.1194  0.4167
   35MOL    C1626604   5.276   4.953   5.234  0.4671 -0.9916  0.3551
   35MOL    C1726605   5.230   4.957   5.371 -0.8262  0.1521  0.0899
   35MOL    O1826606   5.312   4.951   5.463  0.5796 -0.0159 -0.7570
   35MOL    O1926607   5.097   4.965   5.393  0.7751  0.0465  0.0477
   35MOL    C2026608   5.188   4.980   5.127 -0.1656 -0.4722  0.8543
   35MOL    C2126609   5.232   5.001   4.994 -0.1217 -0.4674 -0.0195
   35MOL    H2226610   5.815   5.064   4.512 -2.9619  0.1320  1.2408
   35MOL    H2326611   5.730   4.932   4.437 -1.5301 -2.6647  0.9918
   35MOL    H2426612   5.977   4.892   4.422  1.9881 -1.3612  0.3535
   35MOL    H2526613   5.985   4.906   4.596  2.2154 -0.3060 -1.6727
   35MOL    H2626614   5.822   4.684   4.447 -0.7063 -1.8237  0.4976
   35MOL    H2726615   6.002   4.530   4.498 -1.8200 -0.1220 -2.2853
   35MOL    H2826616   6.053   4.662   4.394  0.7641  1.9969  0.8270
   35MOL    H2926617   5.790   4.601   4.685 -2.0160  0.3998 -0.5160
   35MOL    H3026618   5.898   4.728   4.738  0.4816  0.7691 -0.1863
   35MOL    H3126619   5.657   4.781   4.770  0.0710 -0.2263 -0.0128
   35MOL    H3226620   5.611   4.763   4.610 -0.4845  0.1015  1.4844
   35MOL    H3326621   5.804   4.958   4.739  0.8831 -1.7408 -0.5575
   35MOL    H3426622   5.639   5.129   4.683  1.3055 -0.3877 -2.4635
   35MOL    H3526623   5.530   5.016   4.606 -0.7758 -1.1126  1.3736
   35MOL    H3626624   5.563   4.946   5.041 -0.7748 -1.4576  1.0004
   35MOL    H3726625   5.479   4.906   5.278 -0.9910 -1.4711  1.1873
   35MOL    H3826626   5.081   4.995   5.137 -0.1579 -0.0761  0.4098
   35MOL    H3926627   5.169   5.028   4.910  0.0803  3.1652  0.9011
   35MOL    H4026628   6.067   4.663   4.673 -1.2308  2.9558 -0.5073
   35MOL    C4126629   4.651   4.942   5.723  0.1429 -0.3117  0.0706
   35MOL    C4226630   4.773   4.963   5.632  0.3422 -0.2709  0.5343
   35MOL    C4326631   4.899   5.033   5.693  0.1231 -0.5722 -0.1233
   35MOL    C4426632   5.010   5.066   5.584 -0.2407  0.0612  0.0786
   35MOL    O4526633   5.045   4.941   5.533 -0.7749 -0.3795 -0.0771
   35MOL    C4626634   4.858   5.160   5.779  0.3792  0.2348  0.0393
   35MOL    C4726635   4.728   5.140   5.862 -0.6233 -0.6207 -0.4036
   35MOL    C4826636   4.613   5.083   5.781 -0.0154 -0.8057  0.8812
   35MOL    C4926637   4.477   5.072   5.864 -0.6260  0.6672  0.1633
   35MOL    O5026638   4.357   5.108   5.796  0.0360  0.4432 -0.0566
   35MOL    C5126639   4.254   5.162   5.864 -1.0544 -0.0316 -0.8290
   35MOL    O5226640   4.262   5.205   5.977 -0.6583 -0.0140  0.1623
   35MOL    C5326641   4.128   5.167   5.787  0.4465 -0.4184  0.0381
   35MOL    C5426642   4.108   5.072   5.683 -0.5779  0.2754 -0.5569
   35MOL    C5526643   3.992   5.074   5.608  0.8479 -0.1523 -0.0264
   35MOL    C5626644   3.894   5.170   5.628 -0.2349  1.0982 -0.1199
   35MOL    C5726645   3.765   5.176   5.553 -0.2257  0.0158 -0.2397
   35MOL    O5826646   3.687   5.261   5.567  0.2487  0.3046  0.3844
   35MOL    O5926647   3.738   5.068   5.486 -0.3715 -0.3949 -0.5319
   35MOL    C6026648   3.916   5.262   5.735 -0.3933 -0.0647  0.5676
   35MOL    C6126649   4.030   5.257   5.816 -0.2270 -0.2145  0.4455
   35MOL    H6226650   4.566   4.894   5.675  1.3173 -0.5604 -1.7794
   35MOL    H6326651   4.681   4.879   5.806  0.3075  0.0084  0.2578
   35MOL    H6426652   4.802   4.867   5.588 -2.5203  0.0725 -2.3558
   35MOL    H6526653   4.746   5.011   5.538 -0.0488  0.5234  1.0425
   35MOL    H6626654   4.938   4.955   5.758  1.7139  0.4637  0.2213
   35MOL    H6726655   4.963   5.125   5.505  0.8697 -0.4671 -0.9873
   35MOL    H6826656   5.090   5.121   5.633 -0.7567 -0.7196  1.8291
   35MOL    H6926657   4.937   5.201   5.842 -2.1077  2.0889  2.0515
   35MOL    H7026658   4.834   5.228   5.697 -1.8586 -0.9097 -0.2811
   35MOL    H7126659   4.710   5.236   5.911  1.4252 -0.4645  0.0950
   35MOL    H7226660   4.756   5.073   5.944 -0.5991 -0.9768 -0.7004
   35MOL    H7326661   4.605   5.156   5.701 -0.8343 -0.1450  1.5571
   35MOL    H7426662   4.471   4.975   5.914 -2.8908  1.0570  0.7216
   35MOL    H7526663   4.488   5.140   5.949 -1.6980 -0.8750  1.5591
   35MOL    H7626664   4.178   4.992   5.666 -1.4784 -0.9251  1.1754
   35MOL    H7726665   3.991   5.001   5.528  2.3524  0.7312 -0.8700
   35MOL    H7826666   3.839   5.337   5.748  0.0626  0.8632 -1.7628
   35MOL    H7926667   4.047   5.322   5.900 -0.6321 -0.4684  0.7318
   35MOL    C8026668   3.359   5.060   5.004 -0.0982 -0.3187  0.1491
   35MOL    C8126669   3.481   5.113   5.089  0.3206 -0.7715  0.0864
   35MOL    C8226670   3.463   5.073   5.230  0.1064  0.4445  0.0991
   35MOL    C8326671   3.587   5.109   5.308 -0.7876  0.4541  0.1470
   35MOL    O8426672   3.589   5.060   5.432 -0.1820  0.0653 -0.8522
   35MOL    C8526673   3.337   5.136   5.292  0.1391 -0.1977  0.1867
   35MOL    C8626674   3.215   5.081   5.224  0.0405  0.0066  0.5347
   35MOL    C8726675   3.219   5.100   5.070 -0.7618  0.6790  0.5562
   35MOL    C8826676   3.092   5.036   5.013  0.8693 -0.5447 -0.6451
   35MOL    O8926677   3.099   5.066   4.875 -0.5492  0.3905  0.2340
   35MOL    C9026678   2.997   5.023   4.793  0.5115  0.6698  0.6222
   35MOL    O9126679   2.895   4.982   4.840 -0.6860  0.1252 -0.0160
   35MOL    C9226680   3.021   5.033   4.646 -0.1368  0.0503 -0.3356
   35MOL    C9326681   3.124   5.110   4.598 -0.1964 -0.2792 -0.2345
   35MOL    C9426682   3.151   5.123   4.455 -0.7721 -0.4950 -0.6963
   35MOL    C9526683   3.064   5.049   4.367 -0.1294 -0.0737 -1.3121
   35MOL    C9626684   3.083   5.066   4.220 -0.2004  0.0934 -0.5186
   35MOL    O9726685   3.171   5.133   4.171 -0.3166 -0.2617  0.3560
   35MOL    O9826686   3.007   4.982   4.152  0.3060 -0.4931  0.2109
   35MOL    C9926687   2.948   4.982   4.415 -0.4073 -0.8344  0.4187
   35MOL   C10026688   2.934   4.964   4.553  0.5994  0.3133 -0.0894
   35MOL   H10126689   3.370   5.106   4.906 -2.3109 -0.0792  0.0033
   35MOL   H10226690   3.368   4.951   5.005  0.7323 -0.2528  0.5761
   35MOL   H10326691   3.564   5.058   5.046  1.6556  0.7625  0.6775
   35MOL   H10426692   3.495   5.221   5.085 -0.0510 -0.6242  2.0694
   35MOL   H10526693   3.452   4.965   5.246 -0.0935  0.5243  0.5380
   35MOL   H10626694   3.664   5.058   5.250 -1.2413  0.1322 -0.1792
   35MOL   H10726695   3.605   5.217   5.314 -0.0855  0.2576  1.6038
   35MOL   H10826696   3.329   5.108   5.397  3.3618 -0.5003  0.4156
   35MOL   H10926697   3.338   5.245   5.283 -1.2529 -0.2634 -1.0247
   35MOL   H11026698   3.134   5.146   5.258  0.0531 -0.5807  1.7134
   35MOL   H11126699   3.194   4.979   5.255  0.7967 -0.1527  0.5444
   35MOL   H11226700   3.214   5.207   5.052  0.5270  0.6213 -0.2467
   35MOL   H11326701   3.102   4.929   5.030  1.1120 -0.7181 -1.8559
   35MOL   H11426702   3.000   5.064   5.065  1.4982  0.9832 -0.3052
   35MOL   H11526703   3.196   5.159   4.662  0.8313 -0.5725 -1.1392
   35MOL   H11626704   3.243   5.171   4.426 -0.3356 -0.7872  0.1939
   35MOL   H11726705   2.872   4.936   4.355 -1.3266 -0.9948  1.6901
   35MOL   H11826706   2.855   4.908   4.600 -0.7012  0.1383 -2.4297
   35MOL   C11926707   3.290   5.052   3.660 -0.8084 -0.1750  0.2358
   35MOL   C12026708   3.242   5.031   3.802  0.3643 -0.2629  0.3811
   35MOL   C12126709   3.158   4.903   3.815 -0.2006 -0.3136  0.6848
   35MOL   C12226710   3.112   4.883   3.964  0.0861  0.3343  0.4569
   35MOL   O12326711   3.030   4.993   4.004 -0.5700 -0.1919 -0.3225
   35MOL   C12426712   3.034   4.934   3.727 -0.4694  0.7773  0.1882
   35MOL   C12526713   3.068   4.956   3.579  0.0004  0.3522 -0.4691
   35MOL   C12626714   3.172   5.069   3.560 -0.2131  0.0977 -0.5150
   35MOL   C12726715   3.230   5.069   3.425  1.0930  0.0722  0.7636
   35MOL   O12826716   3.125   5.104   3.342 -0.3980 -0.2214 -0.2804
   35MOL   C12926717   3.100   5.031   3.229  0.1828  0.0061  0.5160
   35MOL   O13026718   3.191   4.967   3.167 -0.6483  0.1549  0.1121
   35MOL   C13126719   2.965   5.061   3.170 -0.5535  0.4859 -0.2419
   35MOL   C13226720   2.921   4.989   3.061  0.5764  0.3167 -0.0142
   35MOL   C13326721   2.796   5.024   3.000  0.1760  0.0515  0.1701
   35MOL   C13426722   2.720   5.131   3.057  0.6183 -0.4061  0.1322
   35MOL   C13526723   2.591   5.186   3.001 -0.3244 -0.3756  0.7117
   35MOL   O13626724   2.510   5.259   3.052 -0.1495 -0.9398  0.2333
   35MOL   O13726725   2.577   5.134   2.880  0.1478  0.2037 -0.5206
   35MOL   C13826726   2.764   5.192   3.175  0.5111  0.7672  0.3121
   35MOL   C13926727   2.890   5.156   3.238  0.4551 -0.1699  0.0605
   35MOL   H14026728   3.351   5.142   3.658  2.4277 -2.2601 -0.5776
   35MOL   H14126729   3.359   4.971   3.633 -0.5582 -0.3481  1.3673
   35MOL   H14226730   3.335   5.022   3.858  1.1159 -0.4783 -0.8894
   35MOL   H14326731   3.201   5.122   3.847  0.7785 -0.9360  2.1758
   35MOL   H14426732   3.220   4.819   3.785  1.2255  0.2114  2.0834
   35MOL   H14526733   3.069   4.783   3.971  1.4616 -0.1871  1.7757
   35MOL   H14626734   3.200   4.868   4.026  0.2739  0.4375  0.2170
   35MOL   H14726735   2.965   4.849   3.729 -3.2974  2.8910 -2.9718
   35MOL   H14826736   2.965   5.013   3.756 -3.0108 -1.0272 -0.7118
   35MOL   H14926737   2.977   4.980   3.523 -0.0947 -0.2707 -0.5865
   35MOL   H15026738   3.122   4.871   3.536  3.1021  2.7159 -1.4277
   35MOL   H15126739   3.114   5.160   3.576 -0.6648 -0.3566  0.4597
   35MOL   H15226740   3.312   5.141   3.419  2.8689 -2.0540 -1.1194
   35MOL   H15326741   3.269   4.969   3.411  1.6880  0.8304 -3.5110
   35MOL   H15426742   2.983   4.915   3.013 -0.9966 -0.9429 -0.1412
   35MOL   H15526743   2.761   4.962   2.918 -3.2710  0.8784  0.9795
   35MOL   H15626744   2.705   5.272   3.218  0.8729  0.2034  1.8812
   35MOL   H15726745   2.927   5.221   3.317 -1.5194  1.3465 -0.2327
   35MOL   C15826746   2.070   5.058   2.556 -0.3651  0.1403 -0.7192
   35MOL   C15926747   2.172   5.044   2.671  0.2710 -0.2305 -0.6300
   35MOL   C16026748   2.276   5.153   2.667  0.1877 -0.6183  0.9642
   35MOL   C16126749   2.359   5.138   2.794  0.0051  0.1921 -0.2664
   35MOL   O16226750   2.483   5.206   2.788  0.5919 -0.6662  0.2845
   35MOL   C16326751   2.361   5.142   2.534 -0.2190 -0.7397  0.1445
   35MOL   C16426752   2.266   5.153   2.416 -0.2436  0.0068 -0.2944
   35MOL   C16526753   2.155   5.041   2.423  0.1133 -0.1468  0.0238
   35MOL   C16626754   2.080   5.052   2.295  0.7040 -0.7812 -0.2668
   35MOL   O16726755   1.961   4.980   2.283 -0.1793  0.1647  0.3987
   35MOL   C16826756   1.878   4.997   2.188  0.8816  0.2616  0.1776
   35MOL   O16926757   1.890   5.079   2.102 -0.3524  0.7754  0.3677
   35MOL   C17026758   1.757   4.910   2.198  0.1331  0.5080  0.1797
   35MOL   C17126759   1.736   4.814   2.301  0.0595  0.1846  0.0757
   35MOL   C17226760   1.630   4.722   2.295 -0.0700 -0.7326  0.2934
   35MOL   C17326761   1.547   4.719   2.184  0.2767 -0.0718  0.0651
   35MOL   C17426762   1.455   4.610   2.158  0.0067  0.1292  0.3106
   35MOL   O17526763   1.450   4.508   2.229  0.0839  0.1612  0.0168
   35MOL   O17626764   1.393   4.621   2.043 -0.0191  0.1156 -0.6568
   35MOL   C17726765   1.571   4.821   2.082  0.9131  0.2325  0.0726
   35MOL   C17826766   1.675   4.913   2.084 -0.6754  0.2338 -0.9097
   35MOL   H17926767   1.995   4.980   2.568 -0.0001  0.1567  2.0466
   35MOL   H18026768   2.015   5.152   2.563 -2.4402 -1.1826  1.3123
   35MOL   H18126769   2.114   5.050   2.763 -0.1659 -1.4080 -0.8221
   35MOL   H18226770   2.215   4.944   2.668  0.4613 -0.1286 -1.2894
   35MOL   H18326771   2.227   5.250   2.665  1.2371 -0.1151 -0.5751
   35MOL   H18426772   2.302   5.179   2.877 -1.8244 -1.0877 -0.8596
   35MOL   H18526773   2.374   5.032   2.817  1.6306  0.7312  1.2263
   35MOL   H18626774   2.433   5.223   2.531  0.5535 -1.4406 -0.4082
   35MOL   H18726775   2.407   5.043   2.527  0.4661 -0.5079  1.2391
   35MOL   H18826776   2.326   5.138   2.326  1.0042  2.4931  0.0669
   35MOL   H18926777   2.220   5.251   2.407 -0.6059 -0.2530 -1.3074
   35MOL   H19026778   2.200   4.942   2.427  1.4247  0.4023 -0.9251
   35MOL   H19126779   2.054   5.157   2.280  0.4801 -1.0819 -2.1179
   35MOL   H19226780   2.143   5.008   2.217  0.8057 -1.0102 -0.0542
   35MOL   H19326781   1.808   4.807   2.381  1.2678  0.2065 -1.0125
   35MOL   H19426782   1.616   4.641   2.365 -2.7156 -1.3553 -0.8711
   35MOL   H19526783   1.499   4.827   2.002  0.6201  0.4721  0.3513
   35MOL   H19626784   1.687   4.989   2.008  0.5523  0.5247 -0.4292
   35MOL   C19726785   1.537   4.199   1.759 -0.3868 -0.0837 -0.5199
   35MOL   C19826786   1.425   4.303   1.755  0.2410  0.3821 -0.2963
   35MOL   C19926787   1.403   4.361   1.901  0.2074 -0.1165 -0.5278
   35MOL   C20026788   1.300   4.467   1.903  0.6067  0.0330  0.2959
   35MOL   O20126789   1.278   4.523   2.029  0.1469 -0.4208  0.2135
   35MOL   C20226790   1.373   4.248   2.003  0.2559 -0.3639 -0.1663
   35MOL   C20326791   1.482   4.139   1.998 -0.4760 -0.2359  0.1160
   35MOL   C20426792   1.505   4.084   1.859  0.7298 -0.1178  0.0924
   35MOL   C20526793   1.608   3.970   1.851  0.0544 -0.1871  0.1504
   35MOL   O20626794   1.587   3.876   1.750  0.2773 -0.3692  0.2006
   35MOL   C20726795   1.526   3.752   1.775  0.8886 -0.2056  0.0927
   35MOL   O20826796   1.481   3.712   1.881  0.0882 -0.2173 -0.2132
   35MOL   C20926797   1.519   3.665   1.646 -0.1999 -0.1641  0.5925
   35MOL   C21026798   1.592   3.699   1.532  0.4752  0.1347  0.0514
   35MOL   C21126799   1.606   3.606   1.423 -0.3896  0.2579  0.8134
   35MOL   C21226800   1.523   3.493   1.415 -0.0419 -0.5004  0.1086
   35MOL   C21326801   1.536   3.397   1.306 -0.4162 -0.0467  0.8445
   35MOL   O21426802   1.476   3.290   1.292  0.1637 -0.1171  0.3436
   35MOL   O21526803   1.631   3.429   1.222 -0.5995 -0.3093  0.3197
   35MOL   C21626804   1.433   3.474   1.526 -0.0333 -0.3356  0.0178
   35MOL   C21726805   1.433   3.552   1.640 -0.7442 -0.6940 -0.0973
   35MOL   H21826806   1.555   4.160   1.659 -0.4075  1.5584 -1.1651
   35MOL   H21926807   1.634   4.240   1.788 -0.5867 -0.3518  0.5750
   35MOL   H22026808   1.465   4.373   1.681 -0.0099  2.0866  1.1476
   35MOL   H22126809   1.335   4.261   1.710 -0.1572  0.5611  0.3250
   35MOL   H22226810   1.492   4.410   1.940  0.8366 -0.7065 -1.2303
   35MOL   H22326811   1.315   4.547   1.830 -4.2225 -2.2144 -3.4481
   35MOL   H22426812   1.210   4.421   1.863  1.1352  0.1891 -1.1054
   35MOL   H22526813   1.366   4.290   2.103 -0.9865  0.5582 -0.6309
   35MOL   H22626814   1.282   4.192   1.983  0.7777 -0.9659 -0.8765
   35MOL   H22726815   1.450   4.062   2.068 -1.3319 -0.8968 -0.9928
   35MOL   H22826816   1.575   4.176   2.042 -0.8034  0.5028  0.1977
   35MOL   H22926817   1.413   4.036   1.826  1.4326 -0.9461 -0.6873
   35MOL   H23026818   1.712   4.002   1.847  0.3956 -1.3797 -1.0554
   35MOL   H23126819   1.603   3.912   1.943  0.3648  1.3614  1.1558
   35MOL   H23226820   1.665   3.779   1.525 -1.0811  1.6087  0.4374
   35MOL   H23326821   1.676   3.629   1.344  0.1485  1.8460  1.7178
   35MOL   H23426822   1.375   3.383   1.530  0.1900 -0.4225  1.6717
   35MOL   H23526823   1.365   3.528   1.721 -0.9607 -0.3139 -0.1652
   35MOL   C23626824   1.989   3.641   1.105 -0.0946 -0.5133 -0.6710
   35MOL   C23726825   1.886   3.528   1.084  0.0153  0.1971  0.3491
   35MOL   C23826826   1.893   3.403   1.183 -0.7858  0.3684 -0.1467
   35MOL   C23926827   1.801   3.283   1.139 -0.0886  0.2081 -0.2207
   35MOL   O24026828   1.664   3.317   1.124  0.7692  0.3779  0.5449
   35MOL   C24126829   2.041   3.367   1.195  0.5407  0.4326  0.3872
   35MOL   C24226830   2.138   3.491   1.235  0.3628  0.0999 -0.0831
   35MOL   C24326831   2.139   3.595   1.119  1.1323 -0.0760  0.4299
   35MOL   C24426832   2.242   3.704   1.138  0.4821 -0.5210 -0.6514
   35MOL   O24526833   2.255   3.774   1.017 -0.2446 -0.5807  0.1801
   35MOL   C24626834   2.256   3.907   1.016 -0.0868  0.7917 -1.1252
   35MOL   O24726835   2.231   3.979   1.115  0.0961  0.6379 -0.4379
   35MOL   C24826836   2.297   3.969   0.888  0.5215  0.3413 -1.0036
   35MOL   C24926837   2.328   4.105   0.874 -0.0385  0.3758  0.1923
   35MOL   C25026838   2.382   4.158   0.759  0.0074  0.2553 -0.0088
   35MOL   C25126839   2.385   4.075   0.641  0.5353  0.1757  0.1217
   35MOL   C25226840   2.413   4.141   0.508  0.0945  0.1846  0.0007
   35MOL   O25326841   2.451   4.257   0.497  0.4332 -0.1158 -0.0369
   35MOL   O25426842   2.387   4.062   0.400 -0.4151  0.0901 -0.5054
   35MOL   C25526843   2.340   3.943   0.649 -0.2976  0.0624  0.2457
   35MOL   C25626844   2.296   3.890   0.772 -0.3226  0.8402 -0.1924
   35MOL   H25726845   1.992   3.710   1.021  3.2581  1.6892  1.1491
   35MOL   H25826846   1.964   3.703   1.191  0.1201  1.5090 -2.0353
   35MOL   H25926847   1.793   3.585   1.071 -0.3027 -0.6868 -1.4415
   35MOL   H26026848   1.902   3.478   0.989 -2.0125 -0.5003  0.3391
   35MOL   H26126849   1.873   3.432   1.286 -1.1566  0.4702 -0.2495
   35MOL   H26226850   1.835   3.229   1.051 -1.1486 -1.2966  0.2699
   35MOL   H26326851   1.811   3.208   1.217 -0.6393 -0.1154 -0.4572
   35MOL   H26426852   2.054   3.291   1.272 -1.9436  1.1290  1.5505
   35MOL   H26526853   2.083   3.336   1.099 -1.4199  1.3618 -0.7891
   35MOL   H26626854   2.239   3.453   1.251  0.1990  0.8830  3.0801
   35MOL   H26726855   2.106   3.548   1.322  1.8571  0.8938 -0.0363
   35MOL   H26826856   2.153   3.530   1.032 -0.8526  0.8734 -0.6437
   35MOL   H26926857   2.202   3.755   1.226  0.0804  0.9853 -1.6829
   35MOL   H27026858   2.341   3.664   1.156 -0.2913 -1.8750  0.7312
   35MOL   H27126859   2.316   4.161   0.965 -3.8646  1.6150 -0.9697
   35MOL   H27226860   2.407   4.263   0.754  0.5243  0.0175 -3.3875
   35MOL   H27326861   2.327   3.876   0.565 -0.5074  1.0763 -0.5434
   35MOL   H27426862   2.258   3.789   0.772 -0.6526  0.9411  1.9131
   35MOL   C27526863   2.786   3.837   0.284  0.2454  0.3020  0.2261
   35MOL   C27626864   2.689   3.941   0.235 -0.3222 -0.3309  0.0309
   35MOL   C27726865   2.550   3.885   0.216  0.4011 -0.5974  0.0472
   35MOL   C27826866   2.447   3.998   0.185  0.1128  0.9266 -0.2146
   35MOL   O27926867   2.465   4.106   0.282 -0.0270  0.4644  0.0103
   35MOL   C28026868   2.557   3.768   0.119 -0.4389 -0.0834  0.6004
   35MOL   C28126869   2.661   3.668   0.159  0.2642  0.3983  0.0079
   35MOL   C28226870   2.795   3.723   0.181 -0.1361 -0.1544  0.6816
   35MOL   C28326871   2.889   3.605   0.227 -0.1630 -0.5648  0.6352
   35MOL   O28426872   3.010   3.660   0.282  0.8983 -0.3432  0.1533
   35MOL   C28526873   3.070   3.594   0.379  0.7800  0.2262  0.2062
   35MOL   O28626874   3.042   3.477   0.412  0.2170 -0.3607  0.3721
   35MOL   C28726875   3.187   3.671   0.444  0.7613  0.4855  0.3490
   35MOL   C28826876   3.228   3.797   0.393 -0.0035 -0.6130  0.3081
   35MOL   C28926877   3.318   3.875   0.469 -0.3838  0.5658 -0.1385
   35MOL   C29026878   3.366   3.834   0.600  0.7204 -0.2657 -0.1001
   35MOL   C29126879   3.457   3.921   0.687 -0.4232  0.4313 -0.3823
   35MOL   O29226880   3.500   3.896   0.799 -0.1390  0.3016 -0.0377
   35MOL   O29326881   3.469   4.039   0.629  0.2723 -0.1285 -0.3080
   35MOL   C29426882   3.330   3.704   0.643  0.5960 -0.0797  0.8770
   35MOL   C29526883   3.246   3.620   0.562  0.2887  0.7566  0.0440
   35MOL   H29626884   2.889   3.869   0.297  0.0869  0.3030  1.4877
   35MOL   H29726885   2.763   3.809   0.387  0.5802 -0.2104  0.1670
   35MOL   H29826886   2.675   4.027   0.299  0.0220  0.4923 -0.9763
   35MOL   H29926887   2.724   3.985   0.142 -1.3654  1.4364  0.4670
   35MOL   H30026888   2.520   3.842   0.312  0.2644 -1.4776 -0.3811
   35MOL   H30126889   2.455   4.038   0.083 -0.9141 -0.3630 -0.8117
   35MOL   H30226890   2.350   3.949   0.192 -0.6654  2.2152 -1.5307
   35MOL   H30326891   2.465   3.715   0.095 -0.1688 -0.0520 -0.5403
   35MOL   H30426892   2.584   3.808   0.021 -0.7104  0.2185  0.6483
   35MOL   H30526893   2.672   3.587   0.087  0.6763 -0.8139  1.4173
   35MOL   H30626894   2.627   3.615   0.248 -1.6258 -0.5250 -1.2284
   35MOL   H30726895   2.838   3.748   0.084  0.3138 -0.8770  0.6887
   35MOL   H30826896   2.840   3.560   0.314  2.0266 -1.0096  1.6779
   35MOL   H30926897   2.887   3.521   0.158 -2.6209  1.8750 -2.3814
   35MOL   H31026898   3.197   3.843   0.300 -1.9272 -0.1446  1.1428
   35MOL   H31126899   3.353   3.968   0.427 -2.4879  1.4361  0.0097
   35MOL   H31226900   3.364   3.674   0.740 -0.1375 -0.3026  1.0706
   35MOL   H31326901   3.220   3.520   0.594  0.2378  1.2764  1.6552
   35MOL   C31426902   3.795   4.101   1.021 -0.1958 -0.0775  0.3637
   35MOL   C31526903   3.723   4.163   0.911 -0.2473 -0.1260 -0.6619
   35MOL   C31626904   3.760   4.099   0.770 -0.0468 -0.0514  0.1869
   35MOL   C31726905   3.665   4.163   0.660 -0.4199 -0.1734 -0.4790
   35MOL   O31826906   3.534   4.149   0.707  0.4607  0.3378  0.1985
   35MOL   C31926907   3.909   4.096   0.746 -0.3497  0.8098 -0.3829
   35MOL   C32026908   3.979   4.022   0.859  0.6958 -0.4674  0.1323
   35MOL   C32126909   3.943   4.081   1.000 -0.6039  0.7661  0.0868
   35MOL   C32226910   4.006   4.001   1.118 -0.0314  0.3382  0.1233
   35MOL   O32326911   4.140   4.022   1.104  0.6100 -0.0193  0.3640
   35MOL   C32426912   4.221   3.941   1.165  0.0394 -0.9919  0.0615
   35MOL   O32526913   4.182   3.839   1.225 -0.2132 -0.6594 -0.8063
   35MOL   C32626914   4.364   3.987   1.165 -0.8218  0.3555  0.7416
   35MOL   C32726915   4.462   3.895   1.218  0.3021 -0.0445  0.0419
   35MOL   C32826916   4.596   3.932   1.218 -1.3230 -0.6007  0.9154
   35MOL   C32926917   4.632   4.057   1.161 -0.4437  0.6093 -0.2795
   35MOL   C33026918   4.776   4.096   1.150  0.3035 -0.9389 -0.8957
   35MOL   O33126919   4.815   4.205   1.103 -0.1380 -0.2679 -0.1241
   35MOL   O33226920   4.856   3.993   1.187 -0.5323  0.1051  0.3722
   35MOL   C33326921   4.537   4.145   1.110  0.3617 -0.4837  0.4211
   35MOL   C33426922   4.399   4.112   1.109 -0.4434  0.3631  0.5144
   35MOL   H33526923   3.787   4.164   1.110 -0.1330 -1.3990  1.3144
   35MOL   H33626924   3.757   4.003   1.051  1.5130 -1.2271 -1.1357
   35MOL   H33726925   3.619   4.148   0.939  0.4483 -1.6061  1.2084
   35MOL   H33826926   3.747   4.268   0.923 -3.2943  1.0327 -3.8033
   35MOL   H33926927   3.737   3.992   0.777  0.4202 -0.2791 -1.5182
   35MOL   H34026928   3.690   4.267   0.637  0.9230 -0.3370  0.1714
   35MOL   H34126929   3.679   4.106   0.568 -0.8036 -1.2857  0.1460
   35MOL   H34226930   3.939   4.050   0.651  3.2641 -0.9014  1.4656
   35MOL   H34326931   3.946   4.198   0.737  1.3347  0.2606  0.1361
   35MOL   H34426932   4.088   4.023   0.858  0.8057 -4.6152 -0.2814
   35MOL   H34526933   3.949   3.917   0.864 -0.7904 -0.0629 -0.0371
   35MOL   H34626934   3.983   4.182   0.996 -0.5818  0.7431 -0.3822
   35MOL   H34726935   3.980   4.045   1.214 -1.4908  1.7489 -0.8960
   35MOL   H34826936   3.983   3.894   1.119 -1.6164  0.6557 -0.3159
   35MOL   H34926937   4.437   3.803   1.269 -0.5706 -0.3230 -0.8831
   35MOL   H35026938   4.671   3.862   1.249  1.5630  1.1092 -1.9468
   35MOL   H35126939   4.576   4.238   1.073 -1.1188 -0.6302 -1.5784
   35MOL   H35226940   4.324   4.175   1.063  0.1477  0.9918  0.4173
   35MOL   C35326941   5.272   4.253   0.900  0.1753 -0.3556  0.4209
   35MOL   C35426942   5.144   4.193   0.970  0.6793 -0.0219  0.0961
   35MOL   C35526943   5.163   4.037   0.982  0.5275 -0.6200 -0.1195
   35MOL   C35626944   5.041   3.972   1.039  0.3687 -0.8415  0.2899
   35MOL   O35726945   5.001   4.029   1.166  0.4492 -0.3437  0.0310
   35MOL   C35826946   5.199   3.979   0.844 -0.5382  0.2070 -0.2540
   35MOL   C35926947   5.329   4.042   0.793  0.4680  0.1516 -0.4614
   35MOL   C36026948   5.312   4.192   0.764 -0.5938 -0.1295  0.0187
   35MOL   C36126949   5.436   4.259   0.697 -0.1464  0.2752  0.1062
   35MOL   O36226950   5.394   4.380   0.656 -0.0844 -0.1180  0.4731
   35MOL   C36326951   5.475   4.487   0.653  0.1694 -0.7667 -0.2542
   35MOL   O36426952   5.587   4.483   0.697 -0.3346  0.0593  0.1157
   35MOL   C36526953   5.408   4.609   0.601 -0.4652  0.0873 -0.2085
   35MOL   C36626954   5.479   4.732   0.598  0.1774  0.6412 -0.2878
   35MOL   C36726955   5.424   4.858   0.574  0.8111  0.5247 -0.3462
   35MOL   C36826956   5.290   4.857   0.522 -0.2856 -0.6995  0.4863
   35MOL   C36926957   5.223   4.983   0.464  0.0869  0.4019  0.1774
   35MOL   O37026958   5.285   5.085   0.455 -0.0897  0.3177 -0.1428
   35MOL   O37126959   5.094   4.972   0.439  0.1923 -0.1829 -0.1562
   35MOL   C37226960   5.217   4.737   0.518 -0.1216  0.1286  0.7777
   35MOL   C37326961   5.272   4.612   0.552 -0.7589 -0.3004  0.1645
   35MOL   H37426962   5.241   4.357   0.892  0.7965 -0.0562  1.7396
   35MOL   H37526963   5.345   4.249   0.980 -0.9975  1.5378  1.6176
   35MOL   H37626964   5.135   4.226   1.073  2.9737  0.8138  0.0673
   35MOL   H37726965   5.064   4.231   0.906  0.9511 -1.0485 -0.8866
   35MOL   H37826966   5.241   4.012   1.054  0.5387 -2.1922 -0.6547
   35MOL   H37926967   4.973   3.976   0.954  0.2805 -2.6205  0.2651
   35MOL   H38026968   5.055   3.865   1.052 -1.5916 -1.0796  0.6741
   35MOL   H38126969   5.218   3.873   0.860  0.1917  0.2364 -0.9218
   35MOL   H38226970   5.121   4.007   0.773 -0.8941  1.3455  0.5572
   35MOL   H38326971   5.350   3.997   0.696  0.4164  0.1619 -0.4771
   35MOL   H38426972   5.408   4.016   0.863  0.2003  0.5103 -0.0191
   35MOL   H38526973   5.233   4.192   0.689 -0.4328  0.2079 -0.1504
   35MOL   H38626974   5.516   4.273   0.769 -2.0079 -2.0279  2.7463
   35MOL   H38726975   5.481   4.198   0.619 -4.3076 -1.8153 -0.8000
   35MOL   H38826976   5.575   4.741   0.645 -0.7555 -1.2477  2.0799
   35MOL   H38926977   5.485   4.946   0.588  0.0163  0.7885  1.5928
   35MOL   H39026978   5.110   4.735   0.507 -0.1943  0.3295  1.4001
   35MOL   H39126979   5.215   4.521   0.551 -0.7921 -0.3068  1.5747
   35MOL   C39226980   4.689   4.827   0.312 -0.9334  0.1094 -0.2473
   35MOL   C39326981   4.836   4.867   0.311 -1.1818  0.5764 -0.1078
   35MOL   C39426982   4.861   4.986   0.219  0.2879 -0.5614 -0.5779
   35MOL   C39526983   5.003   5.033   0.225  0.3243  0.6273  0.4590
   35MOL   O39626984   5.044   5.092   0.353 -0.3664  0.0591  0.2447
   35MOL   C39726985   4.819   4.948   0.078  0.3330 -0.1922 -0.0173
   35MOL   C39826986   4.676   4.899   0.079  0.6468 -0.3752  0.4494
   35MOL   C39926987   4.641   4.783   0.179  0.1270 -0.0697  0.1753
   35MOL   C40026988   4.502   4.744   0.166 -0.7209 -0.6806  0.0464
   35MOL   O40126989   4.482   4.699   0.034  0.5852 -0.0041  0.2848
   35MOL   C40226990   4.384   4.622   8.035  0.7005 -0.5002  0.2694
   35MOL   O40326991   4.278   4.611   0.063  0.4728 -0.0176 -0.2352
   35MOL   C40426992   4.394   4.561   7.893  0.6078  0.2340  0.1997
   35MOL   C40526993   4.506   4.593   7.812 -0.0949 -0.5465 -0.2907
   35MOL   C40626994   4.528   4.530   7.689  0.0392 -0.1707  0.0727
   35MOL   C40726995   4.437   4.433   7.639 -0.2713  0.6887  0.3775
   35MOL   C40826996   4.456   4.374   7.507  0.3149 -0.4889  0.6875
   35MOL   O40926997   4.386   4.282   7.464  0.0342 -1.0414  0.0357
   35MOL   O41026998   4.561   4.427   7.441 -0.0173  0.3077  0.5464
   35MOL   C41126999   4.322   4.410   7.719  0.3746 -0.2966  0.0338
   35MOL   C41227000   4.292   4.479   7.834 -0.4047 -0.0934 -0.0308
   35MOL   H41327001   4.675   4.753   0.391  1.9155 -0.0315  0.1893
   35MOL   H41427002   4.638   4.921   0.334  0.0499  0.6265 -0.1280
   35MOL   H41527003   4.863   4.882   0.415  0.9480  0.6503 -0.6532
   35MOL   H41627004   4.880   4.769   0.290  0.5364  0.9637  1.5384
   35MOL   H41727005   4.799   5.072   0.246 -2.3279 -2.3240 -0.7920
   35MOL   H41827006   5.066   4.949   0.196 -2.4193 -1.0038 -0.9965
   35MOL   H41927007   5.025   5.111   0.152 -2.8158  0.8150 -0.3471
   35MOL   H42027008   4.832   5.040   0.021 -3.0881 -0.6260 -1.5778
   35MOL   H42127009   4.884   4.870   0.037  0.4939 -0.9733  1.6868
   35MOL   H42227010   4.665   4.857   8.014 -0.4365 -2.0832  1.2648
   35MOL   H42327011   4.613   4.984   0.103  1.0066  1.1440 -3.5944
   35MOL   H42427012   4.698   4.697   0.146  1.3411  0.2359  1.4006
   35MOL   H42527013   4.476   4.668   0.241 -0.8320 -2.4931 -1.7750
   35MOL   H42627014   4.432   4.824   0.190  0.3074  0.8297 -1.8742
   35MOL   H42727015   4.582   4.663   7.844 -2.2826  1.3941  0.8960
   35MOL   H42827016   4.614   4.559   7.630 -0.3578  0.3680 -0.2403
   35MOL   H42927017   4.248   4.348   7.671  1.2539 -1.1677 -0.2124
   35MOL   H43027018   4.199   4.451   7.880 -1.0468  2.8770  0.5857
   35MOL   C43127019   4.746   4.356   6.917  0.6490  0.0222 -0.5138
   35MOL   C43227020   4.710   4.379   7.065 -1.0299 -0.4518 -0.4826
   35MOL   C43327021   4.721   4.256   7.154  0.2158 -0.4266  0.1493
   35MOL   C43427022   4.684   4.283   7.304 -0.1320 -0.5597  0.4326
   35MOL   O43527023   4.576   4.369   7.305  0.3574  0.7524 -0.2349
   35MOL   C43627024   4.651   4.134   7.093 -0.1534 -0.2252  0.1920
   35MOL   C43727025   4.691   4.109   6.949  0.4569 -0.0305 -0.5751
   35MOL   C43827026   4.667   4.232   6.864 -0.2592  0.4658 -0.2908
   35MOL   C43927027   4.685   4.210   6.712  0.0313  0.0468  0.5181
   35MOL   O44027028   4.832   4.191   6.690  0.3944  0.2264  0.1489
   35MOL   C44127029   4.898   4.289   6.634  0.2305  0.0970 -0.4206
   35MOL   O44227030   4.849   4.388   6.576  0.4019  0.6171  0.4314
   35MOL   C44327031   5.043   4.264   6.644 -0.2477 -0.8903  0.6166
   35MOL   C44427032   5.124   4.367   6.595  0.4734 -0.3868  0.1222
   35MOL   C44527033   5.266   4.357   6.605  0.2896  0.1747  0.9361
   35MOL   C44627034   5.320   4.242   6.667  0.1546  0.0660 -0.1400
   35MOL   C44727035   5.471   4.224   6.669 -0.1145 -0.3863  0.2441
   35MOL   O44827036   5.547   4.292   6.599 -0.6094  0.1763 -0.1943
   35MOL   O44927037   5.512   4.138   6.759  0.0182  0.0196 -0.5135
   35MOL   C45027038   5.236   4.142   6.721  0.0792  0.3336 -0.1360
   35MOL   C45127039   5.099   4.156   6.712 -0.1018  0.0976  0.4935
   35MOL   H45227040   4.729   4.442   6.853 -0.2373  0.4004  0.2105
   35MOL   H45327041   4.853   4.342   6.910  0.9015  1.2171  0.7821
   35MOL   H45427042   4.774   4.463   7.093  0.1818 -1.6407  0.3244
   35MOL   H45527043   4.612   4.427   7.064 -0.9665 -0.3239 -0.4737
   35MOL   H45627044   4.825   4.225   7.151  0.4491  0.2787  1.0773
   35MOL   H45727045   4.656   4.189   7.353 -1.2733 -1.5212 -2.0222
   35MOL   H45827046   4.763   4.327   7.366  0.6663 -0.8321 -0.3845
   35MOL   H45927047   4.664   4.045   7.153  0.0963 -0.3345 -0.0258
   35MOL   H46027048   4.545   4.160   7.093  0.2325  1.5331  1.9416
   35MOL   H46127049   4.634   4.023   6.914 -0.0251  0.9506 -2.2838
   35MOL   H46227050   4.793   4.072   6.953  0.3478 -0.4421 -1.4041
   35MOL   H46327051   4.561   4.249   6.880 -0.2890  0.4095 -0.4341
   35MOL   H46427052   4.618   4.132   6.678 -1.8254  0.9470  1.9722
   35MOL   H46527053   4.662   4.299   6.654  1.2053 -0.3013 -0.5030
   35MOL   H46627054   5.093   4.457   6.545 -1.9564 -0.3950  1.5552
   35MOL   H46727055   5.323   4.431   6.550 -0.6915 -0.5344 -1.1123
   35MOL   H46827056   5.272   4.054   6.772  0.1565  1.0050  0.9970
   35MOL   H46927057   5.039   4.073   6.747  0.7241 -1.6211 -2.0333
   35MOL   C47027058   5.933   4.429   6.854  0.5783 -0.0212 -0.8322
   35MOL   C47127059   5.890   4.275   6.853  0.4105  0.3160 -0.0239
   35MOL   C47227060   5.747   4.259   6.921 -0.4928 -1.0658  0.5793
   35MOL   C47327061   5.707   4.112   6.890 -0.0145 -0.1473  0.1436
   35MOL   O47427062   5.654   4.102   6.759  0.1813 -0.4523  0.2341
   35MOL   C47527063   5.757   4.307   7.068 -0.0904 -1.0628 -0.0778
   35MOL   C47627064   5.791   4.455   7.059  0.5685 -0.2529 -0.4508
   35MOL   C47727065   5.934   4.473   7.003  1.4130 -0.1378  0.2972
   35MOL   C47827066   6.006   4.609   7.028 -0.2000  0.0356 -0.7658
   35MOL   O47927067   5.939   4.718   6.962 -0.3748  1.0051 -0.2800
   35MOL   C48027068   6.006   4.827   6.940 -0.4739 -0.0288 -1.0366
   35MOL   O48127069   6.111   4.862   6.998 -0.0562 -0.4204 -0.1016
   35MOL   C48227070   5.940   4.903   6.830 -0.8474 -0.5131 -0.3984
   35MOL   C48327071   5.974   5.044   6.819  0.6649  0.0270 -0.7827
   35MOL   C48427072   5.900   5.127   6.732  0.2625  0.2324  0.3960
   35MOL   C48527073   5.796   5.068   6.656  0.5425  0.3543  0.0117
   35MOL   C48627074   5.710   5.159   6.571  0.7063 -0.4789  0.1821
   35MOL   O48727075   5.593   5.137   6.531 -0.5010  0.5031  0.0563
   35MOL   O48827076   5.776   5.280   6.533  0.4213  0.5785  0.2550
   35MOL   C48927077   5.772   4.932   6.662  0.1228  0.3735  0.4158
   35MOL   C49027078   5.838   4.849   6.751  0.2987  0.0069  0.0517
   35MOL   H49127079   6.035   4.445   6.817 -0.1720  0.2864 -2.8411
   35MOL   H49227080   5.870   4.492   6.791  0.8309  0.6683 -0.3965
   35MOL   H49327081   5.887   4.235   6.752 -1.0176  2.1894 -0.7556
   35MOL   H49427082   5.966   4.223   6.911  1.2872  0.0801 -1.3614
   35MOL   H49527083   5.678   4.330   6.874 -0.8145 -2.5220 -1.2119
   35MOL   H49627084   5.793   4.046   6.903  0.6214  0.6994  0.2476
   35MOL   H49727085   5.625   4.082   6.956  0.6111  1.0922  1.5230
   35MOL   H49827086   5.662   4.295   7.120  0.1951 -0.4891  0.5806
   35MOL   H49927087   5.830   4.246   7.121  0.8667 -2.4118 -2.8058
   35MOL   H50027088   5.803   4.494   7.160  0.3337 -1.9552  0.2465
   35MOL   H50127089   5.725   4.523   7.006 -0.4678  0.0600  1.2114
   35MOL   H50227090   5.996   4.402   7.059  2.1513  0.3583  0.1149
   35MOL   H50327091   6.012   4.622   7.136  0.9029  1.1025 -0.9481
   35MOL   H50427092   6.111   4.607   7.000  0.4046 -1.3656  1.5193
   35MOL   H50527093   6.055   5.082   6.879  0.7597  0.7829 -1.3738
   35MOL   H50627094   5.914   5.234   6.726 -0.8415  0.4153  0.9871
   35MOL   H50727095   5.688   4.884   6.614  0.7117 -1.9086  1.5514
   35MOL   H50827096   5.812   4.744   6.751  4.1254 -1.0546  1.3758
   35MOL   C50927097   5.645   5.635   6.060  0.1096  0.2551 -0.5762
   35MOL   C51027098   5.736   5.528   6.131 -0.3333  0.3606 -0.6343
   35MOL   C51127099   5.673   5.492   6.264  0.0997  0.7713 -0.8642
   35MOL   C51227100   5.755   5.383   6.328 -1.4568 -0.4454 -0.8412
   35MOL   O51327101   5.696   5.373   6.454  0.1415  0.0443  0.2809
   35MOL   C51427102   5.654   5.622   6.349 -0.3771  0.2473  0.2118
   35MOL   C51527103   5.567   5.730   6.287  0.1474 -0.1565 -0.2444
   35MOL   C51627104   5.626   5.766   6.145 -0.4010 -0.0259 -0.1962
   35MOL   C51727105   5.534   5.862   6.073 -0.0310 -0.4691 -0.3697
   35MOL   O51827106   5.498   5.955   6.167 -0.3519 -0.0855 -0.7678
   35MOL   C51927107   5.463   6.079   6.132  0.1306 -0.2323  0.3023
   35MOL   O52027108   5.459   6.118   6.016 -0.0779 -0.3188 -0.0514
   35MOL   C52127109   5.415   6.164   6.246 -0.8143  0.4891 -0.1919
   35MOL   C52227110   5.406   6.300   6.233  0.5031 -0.3277  0.1952
   35MOL   C52327111   5.353   6.374   6.335  0.2505 -0.4173 -0.2116
   35MOL   C52427112   5.319   6.316   6.460 -0.5037 -0.5972 -0.2812
   35MOL   C52527113   5.253   6.392   6.567 -0.4728 -0.1547 -0.5829
   35MOL   O52627114   5.237   6.344   6.682 -0.3200 -0.6233 -0.4434
   35MOL   O52727115   5.188   6.505   6.520  0.4426 -0.3172 -0.1403
   35MOL   C52827116   5.346   6.178   6.481  0.7076  0.6826 -0.3082
   35MOL   C52927117   5.394   6.105   6.374  0.1216 -0.0687 -0.3395
   35MOL   H53027118   5.684   5.669   5.965  1.1196  0.2121 -0.1846
   35MOL   H53127119   5.550   5.584   6.042  0.5204 -0.8170  0.1896
   35MOL   H53227120   5.758   5.442   6.068  2.6324  0.3850  0.2693
   35MOL   H53327121   5.836   5.570   6.142 -1.0253  1.4584  1.9533
   35MOL   H53427122   5.575   5.450   6.241  0.0960 -1.4164  2.7724
   35MOL   H53527123   5.733   5.288   6.280  2.0099 -1.1428 -1.1903
   35MOL   H53627124   5.862   5.402   6.313 -1.6509 -1.3234 -3.5187
   35MOL   H53727125   5.607   5.604   6.445 -0.3501  0.7292  0.3167
   35MOL   H53827126   5.749   5.667   6.376 -0.1580  0.4009 -0.7755
   35MOL   H53927127   5.560   5.811   6.359  0.4210 -0.7807  0.4975
   35MOL   H54027128   5.464   5.693   6.281  0.1261 -0.0419 -0.6058
   35MOL   H54127129   5.723   5.816   6.144 -0.6167  0.3914 -2.5599
   35MOL   H54227130   5.580   5.912   5.988 -1.1305  0.5336 -0.3819
   35MOL   H54327131   5.450   5.806   6.032 -0.9039  1.2213 -0.9368
   35MOL   H54427132   5.433   6.353   6.143  3.2942  2.1985  2.4333
   35MOL   H54527133   5.334   6.479   6.316  1.3138  0.0438  1.1969
   35MOL   H54627134   5.320   6.119   6.568 -0.1707  0.2619 -0.8553
   35MOL   H54727135   5.407   5.999   6.391 -0.5925 -0.0927  0.0804
   35MOL   C54827136   4.680   6.551   6.841  0.1216 -0.1800 -0.3374
   35MOL   C54927137   4.735   6.547   6.703 -0.1459 -0.1283  0.5349
   35MOL   C55027138   4.887   6.577   6.717  0.9055  0.6569  0.9696
   35MOL   C55127139   4.962   6.555   6.588 -0.2936  0.2215 -1.0418
   35MOL   O55227140   5.104   6.579   6.618 -0.0221 -0.2477  0.1085
   35MOL   C55327141   4.913   6.721   6.763 -0.4653  0.3954 -0.7512
   35MOL   C55427142   4.844   6.734   6.901 -0.3691 -0.2161 -0.4736
   35MOL   C55527143   4.701   6.698   6.893  0.1702 -0.4265 -0.4142
   35MOL   C55627144   4.634   6.721   7.028 -0.1528  0.5879  0.4199
   35MOL   O55727145   4.683   6.622   7.118  0.1640 -0.3830 -0.1546
   35MOL   C55827146   4.751   6.657   7.230  0.4936 -0.1501 -0.1211
   35MOL   O55927147   4.757   6.775   7.273  0.3253 -0.0711 -0.3217
   35MOL   C56027148   4.825   6.538   7.296  0.4733 -0.5313 -0.1492
   35MOL   C56127149   4.897   6.559   7.418 -0.2108 -0.4809  0.2650
   35MOL   C56227150   4.965   6.457   7.481  0.1015  0.3309 -0.4904
   35MOL   C56327151   4.947   6.326   7.426 -0.5903  0.0307 -0.2435
   35MOL   C56427152   4.996   6.218   7.515  0.2829 -0.9221 -0.1273
   35MOL   O56527153   4.941   6.108   7.527  0.8662 -0.2619  0.4660
   35MOL   O56627154   5.110   6.251   7.584  0.1181 -0.2370  0.1915
   35MOL   C56727155   4.870   6.299   7.316 -0.6281 -0.4559 -0.0380
   35MOL   C56827156   4.818   6.411   7.243  0.1896  0.2605 -0.0860
   35MOL   H56927157   4.573   6.527   6.843  0.1584 -0.2876  0.7166
   35MOL   H57027158   4.734   6.476   6.900 -2.1902 -1.6321  0.0029
   35MOL   H57127159   4.721   6.446   6.666  0.3933 -0.2962  0.7711
   35MOL   H57227160   4.684   6.606   6.628 -2.0352 -2.4542 -0.0603
   35MOL   H57327161   4.937   6.501   6.777 -0.2443 -0.4995  0.4819
   35MOL   H57427162   4.940   6.454   6.552  0.3908 -0.7800  1.2663
   35MOL   H57527163   4.929   6.622   6.509 -0.0022 -0.6694 -1.9305
   35MOL   H57627164   5.016   6.750   6.785 -0.2528 -0.2568 -0.8822
   35MOL   H57727165   4.872   6.795   6.694 -1.7346 -0.3557 -0.8169
   35MOL   H57827166   4.861   6.836   6.936  3.4840 -0.8242 -0.3570
   35MOL   H57927167   4.895   6.667   6.970 -0.7257 -1.3410 -1.2880
   35MOL   H58027168   4.664   6.765   6.816  2.5935  1.2037 -0.2323
   35MOL   H58127169   4.646   6.823   7.063 -0.8586  0.0816  2.1876
   35MOL   H58227170   4.529   6.691   7.038  0.6958 -2.0358  1.9991
   35MOL   H58327171   4.900   6.660   7.457  0.0359 -0.9204  1.4009
   35MOL   H58427172   5.008   6.478   7.578 -1.7284 -1.3257  0.7025
   35MOL   H58527173   4.867   6.198   7.278  2.5633 -0.1302 -1.3047
   35MOL   H58627174   4.755   6.390   7.158 -3.0481  1.5240  1.9401
   35MOL   C58727175   5.291   6.282   0.083  0.5482  0.0806 -0.1672
   35MOL   C58827176   5.223   6.179   8.031 -0.1728 -0.4510  0.2708
   35MOL   C58927177   5.199   6.224   7.886  0.6313 -0.2400  0.3332
   35MOL   C59027178   5.144   6.115   7.783  0.2937 -0.2257 -0.1251
   35MOL   O59127179   5.185   6.146   7.648 -0.0492  0.4897 -0.1214
   35MOL   C59227180   5.117   6.354   7.897  0.2060 -0.3357 -0.3210
   35MOL   C59327181   5.203   6.456   7.966  0.8363  0.3216  0.6385
   35MOL   C59427182   5.230   6.426   0.081 -0.3117  0.2801 -0.5823
   35MOL   C59527183   5.311   6.528   0.160 -0.3289 -0.6905  0.0889
   35MOL   O59627184   5.256   6.659   0.153 -0.1891  0.3440 -0.0750
   35MOL   C59727185   5.186   6.699   0.264 -0.2849 -0.0147 -0.0983
   35MOL   O59827186   5.178   6.638   0.367  0.3243 -0.2123 -0.3383
   35MOL   C59927187   5.125   6.834   0.241  0.0810 -0.8565  0.0783
   35MOL   C60027188   5.123   6.911   0.118  0.4706  0.9112 -0.7563
   35MOL   C60127189   5.047   7.029   0.098 -0.6342  0.7406  0.4212
   35MOL   C60227190   4.966   7.080   0.203 -0.1134 -0.2849  0.3021
   35MOL   C60327191   4.902   7.208   0.200  0.3679 -0.2531  0.1618
   35MOL   O60427192   4.863   7.250   0.094  0.2833  0.0841 -0.0312
   35MOL   O60527193   4.895   7.272   0.321  0.3634  0.0540  0.4525
   35MOL   C60627194   4.971   7.011   0.330  0.2034  0.3635  0.5885
   35MOL   C60727195   5.039   6.880   0.345  0.2046 -0.3464  0.3071
   35MOL   H60827196   5.285   6.241   0.184 -1.7582  1.2061  0.1767
   35MOL   H60927197   5.399   6.290   0.068  0.3968 -0.7999 -1.7976
   35MOL   H61027198   5.283   6.088   8.031 -0.5196 -0.8010 -4.0426
   35MOL   H61127199   5.128   6.147   0.036 -0.4881 -2.1651 -1.7470
   35MOL   H61227200   5.296   6.254   7.846  0.6016 -1.3728 -0.6264
   35MOL   H61327201   5.182   6.018   7.813  0.5422 -0.8493 -2.3905
   35MOL   H61427202   5.036   6.105   7.781  0.2385  0.1583  0.4782
   35MOL   H61527203   5.084   6.377   7.796  0.8088 -2.6575 -1.0867
   35MOL   H61627204   5.019   6.350   7.945 -0.5484  0.4019 -1.7671
   35MOL   H61727205   5.161   6.557   7.968  0.7788  0.2909  1.3530
   35MOL   H61827206   5.298   6.470   7.915  0.4245  0.7039 -0.0274
   35MOL   H61927207   5.130   6.419   0.124 -0.3619 -0.0127 -0.7462
   35MOL   H62027208   5.324   6.499   0.265 -0.6400 -1.2874 -0.0401
   35MOL   H62127209   5.413   6.534   0.121 -0.4145 -0.8865 -0.1660
   35MOL   H62227210   5.173   6.867   0.032  1.6544  1.9154 -0.5879
   35MOL   H62327211   5.049   7.078   0.002 -1.5655 -0.5118 -0.2630
   35MOL   H62427212   4.915   7.042   0.416  1.6703  0.8350  1.3938
   35MOL   H62527213   5.037   6.819   0.434  0.2045 -0.2164  0.3959
   35MOL   C62627214   4.586   7.759   0.305  0.1825  0.0006 -0.0208
   35MOL   C62727215   4.678   7.636   0.266  0.3259 -0.6788  0.0703
   35MOL   C62827216   4.799   7.631   0.354  0.2326 -0.1544  0.5141
   35MOL   C62927217   4.889   7.506   0.318  0.0178  0.0560 -0.1577
   35MOL   O63027218   4.804   7.394   0.320  0.3661 -0.3056 -0.1377
   35MOL   C63127219   4.880   7.758   0.342  0.2628 -0.2294 -0.4608
   35MOL   C63227220   4.794   7.895   0.363  0.6071 -0.2352  0.0157
   35MOL   C63327221   4.660   7.897   0.281  0.2566  0.7838 -0.0074
   35MOL   C63427222   4.567   8.020   0.309  0.2920 -0.5556  0.3123
   35MOL   O63527223   4.534   8.006   0.441  0.1236  0.2787 -0.2121
   35MOL   C63627224   4.418   0.024   0.487  0.5389  0.0794  0.3431
   35MOL   O63727225   4.344   0.098   0.428 -0.2965 -0.4409  0.1164
   35MOL   C63827226   4.379   8.014   0.624 -0.4043 -0.0522 -0.0933
   35MOL   C63927227   4.296   0.061   0.703 -0.6095  0.5609 -0.5317
   35MOL   C64027228   4.254   0.013   0.829  0.2309  0.5573  0.5971
   35MOL   C64127229   4.295   7.922   0.886  0.0465  0.0196 -0.7486
   35MOL   C64227230   4.238   7.862   1.009 -0.0256  0.6552  0.4476
   35MOL   O64327231   4.138   7.904   1.067 -0.0231  0.6511  0.6227
   35MOL   O64427232   4.314   7.763   1.056  0.2393  0.0269  0.0217
   35MOL   C64527233   4.385   7.850   0.802 -0.1455  0.2988 -0.3593
   35MOL   C64627234   4.427   7.893   0.672  0.4643  0.9369  0.6948
   35MOL   H64727235   4.503   7.751   0.235  0.4540 -0.7387 -0.2571
   35MOL   H64827236   4.548   7.749   0.406 -0.1768 -1.5144 -0.3065
   35MOL   H64927237   4.616   7.547   0.278 -0.4104  0.0403  1.7621
   35MOL   H65027238   4.699   7.645   0.159  1.7751 -1.7840  0.2436
   35MOL   H65127239   4.771   7.624   0.459 -1.8116  4.7823  0.4419
   35MOL   H65227240   4.933   7.508   0.218 -1.4665 -0.8322 -0.8458
   35MOL   H65327241   4.967   7.489   0.392  0.1219  3.9147  0.7374
   35MOL   H65427242   4.964   7.757   0.411 -1.2527 -0.4742  1.4105
   35MOL   H65527243   4.918   7.758   0.239 -1.3135  1.0506 -1.0637
   35MOL   H65627244   4.853   7.986   0.355 -1.2411  0.9657 -0.2555
   35MOL   H65727245   4.773   7.880   0.469 -0.0928 -0.6676 -0.1775
   35MOL   H65827246   4.686   7.907   0.176  1.2757 -3.1176 -0.1948
   35MOL   H65927247   4.612   0.082   0.289 -0.2799 -0.4352 -0.4417
   35MOL   H66027248   4.478   8.026   0.246  0.4621  0.8829  0.1928
   35MOL   H66127249   4.248   0.145   0.655 -0.6479  1.2205  0.6357
   35MOL   H66227250   4.183   0.079   0.877 -1.7039 -1.3904  0.4514
   35MOL   H66327251   4.422   7.755   0.836 -0.4560 -0.5442 -2.3177
   35MOL   H66427252   4.490   7.824   0.618 -1.5963 -2.7231  2.7539
   35MOL   C66527253   4.544   7.606   1.556 -1.2108  0.2930  0.2751
   35MOL   C66627254   4.497   7.648   1.412 -0.4219  0.7915 -0.2118
   35MOL   C66727255   4.436   7.792   1.404  0.2557  1.0372  0.3077
   35MOL   C66827256   4.398   7.833   1.264  0.1670 -0.1778 -0.3980
   35MOL   O66927257   4.308   7.746   1.210  0.1542  0.3142  0.0577
   35MOL   C67027258   4.321   7.800   1.506  0.3596  0.6954 -0.0424
   35MOL   C67127259   4.364   7.767   1.642 -0.0517 -0.4808 -0.6069
   35MOL   C67227260   4.424   7.625   1.654 -0.2431  0.0340 -0.1162
   35MOL   C67327261   4.456   7.587   1.800 -0.3206  0.4502  0.1133
   35MOL   O67427262   4.500   7.449   1.803 -0.0487 -0.5064 -0.4205
   35MOL   C67527263   4.416   7.353   1.846 -0.0235 -0.8181 -0.4315
   35MOL   O67627264   4.303   7.375   1.893  0.2683 -0.0360 -0.4476
   35MOL   C67727265   4.471   7.214   1.844  0.0842  0.2921 -0.1249
   35MOL   C67827266   4.607   7.197   1.842 -0.3725 -0.4195 -0.0756
   35MOL   C67927267   4.671   7.077   1.805  0.0645 -0.5327 -0.1101
   35MOL   C68027268   4.591   6.964   1.778 -0.1220  0.0022 -0.1708
   35MOL   C68127269   4.652   6.835   1.760  0.6798  0.2628 -0.4036
   35MOL   O68227270   4.599   6.739   1.709 -0.3709 -0.4338  0.0131
   35MOL   O68327271   4.777   6.823   1.804 -0.2461 -0.1014 -0.3572
   35MOL   C68427272   4.449   6.973   1.778 -0.6247 -0.6410 -0.3469
   35MOL   C68527273   4.392   7.102   1.803  0.2066  0.2238 -0.0540
   35MOL   H68627274   4.581   7.503   1.555  1.3855  1.1856  1.2082
   35MOL   H68727275   4.629   7.670   1.576 -0.1208 -1.1101  0.1996
   35MOL   H68827276   4.592   7.642   1.357 -1.1329  1.2023 -1.5094
   35MOL   H68927277   4.430   7.567   1.384 -1.4631  1.2390  0.9763
   35MOL   H69027278   4.516   7.859   1.434  0.1506  0.9682  0.7368
   35MOL   H69127279   4.355   7.933   1.271  1.0949  0.1977 -0.0321
   35MOL   H69227280   4.486   7.841   1.201  0.3478  1.9630  0.0716
   35MOL   H69327281   4.280   7.901   1.500 -1.0160  0.3070  2.4087
   35MOL   H69427282   4.243   7.734   1.469 -0.1315  0.7603  0.8685
   35MOL   H69527283   4.279   7.770   1.710 -0.0620  0.7473 -0.6595
   35MOL   H69627284   4.421   7.843   1.697  0.1537 -0.5930 -0.6636
   35MOL   H69727285   4.344   7.559   1.621 -0.6037 -0.4448  1.6755
   35MOL   H69827286   4.525   7.654   1.852  0.9783  0.4073 -1.5112
   35MOL   H69927287   4.369   7.595   1.865  1.3941 -0.8983  2.6626
   35MOL   H70027288   4.665   7.280   1.878  0.7176 -0.7766 -0.9579
   35MOL   H70127289   4.778   7.070   1.811  0.0342 -1.8599 -1.1264
   35MOL   H70227290   4.391   6.882   1.767 -0.7779 -0.5195 -0.5672
   35MOL   H70327291   4.284   7.109   1.807  0.0647 -2.2172  4.3816
   35MOL   C70427292   5.161   6.513   2.084 -0.5173  0.2649 -0.3940
   35MOL   C70527293   5.026   6.458   2.020 -0.4297  0.1472  0.1253
   35MOL   C70627294   4.984   6.526   1.892 -0.0733  0.7610 -0.2547
   35MOL   C70727295   4.921   6.659   1.911 -0.1119 -0.1579  0.7829
   35MOL   O70827296   4.848   6.691   1.791 -0.3180  0.3100 -0.8670
   35MOL   C70927297   5.107   6.537   1.795 -0.0937  0.0274 -0.5789
   35MOL   C71027298   5.240   6.583   1.864  0.1469  0.2453  1.1376
   35MOL   C71127299   5.281   6.509   1.992 -0.4795 -0.4751  0.1250
   35MOL   C71227300   5.341   6.363   1.966 -0.3046 -0.0238 -0.1088
   35MOL   O71327301   5.476   6.353   1.972 -0.4375  0.0085 -0.0863
   35MOL   C71427302   5.554   6.352   1.862 -0.1724 -0.4813 -0.4788
   35MOL   O71527303   5.511   6.348   1.745 -0.0328  0.6765 -0.1742
   35MOL   C71627304   5.701   6.354   1.895  0.3272 -0.0948  0.9992
   35MOL   C71727305   5.752   6.356   2.025  0.0268 -0.1988 -0.0522
   35MOL   C71827306   5.890   6.357   2.049  0.1947 -0.7289 -0.2904
   35MOL   C71927307   5.979   6.358   1.941 -0.3453 -0.1661  0.3946
   35MOL   C72027308   6.125   6.381   1.961  0.2749  0.0850  0.7343
   35MOL   O72127309   6.173   6.415   2.071  0.0516 -0.2085 -0.5724
   35MOL   O72227310   6.193   6.371   1.844  0.0769 -0.0299  0.1124
   35MOL   C72327311   5.928   6.348   1.808 -0.2787  0.2579  0.0851
   35MOL   C72427312   5.794   6.349   1.790  0.2579 -0.3240  0.0344
   35MOL   H72527313   5.144   6.615   2.118  0.4173  0.2946 -0.0015
   35MOL   H72627314   5.190   6.456   2.172  1.6101  0.5493 -0.8922
   35MOL   H72727315   5.033   6.350   2.009  0.1894  0.3319 -1.5466
   35MOL   H72827316   4.941   6.469   2.087 -1.2374  0.0860 -0.8784
   35MOL   H72927317   4.911   6.460   1.845  1.6702 -2.1669  0.9926
   35MOL   H73027318   4.848   6.660   1.993 -1.4234 -0.7302 -0.3692
   35MOL   H73127319   4.994   6.739   1.920 -0.2172  0.2409 -1.7965
   35MOL   H73227320   5.115   6.435   1.757 -1.5276  0.6986 -2.8618
   35MOL   H73327321   5.075   6.586   1.702 -0.6815 -1.0591 -0.9645
   35MOL   H73427322   5.231   6.690   1.886 -2.3250  0.1755  0.6020
   35MOL   H73527323   5.325   6.571   1.796 -1.0725  4.2617 -1.2745
   35MOL   H73627324   5.368   6.560   2.035  1.1531 -0.9105 -2.5121
   35MOL   H73727325   5.313   6.288   2.039  2.9299 -1.4054 -0.2214
   35MOL   H73827326   5.302   6.313   1.877  0.4191  0.8946 -0.9633
   35MOL   H73927327   5.678   6.357   2.103 -1.3819  2.4935 -1.3742
   35MOL   H74027328   5.930   6.368   2.149  0.0986  1.0380 -0.4316
   35MOL   H74127329   5.993   6.358   1.722  0.9707 -2.1535  0.7157
   35MOL   H74227330   5.759   6.354   1.687  0.5175  1.1133  0.0072
   35MOL   C74327331   6.738   6.603   1.900  0.2211 -0.3129 -0.3706
   35MOL   C74427332   6.617   6.529   1.840  0.3443  0.0957 -0.6222
   35MOL   C74527333   6.485   6.599   1.869  0.1022 -0.7709 -0.4895
   35MOL   C74627334   6.357   6.536   1.806 -0.5491  0.1781 -0.2641
   35MOL   O74727335   6.334   6.412   1.870 -0.4447 -0.3775 -0.4633
   35MOL   C74827336   6.465   6.615   2.025  0.4014  0.4133  0.0812
   35MOL   C74927337   6.582   6.690   2.085 -1.1859 -0.1760  0.7204
   35MOL   C75027338   6.722   6.629   2.051 -0.9593 -0.5125  0.4074
   35MOL   C75127339   6.831   6.705   2.126 -0.1178 -0.8710 -0.5441
   35MOL   O75227340   6.860   6.838   2.071 -0.1024  0.0496 -0.1950
   35MOL   C75327341   6.972   6.905   2.112  0.0610 -0.1087  0.6208
   35MOL   O75427342   7.035   6.888   2.214 -0.1652 -0.6140 -0.2247
   35MOL   C75527343   7.007   7.014   2.018  0.6936  1.3322 -0.1599
   35MOL   C75627344   6.986   6.997   1.884  0.1089  0.5332 -0.5995
   35MOL   C75727345   7.017   7.093   1.792  0.5858  0.0856  0.3126
   35MOL   C75827346   7.091   7.208   1.834  0.1465  0.6776  0.0746
   35MOL   C75927347   7.142   7.306   1.728  0.3824 -0.1612  0.1481
   35MOL   O76027348   7.193   7.415   1.757 -0.3093  0.4809 -0.8836
   35MOL   O76127349   7.148   7.256   1.607  0.0644 -0.0196  0.0353
   35MOL   C76227350   7.123   7.225   1.965 -0.2420  0.1252 -0.7146
   35MOL   C76327351   7.069   7.133   2.058 -0.4493 -1.0728 -0.2880
   35MOL   H76427352   6.830   6.554   1.867  1.5824  0.3244  2.3256
   35MOL   H76527353   6.743   6.704   1.860 -1.8327 -0.0790 -0.0791
   35MOL   H76627354   6.637   6.519   1.734  1.2498  0.7431 -0.5171
   35MOL   H76727355   6.608   6.429   1.882  0.8403  0.4627  0.3718
   35MOL   H76827356   6.477   6.696   1.819 -0.5912  0.0753  1.2214
   35MOL   H76927357   6.269   6.598   1.829 -1.3432 -0.5665 -1.2683
   35MOL   H77027358   6.346   6.512   1.701  2.0654  1.1403 -0.7997
   35MOL   H77127359   6.372   6.661   2.057 -1.0733 -3.0849  1.0859
   35MOL   H77227360   6.475   6.521   2.079 -0.2645  0.4873  0.3326
   35MOL   H77327361   6.578   6.698   2.194  2.2927 -1.0895  0.9553
   35MOL   H77427362   6.572   6.795   2.058  0.7592 -0.0935  0.2591
   35MOL   H77527363   6.715   6.528   2.092 -1.6743 -0.3200  0.7622
   35MOL   H77627364   6.817   6.707   2.235  0.1769  0.9100 -0.5205
   35MOL   H77727365   6.914   6.640   2.098  2.0405  1.2556  0.6442
   35MOL   H77827366   6.940   6.906   1.849  0.9909 -0.3181  0.3961
   35MOL   H77927367   6.997   7.076   1.687 -1.1143  1.0871  0.4684
   35MOL   H78027368   7.176   7.311   2.003  0.9835 -1.5256  1.4240
   35MOL   H78127369   7.094   7.136   2.163  0.8876 -2.7166 -0.5434
   35MOL   H78227370   7.208   7.305   1.553 -0.6149 -0.6940 -1.3724
   36MOL     C127371   7.546   6.133   0.176  0.8036  0.1123  0.6050
   36MOL     C227372   7.578   6.271   0.229  0.3675 -0.0303 -0.0447
   36MOL     C327373   7.498   6.368   0.141 -0.2128  1.0063 -0.9297
   36MOL     C427374   7.518   6.515   0.189 -0.2180 -0.3861 -0.4831
   36MOL     O527375   7.467   6.620   0.111  0.2310  0.3224  0.2796
   36MOL     C627376   7.536   6.353   8.022 -0.5151 -0.0939  1.0734
   36MOL     C727377   7.502   6.213   7.972  0.6185  0.0386  0.1947
   36MOL     C827378   7.555   6.105   0.025 -0.1866  0.9154 -0.3181
   36MOL     C927379   7.492   5.972   8.024  0.7352 -0.1208  0.4658
   36MOL    O1027380   7.507   5.953   7.881 -0.3641 -0.5584 -0.1653
   36MOL    C1127381   7.394   5.942   7.808 -0.0071  0.0352 -0.0922
   36MOL    O1227382   7.280   5.952   7.854  0.4055 -0.0559  0.0091
   36MOL    C1327383   7.424   5.924   7.663  0.4526 -0.3454  0.3355
   36MOL    C1427384   7.546   5.950   7.611  0.0513  0.6463 -0.1568
   36MOL    C1527385   7.574   5.926   7.472  0.6026  0.1522 -0.0552
   36MOL    C1627386   7.467   5.894   7.387 -0.3441  0.4333  0.4253
   36MOL    C1727387   7.485   5.866   7.242  0.3532  0.0600 -0.0754
   36MOL    O1827388   7.397   5.836   7.158  0.0886  0.9549 -0.4702
   36MOL    O1927389   7.617   5.868   7.215  0.0554  0.8929  0.3825
   36MOL    C2027390   7.342   5.870   7.440 -0.1934 -0.8142  0.2270
   36MOL    C2127391   7.318   5.891   7.577  0.1104 -0.2019 -0.3152
   36MOL    H2227392   7.622   6.069   0.220 -0.8421 -2.0591  0.4087
   36MOL    H2327393   7.452   6.103   0.222 -0.1981  2.6146  0.2831
   36MOL    H2427394   7.552   6.280   0.334  0.2950 -1.4416  0.0669
   36MOL    H2527395   7.682   6.300   0.214  0.9671 -2.1771 -0.1811
   36MOL    H2627396   7.393   6.342   0.133 -0.0246  0.4166 -1.5975
   36MOL    H2727397   7.459   6.532   0.279 -0.1641  0.6571 -0.6401
   36MOL    H2827398   7.623   6.533   0.212 -0.4180 -0.2441  0.3386
   36MOL    H2927399   7.479   6.426   7.965  2.2904  0.2486 -1.4303
   36MOL    H3027400   7.642   6.375   8.010 -1.0983  1.2149 -2.3719
   36MOL    H3127401   7.537   6.205   7.869 -1.7780  4.4251 -1.0422
   36MOL    H3227402   7.394   6.203   7.973  0.3948  2.3305  1.3778
   36MOL    H3327403   7.661   6.085   0.007 -0.8666 -2.0854 -1.3642
   36MOL    H3427404   7.535   5.884   0.037 -0.0270 -1.1275 -0.6584
   36MOL    H3527405   7.386   5.969   0.016  0.3676 -0.4158 -0.9753
   36MOL    H3627406   7.628   5.970   7.678 -0.9173  0.8501  1.0061
   36MOL    H3727407   7.675   5.948   7.443  1.2557  1.5965  3.0131
   36MOL    H3827408   7.267   5.837   7.369 -1.7456 -0.7830  1.8248
   36MOL    H3927409   7.220   5.875   7.619 -0.1125 -0.7094 -1.0312
   36MOL    H4027410   7.389   6.589   0.068  0.9988 -0.8565 -0.2891
   36MOL    C4127411   8.030   6.042   7.036 -0.2153 -0.0870  0.3340
   36MOL    C4227412   7.882   6.017   7.073 -0.4409 -0.8261  0.2624
   36MOL    C4327413   7.794   5.980   6.948  0.2324  0.6674  0.2200
   36MOL    C4427414   7.653   5.957   6.996 -0.0002  0.7805  0.0073
   36MOL    O4527415   7.653   5.837   7.071 -0.6061 -0.5949  0.0941
   36MOL    C4627416   7.807   6.080   6.835  0.1184 -0.9207  0.5305
   36MOL    C4727417   7.955   6.108   6.804 -0.6777 -0.0751 -0.1342
   36MOL    C4827418   0.005   6.152   6.928 -0.3139 -0.0760 -0.7862
   36MOL    C4927419   0.157   6.165   6.901  0.2550 -0.0507 -0.9374
   36MOL    O5027420   0.174   6.241   6.784 -0.5744  0.3489  0.4344
   36MOL    C5127421   0.296   6.296   6.759  0.2821  0.0748 -1.0563
   36MOL    O5227422   0.386   6.285   6.838  0.9044 -0.0394 -0.5260
   36MOL    C5327423   0.287   6.374   6.637 -0.2802  0.0905 -0.6583
   36MOL    C5427424   0.354   6.498   6.630 -0.4562 -0.9741  0.4859
   36MOL    C5527425   0.352   6.578   6.513 -0.1996 -0.2201  0.3438
   36MOL    C5627426   0.281   6.535   6.395  0.3753 -0.2877 -0.4791
   36MOL    C5727427   0.265   6.617   6.270  0.1233 -0.5065  0.2105
   36MOL    O5827428   0.174   6.596   6.192  0.4183 -0.4729  0.2081
   36MOL    O5927429   0.357   6.707   6.250 -0.3998 -0.0137 -0.1387
   36MOL    C6027430   0.203   6.417   6.411  0.3378 -0.0721  0.5938
   36MOL    C6127431   0.205   6.346   6.530  0.6051 -0.5949 -0.4653
   36MOL    H6227432   0.040   6.069   7.131  0.2383 -4.2344  1.4194
   36MOL    H6327433   0.044   5.949   7.004  0.5879 -0.1218  1.6379
   36MOL    H6427434   7.882   5.933   7.143  0.9363 -3.1682 -2.4394
   36MOL    H6527435   7.837   6.097   7.132 -1.3704 -0.7973 -0.4819
   36MOL    H6627436   7.835   5.882   6.923 -1.1565 -0.3152  1.7072
   36MOL    H6727437   7.619   6.051   7.039 -1.6254 -0.0123  0.4912
   36MOL    H6827438   7.591   5.939   6.908  0.6438  0.6358 -0.4180
   36MOL    H6927439   7.762   6.044   6.743 -0.2195 -0.2020  0.4131
   36MOL    H7027440   7.756   6.172   6.864  1.8553 -0.4149  2.1487
   36MOL    H7127441   7.960   6.167   6.713 -0.4697 -1.1958 -0.8577
   36MOL    H7227442   7.988   6.012   6.765  1.1590  1.2605 -1.9458
   36MOL    H7327443   8.005   6.247   6.969  0.8151  0.2233 -0.4983
   36MOL    H7427444   0.191   6.228   6.983 -4.0350  0.5206  0.5733
   36MOL    H7527445   0.213   6.071   6.894 -0.0498 -0.3208  0.0759
   36MOL    H7627446   0.415   6.526   6.715  0.8735 -0.3943 -0.6403
   36MOL    H7727447   0.404   6.672   6.515 -3.7632  1.8757  0.0594
   36MOL    H7827448   0.136   6.377   6.337  3.0209 -1.7937 -0.9901
   36MOL    H7927449   0.137   6.262   6.536  0.7016 -0.6629 -0.3259
   36MOL    C8027450   0.782   6.955   5.989  0.5313 -0.7092 -0.4997
   36MOL    C8127451   0.650   6.884   5.956  0.6150 -0.6111 -0.3197
   36MOL    C8227452   0.568   6.846   6.081  0.8561  0.6946  0.7538
   36MOL    C8327453   0.444   6.758   6.035 -0.5666 -1.0394  0.0362
   36MOL    O8427454   0.345   6.794   6.125 -0.4061  0.2588  0.7592
   36MOL    C8527455   0.657   6.770   6.189  0.0799  0.3339  0.1173
   36MOL    C8627456   0.791   6.846   6.210 -0.0948  0.0446  0.0934
   36MOL    C8727457   0.869   6.875   6.085 -0.0075  0.2840 -0.5608
   36MOL    C8827458   1.016   6.931   6.099 -0.1859 -0.4385 -0.0439
   36MOL    O8927459   1.003   7.063   6.149 -0.3655 -0.1834  0.0061
   36MOL    C9027460   1.099   7.165   6.134 -0.0375  0.3131 -0.3208
   36MOL    O9127461   1.212   7.146   6.084 -0.0787  0.3021  0.5767
   36MOL    C9227462   1.055   7.296   6.188  0.3375 -1.2053  0.1634
   36MOL    C9327463   1.151   7.397   6.199  0.1478  0.7329  0.4942
   36MOL    C9427464   1.102   7.518   6.233  0.1728 -0.2509 -0.5849
   36MOL    C9527465   0.967   7.544   6.271  0.3350 -0.1087 -0.3687
   36MOL    C9627466   0.910   7.677   6.307 -0.1217 -0.2310 -0.8384
   36MOL    O9727467   0.794   7.705   6.339 -0.5027  0.0638 -0.2555
   36MOL    O9827468   1.008   7.774   6.311 -0.1877 -0.6760 -0.5063
   36MOL    C9927469   0.877   7.435   6.278 -0.5558  0.0449 -0.0811
   36MOL   C10027470   0.918   7.315   6.223  0.7160  1.1030  0.1069
   36MOL   H10127471   0.851   6.967   5.905  3.2473 -1.0406  1.6172
   36MOL   H10227472   0.775   7.055   6.031 -0.3294  0.5400 -3.4799
   36MOL   H10327473   0.581   6.938   5.891  3.1219  2.3797 -0.6682
   36MOL   H10427474   0.668   6.792   5.900  1.3217 -0.9636  0.4784
   36MOL   H10527475   0.536   6.944   6.118  1.8589  0.8849  1.1261
   36MOL   H10627476   0.418   6.785   5.932 -1.4239  1.1975  0.8020
   36MOL   H10727477   0.469   6.652   6.036 -0.4262 -1.0068  0.0606
   36MOL   H10827478   0.600   6.768   6.282  2.0499  0.3432  1.3426
   36MOL   H10927479   0.694   6.673   6.157  1.0155  0.6817  0.1500
   36MOL   H11027480   0.858   6.810   6.288  0.5912  0.5384 -0.2672
   36MOL   H11127481   0.764   6.944   6.250  0.3592  0.0153  0.4744
   36MOL   H11227482   0.887   6.782   6.031  0.8519 -0.1601  0.4822
   36MOL   H11327483   1.084   6.873   6.162 -1.4434 -1.8226  0.0787
   36MOL   H11427484   1.075   6.930   6.008 -0.0634 -0.7596  0.0368
   36MOL   H11527485   1.256   7.395   6.176  0.0874 -0.5782  0.3197
   36MOL   H11627486   1.180   7.593   6.240  0.7797 -0.8895 -0.4765
   36MOL   H11727487   0.773   7.440   6.305 -0.2114 -0.2932  1.3202
   36MOL   H11827488   0.848   7.232   6.222  2.2127 -0.2565  2.3062
   36MOL   C11927489   1.208   0.193   6.163 -0.0195  0.0906 -0.1928
   36MOL   C12027490   1.145   0.060   6.184  0.2188  0.4514 -0.3176
   36MOL   C12127491   0.989   0.076   6.197 -0.2974  0.2843  0.8154
   36MOL   C12227492   0.922   7.975   6.209  0.1039  0.6177 -0.1636
   36MOL   O12327493   0.955   7.910   6.337  0.7577  0.2676  0.4426
   36MOL   C12427494   0.961   0.159   6.328 -0.0812  0.0334  0.2272
   36MOL   C12527495   1.033   0.299   6.311 -0.7377  0.8900 -1.1100
   36MOL   C12627496   1.181   0.282   6.287  0.5645  0.2967 -0.2343
   36MOL   C12727497   1.252   0.417   6.280  0.2951 -0.3497 -0.2658
   36MOL   O12827498   1.384   0.384   6.277 -0.4468 -0.5355  0.1381
   36MOL   C12927499   1.488   0.476   6.268  0.4508  0.0936  0.0765
   36MOL   O13027500   1.476   0.597   6.272 -0.4639 -0.2392 -0.4040
   36MOL   C13127501   1.622   0.412   6.266 -0.4296  0.0805  0.4098
   36MOL   C13227502   1.745   0.479   6.266 -0.2735  0.0381 -0.7947
   36MOL   C13327503   1.869   0.410   6.272 -0.0367  0.2945  0.2753
   36MOL   C13427504   1.871   0.268   6.268 -0.3476  0.0793 -0.3172
   36MOL   C13527505   2.003   0.191   6.249  0.0107 -0.7277 -0.9727
   36MOL   O13627506   2.011   0.071   6.227  0.2572  0.2298 -0.1631
   36MOL   O13727507   2.106   0.275   6.261 -0.7232  0.1677  0.1045
   36MOL   C13827508   1.749   0.200   6.273  0.4135  0.6946  1.1751
   36MOL   C13927509   1.629   0.272   6.274  0.1754 -0.3058 -0.3120
   36MOL   H14027510   1.312   0.163   6.152 -0.6798 -2.5645  0.5083
   36MOL   H14127511   1.170   0.239   6.072 -0.1193  0.0728 -0.1602
   36MOL   H14227512   1.167   0.003   6.093  0.0428  0.8135 -0.5883
   36MOL   H14327513   1.199   0.020   6.269 -3.9351  0.0059  2.2235
   36MOL   H14427514   0.943   0.129   6.113 -0.1130 -1.1948 -0.2357
   36MOL   H14527515   0.814   7.986   6.211  0.1016  0.5906 -0.1335
   36MOL   H14627516   0.950   7.916   6.122 -1.2631  0.7522 -0.6925
   36MOL   H14727517   0.854   0.168   6.345 -0.4018  2.1023 -2.5300
   36MOL   H14827518   1.009   0.111   6.414  1.9342 -0.1971 -0.9910
   36MOL   H14927519   1.013   0.365   6.395 -1.1860 -1.0307  0.3288
   36MOL   H15027520   1.000   0.352   6.221 -0.9725  0.2042 -1.4357
   36MOL   H15127521   1.225   0.229   6.372  3.1875 -1.4092 -2.5973
   36MOL   H15227522   1.231   0.467   6.185 -1.3457  1.6411  1.0909
   36MOL   H15327523   1.228   0.498   6.348 -0.4496  0.6490 -1.6776
   36MOL   H15427524   1.753   0.586   6.255 -1.0289 -0.1215 -3.2265
   36MOL   H15527525   1.959   0.467   6.254  0.2776 -0.3257 -0.1275
   36MOL   H15627526   1.752   0.092   6.282  0.0513  0.7066  1.4385
   36MOL   H15727527   1.538   0.214   6.274  1.2425 -2.0624  1.6901
   36MOL   C15827528   2.368   7.836   6.277 -0.2171  0.1354 -0.1472
   36MOL   C15927529   2.291   7.969   6.251 -0.5129  0.0699 -0.0906
   36MOL   C16027530   2.389   0.038   6.230  0.3140 -0.4353  0.0634
   36MOL   C16127531   2.318   0.176   6.201  0.6303  0.0465 -0.3598
   36MOL   O16227532   2.237   0.214   6.312 -0.0576  0.4293  0.6241
   36MOL   C16327533   2.482   0.053   6.346  0.2723 -0.1180 -0.2636
   36MOL   C16427534   2.569   7.962   6.361  0.2059  0.4497  0.0441
   36MOL   C16527535   2.483   7.837   6.382  0.5380 -0.3081 -0.0498
   36MOL   C16627536   2.559   7.710   6.377 -0.9882  0.0654 -0.2866
   36MOL   O16727537   2.478   7.594   6.377 -0.0368  0.1536 -0.0177
   36MOL   C16827538   2.469   7.516   6.262 -0.0572  0.1025 -0.0426
   36MOL   O16927539   2.515   7.547   6.147 -0.2807  0.1120  0.7057
   36MOL   C17027540   2.371   7.402   6.285  0.3516 -0.1107 -0.6542
   36MOL   C17127541   2.322   7.332   6.171 -0.3425  0.5260 -0.2201
   36MOL   C17227542   2.230   7.221   6.185 -0.0733  0.6332  0.2157
   36MOL   C17327543   2.183   7.187   6.317 -0.8341  0.0212 -0.5133
   36MOL   C17427544   2.081   7.085   6.332  0.2209 -0.0739 -0.6179
   36MOL   O17527545   2.030   7.022   6.239 -0.2158  0.4238  0.3991
   36MOL   O17627546   2.056   7.056   6.464  0.1025 -0.3656 -0.1160
   36MOL   C17727547   2.223   7.261   6.424 -0.1711  0.4115 -0.4493
   36MOL   C17827548   2.326   7.357   6.411 -0.0672 -0.7921  0.8247
   36MOL   H17927549   2.298   7.757   6.303  1.7621 -1.7902 -0.4255
   36MOL   H18027550   2.407   7.801   6.181 -1.7818 -0.1302 -0.7067
   36MOL   H18127551   2.226   7.952   6.166 -0.3881 -1.8532  0.1815
   36MOL   H18227552   2.223   7.993   6.333  0.8408 -0.7796  1.3272
   36MOL   H18327553   2.450   0.006   6.146 -0.0362  0.0093 -0.3713
   36MOL   H18427554   2.387   0.256   6.177  1.3876 -0.6704 -0.6142
   36MOL   H18527555   2.254   0.161   6.114 -0.3576 -0.4602  0.4332
   36MOL   H18627556   2.559   0.128   6.325 -0.6501  0.5310 -1.3651
   36MOL   H18727557   2.422   0.074   6.435  0.7515 -0.0084  0.0387
   36MOL   H18827558   2.641   7.984   6.439  0.5324  1.1319 -0.4497
   36MOL   H18927559   2.627   7.943   6.271 -1.4152 -0.2403 -0.8917
   36MOL   H19027560   2.441   7.848   6.482 -1.7889 -2.0447 -0.7953
   36MOL   H19127561   2.638   7.721   6.302  2.8992  0.8965  3.7036
   36MOL   H19227562   2.615   7.721   6.470 -1.1470  1.8173 -0.3768
   36MOL   H19327563   2.355   7.359   6.072  1.3433 -0.1818  0.1274
   36MOL   H19427564   2.196   7.175   6.094 -0.2419  3.8932 -1.4260
   36MOL   H19527565   2.190   7.238   6.524  0.2384 -1.4498 -0.7357
   36MOL   H19627566   2.356   7.410   6.500  2.2744  2.1397 -1.5736
   36MOL   C19727567   1.821   7.066   6.878  0.8880 -0.6832 -0.2508
   36MOL   C19827568   1.859   6.976   6.758 -0.6038 -0.2320 -1.0521
   36MOL   C19927569   1.814   7.044   6.627  0.2998 -0.3658 -0.5391
   36MOL   C20027570   1.840   6.956   6.502  0.1490 -0.4775 -0.3461
   36MOL   O20127571   1.979   6.927   6.485 -0.2783 -0.0566 -0.0364
   36MOL   C20227572   1.666   7.086   6.630  0.8224 -0.0127 -0.2333
   36MOL   C20327573   1.634   7.168   6.755 -0.4644  0.1254  0.3312
   36MOL   C20427574   1.665   7.088   6.882  0.1556 -0.0355  0.5953
   36MOL   C20527575   1.631   7.169   7.008  0.6852 -0.8193 -0.2876
   36MOL   O20627576   1.677   7.088   7.125 -0.1985 -0.3084  0.0220
   36MOL   C20727577   1.592   7.053   7.228 -0.8254  0.2977  1.0636
   36MOL   O20827578   1.482   7.099   7.242  0.0034  0.2083  0.0470
   36MOL   C20927579   1.661   6.944   7.310  0.1291  0.9488  0.4498
   36MOL   C21027580   1.605   6.904   7.435 -0.5255 -0.4375  0.2229
   36MOL   C21127581   1.676   6.816   7.520 -0.5000  0.2416 -0.6892
   36MOL   C21227582   1.796   6.755   7.480  0.2148 -0.9069 -0.2874
   36MOL   C21327583   1.864   6.650   7.561  0.2573  0.2856 -0.3512
   36MOL   O21427584   1.919   6.566   7.492 -0.4247  0.8307 -0.2649
   36MOL   O21527585   1.854   6.642   7.694  0.2300 -0.4683  0.2811
   36MOL   C21627586   1.837   6.781   7.348  0.3780 -0.0313 -0.3343
   36MOL   C21727587   1.771   6.873   7.266  0.7013 -0.6460  0.5078
   36MOL   H21827588   1.863   7.032   6.973  2.8628  0.7364 -0.6060
   36MOL   H21927589   1.866   7.165   6.876 -0.3701 -0.0934  0.0163
   36MOL   H22027590   1.968   6.964   6.759 -0.6715 -0.8716 -1.2466
   36MOL   H22127591   1.819   6.875   6.761  0.5309 -0.7275 -2.2446
   36MOL   H22227592   1.855   7.141   6.602  1.1301 -0.3091  0.9809
   36MOL   H22327593   1.776   6.868   6.510 -0.9158  0.3358  0.3023
   36MOL   H22427594   1.802   7.009   6.415  1.1727 -0.3176 -0.6915
   36MOL   H22527595   1.637   7.152   6.549  1.7448 -0.4317 -0.9056
   36MOL   H22627596   1.602   6.999   6.615  0.9051 -0.2252  0.6115
   36MOL   H22727597   1.528   7.191   6.747  0.1298  3.2053  0.9342
   36MOL   H22827598   1.689   7.262   6.759 -2.0538  1.0743  0.1888
   36MOL   H22927599   1.608   6.995   6.878  2.1170 -1.3279  1.7211
   36MOL   H23027600   1.685   7.263   7.014 -0.9333  0.1468 -0.7539
   36MOL   H23127601   1.523   7.184   7.011  0.4641 -2.3989  1.2158
   36MOL   H23227602   1.518   6.958   7.468 -0.0263  1.3933 -1.3321
   36MOL   H23327603   1.629   6.796   7.616 -0.0497  1.8122 -0.1283
   36MOL   H23427604   1.933   6.747   7.311  0.6179 -0.2534  0.4872
   36MOL   H23527605   1.828   6.903   7.179 -1.9064  0.5865 -0.8476
   36MOL   C23627606   1.939   7.157   7.952  0.8087  0.5147 -0.2518
   36MOL   C23727607   1.890   7.018   7.930  0.1477 -0.2019 -0.1504
   36MOL   C23827608   2.000   6.919   7.900 -0.0338  0.0611  0.3470
   36MOL   C23927609   1.941   6.782   7.867  0.8880 -0.0402  0.7167
   36MOL   O24027610   1.838   6.775   7.766  0.0727  0.2295  0.7858
   36MOL   C24127611   2.088   6.975   7.782 -0.2375 -0.2377 -0.6983
   36MOL   C24227612   2.150   7.115   7.816 -0.5467  0.2317 -0.6797
   36MOL   C24327613   2.029   7.214   7.835 -0.5794 -0.3512 -0.1113
   36MOL   C24427614   2.076   7.357   7.868 -0.1944 -0.2424  0.5498
   36MOL   O24527615   2.153   7.407   7.758 -0.2155  0.2941  0.0630
   36MOL   C24627616   2.090   7.485   7.668 -0.2860 -0.4444 -0.1281
   36MOL   O24727617   1.975   7.535   7.683  0.0530 -0.4983  0.3430
   36MOL   C24827618   2.170   7.514   7.549  0.2235 -0.7731  0.3754
   36MOL   C24927619   2.281   7.435   7.515  0.3194 -0.3858 -0.5926
   36MOL   C25027620   2.351   7.459   7.396 -0.3498 -0.1664  0.1004
   36MOL   C25127621   2.317   7.560   7.306 -0.3241 -0.0472  0.0888
   36MOL   C25227622   2.397   7.580   7.182 -0.1037  0.1826  0.3044
   36MOL   O25327623   2.482   7.502   7.144 -0.5613  0.1076  0.1803
   36MOL   O25427624   2.368   7.699   7.133 -0.1916  0.6443  0.1946
   36MOL   C25527625   2.207   7.640   7.340 -0.5438  0.6014 -0.0141
   36MOL   C25627626   2.135   7.612   7.457  0.0260  0.1967 -0.5340
   36MOL   H25727627   1.848   7.217   7.952  0.8224  0.5473 -1.1490
   36MOL   H25827628   1.989   7.161   0.013 -0.2790 -1.4688  0.4154
   36MOL   H25927629   1.827   6.979   8.010 -1.1494  0.5988 -0.7739
   36MOL   H26027630   1.828   7.029   7.841  2.7959 -1.0545 -2.1903
   36MOL   H26127631   2.059   6.913   7.992  0.1459  0.1184  0.2337
   36MOL   H26227632   2.016   6.703   7.859  1.5861  0.7731 -1.0714
   36MOL   H26327633   1.894   6.738   7.954  3.5870 -1.7933  1.3400
   36MOL   H26427634   2.174   6.910   7.764 -0.1999 -0.2797 -0.3732
   36MOL   H26527635   2.034   6.974   7.687 -1.4839 -0.8921  0.0018
   36MOL   H26627636   2.212   7.139   7.729 -1.0386 -2.6407 -1.8877
   36MOL   H26727637   2.213   7.103   7.904 -0.7484 -1.6164 -0.7728
   36MOL   H26827638   1.968   7.221   7.745  0.2680 -1.5327 -0.7732
   36MOL   H26927639   1.989   7.418   7.891 -0.6643 -0.0868 -1.5529
   36MOL   H27027640   2.131   7.354   7.962  0.8378 -2.7216 -0.1045
   36MOL   H27127641   2.318   7.354   7.577  3.1290  0.7083 -0.7874
   36MOL   H27227642   2.432   7.397   7.362 -1.7832 -2.1918  0.2788
   36MOL   H27327643   2.194   7.735   7.291 -0.4955  0.6935  0.1533
   36MOL   H27427644   2.064   7.687   7.491 -0.5945 -0.2069 -0.9523
   36MOL   C27527645   2.463   0.157   7.010  0.1093  0.6450  0.3464
   36MOL   C27627646   2.477   8.035   6.978  0.2490  0.5085  0.4299
   36MOL   C27727647   2.535   7.961   7.101  0.1233  0.1996 -0.7822
   36MOL   C27827648   2.572   7.817   7.071 -0.5296 -0.4485  0.3127
   36MOL   O27927649   2.460   7.748   7.020 -0.5191 -0.6423 -0.2979
   36MOL   C28027650   2.658   8.032   7.163 -0.6429  0.5648  0.4153
   36MOL   C28127651   2.624   0.139   7.207 -0.4392  0.2836  0.0240
   36MOL   C28227652   2.585   0.223   7.083 -0.5636  0.1432  0.0176
   36MOL   C28327653   2.557   0.374   7.126  0.0316  0.7569 -0.1621
   36MOL   O28427654   2.545   0.462   7.018 -0.0361 -0.0320 -0.5033
   36MOL   C28527655   2.434   0.531   6.981 -0.2660  0.1563 -0.2932
   36MOL   O28627656   2.326   0.515   7.043 -0.3547  0.2009 -0.3733
   36MOL   C28727657   2.452   0.609   6.859  0.5123 -0.1076  0.4788
   36MOL   C28827658   2.575   0.617   6.798 -0.5996 -0.3754 -0.0183
   36MOL   C28927659   2.599   0.697   6.682  0.3597  0.4659 -0.1741
   36MOL   C29027660   2.494   0.780   6.637 -0.1633 -0.1363  0.5203
   36MOL   C29127661   2.517   0.857   6.517  0.5738 -0.7046 -0.6587
   36MOL   O29227662   2.432   0.891   6.429  0.3785  0.1720 -0.0889
   36MOL   O29327663   2.642   0.906   6.518  0.1737  0.2745  0.1925
   36MOL   C29427664   2.363   0.775   6.697  0.0568 -0.0773 -0.5765
   36MOL   C29527665   2.347   0.682   6.807 -1.2107 -0.4547  0.5278
   36MOL   H29627666   2.441   0.212   6.919  1.0218  2.6077  1.2843
   36MOL   H29727667   2.373   0.151   7.071  1.0719  1.0318  1.8572
   36MOL   H29827668   2.383   7.988   6.947  0.4067 -1.6170  2.9493
   36MOL   H29927669   2.552   8.024   6.900 -1.4921 -0.2392 -1.1802
   36MOL   H30027670   2.462   7.959   7.182 -0.3276  1.2370 -1.1516
   36MOL   H30127671   2.650   7.812   6.995 -0.8249 -1.9865  0.1083
   36MOL   H30227672   2.613   7.773   7.162 -0.7444 -0.2783  0.4921
   36MOL   H30327673   2.697   7.986   7.254 -1.3925  1.1603  1.0425
   36MOL   H30427674   2.744   8.033   7.096  0.9950 -0.9012  2.4498
   36MOL   H30527675   2.704   0.186   7.264 -1.7148  0.5746  1.6364
   36MOL   H30627676   2.542   0.133   7.279  0.1350 -1.6965  0.5282
   36MOL   H30727677   2.669   0.225   7.014  1.0187  0.3591  1.9034
   36MOL   H30827678   2.463   0.377   7.181 -1.0932 -3.7158 -1.6426
   36MOL   H30927679   2.633   0.407   7.197  1.0501 -0.4224 -0.6933
   36MOL   H31027680   2.664   0.564   6.830 -0.8626  0.0354  1.4153
   36MOL   H31127681   2.694   0.692   6.631 -0.2629 -1.6098 -1.1438
   36MOL   H31227682   2.283   0.840   6.665 -0.1168 -0.5047 -1.0053
   36MOL   H31327683   2.250   0.678   6.854 -1.4005  0.5414  0.2414
   36MOL   C31427684   2.983   1.225   6.773  0.1683 -0.2154 -0.1178
   36MOL   C31527685   2.830   1.221   6.730  0.2128 -0.3491  0.0323
   36MOL   C31627686   2.814   1.134   6.610  0.5714  0.2211  0.5210
   36MOL   C31727687   2.668   1.133   6.560  0.0872 -0.2480  0.9642
   36MOL   O31827688   2.659   1.041   6.458  0.1502 -0.6947 -0.7744
   36MOL   C31927689   2.905   1.178   6.500  0.1198  0.4708  0.3393
   36MOL   C32027690   3.061   1.191   6.536 -0.0125 -0.0463 -0.0737
   36MOL   C32127691   3.064   1.289   6.660  0.3947  0.3338 -0.0245
   36MOL   C32227692   3.211   1.328   6.699  0.3161 -0.0918 -0.0388
   36MOL   O32327693   3.297   1.223   6.743 -0.5644 -0.5158 -0.3573
   36MOL   C32427694   3.379   1.248   6.839  0.0125  0.0108 -0.4040
   36MOL   O32527695   3.378   1.350   6.906 -0.0315  0.4145  0.1782
   36MOL   C32627696   3.476   1.141   6.863  0.0438 -0.0311 -0.5101
   36MOL   C32727697   3.469   1.019   6.793 -0.0728  0.1496  0.5613
   36MOL   C32827698   3.569   0.921   6.808  0.1739  0.2551 -0.2009
   36MOL   C32927699   3.685   0.950   6.883  0.0598 -0.6558 -0.7006
   36MOL   C33027700   3.798   0.847   6.905  1.4092 -0.3610  0.2390
   36MOL   O33127701   3.910   0.884   6.933  0.7453 -0.5832 -0.1202
   36MOL   O33227702   3.759   0.719   6.889 -0.0777  0.1009 -0.0343
   36MOL   C33327703   3.691   1.073   6.955 -0.3327 -0.1385 -0.2162
   36MOL   C33427704   3.594   1.172   6.931  0.0046  0.1268  0.6569
   36MOL   H33527705   2.990   1.281   6.866 -3.2949  1.9591 -1.0520
   36MOL   H33627706   3.022   1.127   6.799 -1.0791 -1.2845 -2.1299
   36MOL   H33727707   2.775   1.180   6.814 -0.3562 -0.0813 -0.2105
   36MOL   H33827708   2.785   1.317   6.705  1.1245  0.0294 -0.1748
   36MOL   H33927709   2.833   1.033   6.647 -0.2765 -0.5223 -1.0182
   36MOL   H34027710   2.597   1.118   6.641 -2.4632 -1.0344 -1.3497
   36MOL   H34127711   2.641   1.222   6.503 -0.0417 -0.6847  0.3374
   36MOL   H34227712   2.903   1.100   6.424 -0.7306  0.7414  0.0798
   36MOL   H34327713   2.866   1.264   6.446 -0.0568  1.3409  1.8123
   36MOL   H34427714   3.104   1.216   6.439  0.7500 -2.5998 -0.4259
   36MOL   H34527715   3.098   1.093   6.565  0.7845  0.4610  0.6292
   36MOL   H34627716   3.007   1.375   6.623  0.6958  1.7679  2.6847
   36MOL   H34727717   3.269   1.368   6.616 -1.9179 -0.7575 -1.9571
   36MOL   H34827718   3.190   1.399   6.780  1.0034  0.7741 -0.6016
   36MOL   H34927719   3.379   0.989   6.741  1.0932 -1.0410 -0.8283
   36MOL   H35027720   3.556   0.826   6.757  3.5445 -0.2841 -0.1199
   36MOL   H35127721   3.775   1.102   7.017  0.1480  2.8921 -2.1819
   36MOL   H35227722   3.610   1.266   6.982 -3.9046  0.3155  1.7354
   36MOL   C35327723   3.983   0.446   7.372 -0.1586  1.0054 -0.6029
   36MOL   C35427724   3.871   0.477   7.280  0.2319  0.8807  0.2742
   36MOL   C35527725   3.917   0.552   7.153  0.0052  0.5798  0.2628
   36MOL   C35627726   3.801   0.552   7.053  0.1311  0.4162 -0.7207
   36MOL   O35727727   3.857   0.620   6.936  0.0983 -0.0791 -0.5816
   36MOL   C35827728   3.977   0.687   7.192  1.0094 -0.1752  0.1387
   36MOL   C35927729   4.090   0.673   7.301  0.0515  0.3730  0.2840
   36MOL   C36027730   4.051   0.577   7.418  0.7856 -0.6575 -0.0353
   36MOL   C36127731   4.167   0.550   7.506 -0.0728  0.2082 -0.2250
   36MOL   O36227732   4.203   0.664   7.587 -0.0235 -0.2640  0.2394
   36MOL   C36327733   4.325   0.725   7.574 -0.0293  0.3788 -0.1117
   36MOL   O36427734   4.409   0.706   7.489 -0.0669  0.2193 -0.6317
   36MOL   C36527735   4.344   0.833   7.678  0.1778  0.3192  0.7402
   36MOL   C36627736   4.243   0.856   7.779 -0.2520 -0.4829  0.5201
   36MOL   C36727737   4.263   0.961   7.874 -0.7122 -0.6713  0.6542
   36MOL   C36827738   4.380   1.040   7.869 -0.1113  1.0369  0.3761
   36MOL   C36927739   4.390   1.146   7.967  0.1608  0.1235  0.2679
   36MOL   O37027740   4.358   1.136   0.052 -0.5383 -0.5696  0.0428
   36MOL   O37127741   4.420   1.265   7.913  0.2406  0.2601 -0.2346
   36MOL   C37227742   4.483   1.009   7.776 -0.1358  0.3860  0.3875
   36MOL   C37327743   4.465   0.905   7.684  0.5176 -0.1646  0.2399
   36MOL   H37427744   3.948   0.390   7.459  0.3479  1.6343  0.0055
   36MOL   H37527745   4.061   0.393   7.318  0.3733  0.6215  0.5309
   36MOL   H37627746   3.814   0.389   7.251 -1.2327  1.9970 -0.2975
   36MOL   H37727747   3.794   0.539   7.326  0.0001  2.3784 -2.0136
   36MOL   H37827748   3.994   0.491   7.105 -0.9082 -1.1323  0.9175
   36MOL   H37927749   3.769   0.450   7.029  1.4591  0.3372 -2.2079
   36MOL   H38027750   3.708   0.593   7.093  0.4795  2.0187 -1.5466
   36MOL   H38127751   4.024   0.738   7.109  2.9203 -0.0365  1.2874
   36MOL   H38227752   3.912   0.757   7.246  1.2123  0.4559 -0.4409
   36MOL   H38327753   4.121   0.775   7.326 -1.2837  0.0334  3.6518
   36MOL   H38427754   4.178   0.637   7.249  1.0045  1.2674  1.2336
   36MOL   H38527755   3.972   0.629   7.472  2.7048  3.2917 -0.8622
   36MOL   H38627756   4.131   0.475   7.576 -0.0759 -0.2319 -0.6965
   36MOL   H38727757   4.250   0.512   7.445  1.2540  0.3474  1.4542
   36MOL   H38827758   4.155   0.794   7.773  0.0958 -0.8306 -1.5161
   36MOL   H38927759   4.184   0.982   7.945 -2.1389 -2.0454 -0.4739
   36MOL   H39027760   4.575   1.067   7.768 -1.2046  2.3430  1.8574
   36MOL   H39127761   4.548   0.871   7.624  2.0513  2.8482  0.5881
   36MOL   C39227762   4.439   1.780   7.869  0.2651 -0.4496  0.9495
   36MOL   C39327763   4.455   1.641   7.936 -0.2306 -0.5171  0.3591
   36MOL   C39427764   4.324   1.568   7.952  0.2039 -0.4059  0.0727
   36MOL   C39527765   4.345   1.446   0.011 -0.1543  0.1209  0.4118
   36MOL   O39627766   4.455   1.367   8.018 -0.0183  0.1844  0.2533
   36MOL   C39727767   4.209   1.653   8.011  0.1695 -0.0944 -0.2745
   36MOL   C39827768   4.193   1.779   7.921  0.1447  0.8794 -0.3465
   36MOL   C39927769   4.321   1.857   7.919  0.5595  0.1840  0.1396
   36MOL   C40027770   4.301   1.999   7.854 -0.8335 -0.0983  0.0441
   36MOL   O40127771   4.259   1.978   7.713 -0.1682 -0.2485 -0.5039
   36MOL   C40227772   4.131   2.016   7.681 -0.3817 -0.0440  0.3994
   36MOL   O40327773   4.060   2.079   7.760  0.0841 -0.9725 -0.1300
   36MOL   C40427774   4.094   1.990   7.537  0.3715  0.3536 -0.0391
   36MOL   C40527775   4.166   1.907   7.449 -0.1685 -0.1179 -0.0521
   36MOL   C40627776   4.127   1.885   7.316 -0.3786 -0.1776  0.0458
   36MOL   C40727777   4.008   1.942   7.270 -0.3126  0.2395 -1.1671
   36MOL   C40827778   3.959   1.921   7.130 -0.0181  1.0126 -0.2417
   36MOL   O40927779   3.844   1.920   7.103  0.2506  0.0575  0.6378
   36MOL   O41027780   4.054   1.872   7.039  0.0445 -0.1879  0.5288
   36MOL   C41127781   3.933   2.017   7.354  0.0052 -0.1644  0.2869
   36MOL   C41227782   3.973   2.046   7.491  0.4460 -0.7023  0.3679
   36MOL   H41327783   4.530   1.838   7.880 -1.3295  2.4153 -0.1423
   36MOL   H41427784   4.428   1.771   7.761  1.6601  2.0360  0.5588
   36MOL   H41527785   4.542   1.599   7.885  0.6931  2.8675 -1.0009
   36MOL   H41627786   4.492   1.655   0.002  0.9166 -0.4839 -0.0491
   36MOL   H41727787   4.288   1.535   7.855  1.9293 -1.2401 -0.3080
   36MOL   H41827788   4.377   1.475   0.111 -0.5294  2.5591 -0.1631
   36MOL   H41927789   4.253   1.387   0.012  0.3266 -0.6281  1.8943
   36MOL   H42027790   4.114   1.600   8.013  0.1651 -0.1666 -1.9692
   36MOL   H42127791   4.237   1.672   0.080 -1.3482  0.0465  0.1290
   36MOL   H42227792   4.108   1.839   7.955 -1.0374 -1.1147  0.3358
   36MOL   H42327793   4.181   1.747   7.818 -1.7956 -0.0038  0.1316
   36MOL   H42427794   4.334   1.878   8.026  0.8199  1.8722 -0.2054
   36MOL   H42527795   4.232   2.065   7.906  0.9024  1.7062  0.1004
   36MOL   H42627796   4.400   2.045   7.848 -0.7089 -0.1893  1.3139
   36MOL   H42727797   4.248   1.853   7.493 -0.6407 -0.3292  0.5789
   36MOL   H42827798   4.193   1.821   7.258 -0.1627 -0.2542  0.3737
   36MOL   H42927799   3.839   2.063   7.328  0.4516  1.1908  1.0196
   36MOL   H43027800   3.912   2.110   7.552 -0.6749 -1.7961  0.4211
   36MOL   C43127801   4.328   2.100   6.612  0.2766 -0.0026 -0.2662
   36MOL   C43227802   4.191   2.089   6.681 -0.3546  0.2133  0.4414
   36MOL   C43327803   4.169   1.967   6.774 -0.1415  0.7171  0.5922
   36MOL   C43427804   4.017   1.956   6.816  0.0697 -0.2090 -0.4372
   36MOL   O43527805   3.994   1.847   6.900  0.1282  0.1172 -0.2894
   36MOL   C43627806   4.201   1.839   6.696  0.3052 -0.3302 -0.3838
   36MOL   C43727807   4.343   1.850   6.635  0.4013  0.0893 -0.0544
   36MOL   C43827808   4.365   1.969   6.545  0.0347  0.5689 -0.9309
   36MOL   C43927809   4.508   1.985   6.490  0.4134  0.1730 -0.4868
   36MOL   O44027810   4.546   1.853   6.439  0.9182  0.9297 -0.5762
   36MOL   C44127811   4.630   1.766   6.504 -0.2407 -0.7962  0.0013
   36MOL   O44227812   4.695   1.793   6.608 -0.1276 -0.0056 -0.1731
   36MOL   C44327813   4.638   1.637   6.430 -1.2006 -0.5718  0.0827
   36MOL   C44427814   4.682   1.519   6.495 -0.1325  0.1030  0.0893
   36MOL   C44527815   4.696   1.398   6.418  0.2249 -0.0766 -0.8992
   36MOL   C44627816   4.673   1.396   6.281  0.5550 -0.6875  0.1779
   36MOL   C44727817   4.694   1.272   6.198 -0.2726 -0.3611 -0.7224
   36MOL   O44827818   4.703   1.164   6.255  0.1461  0.1483  0.1138
   36MOL   O44927819   4.701   1.296   6.060  0.4636  0.4404 -0.8843
   36MOL   C45027820   4.625   1.513   6.221 -0.0978 -0.6802  0.0261
   36MOL   C45127821   4.613   1.632   6.291  0.5798 -0.0120 -0.6542
   36MOL   H45227822   4.319   2.175   6.533  1.1838  0.0327 -0.3395
   36MOL   H45327823   4.403   2.129   6.686 -0.5772  0.3336  0.4805
   36MOL   H45427824   4.167   2.177   6.741 -3.3526  0.5083 -1.0909
   36MOL   H45527825   4.118   2.073   6.601 -1.0531 -2.4075  1.5444
   36MOL   H45627826   4.229   1.980   6.864  2.1661 -1.0444 -0.6493
   36MOL   H45727827   3.967   2.047   6.847  0.2110  0.7504 -2.9249
   36MOL   H45827828   3.958   1.927   6.730 -0.8654  0.5981 -0.0775
   36MOL   H45927829   4.201   1.756   6.766 -0.0977  0.4482  0.5599
   36MOL   H46027830   4.119   1.814   6.629 -0.2891  0.2122  0.1267
   36MOL   H46127831   4.368   1.765   6.572  1.3598  0.4828 -0.2256
   36MOL   H46227832   4.423   1.857   6.709 -1.0359  0.6900  1.4718
   36MOL   H46327833   4.303   1.965   6.455 -3.8630 -0.4258  1.6797
   36MOL   H46427834   4.511   2.054   6.405  1.8071 -1.7176 -2.0166
   36MOL   H46527835   4.579   2.017   6.567 -1.6688 -1.6119  2.2343
   36MOL   H46627836   4.695   1.511   6.602  1.2553 -2.7321 -0.2631
   36MOL   H46727837   4.739   1.315   6.471 -0.4533 -0.2297 -0.5892
   36MOL   H46827838   4.592   1.512   6.119 -0.9783 -1.4780  0.3085
   36MOL   H46927839   4.578   1.715   6.232 -0.0769 -0.0800 -0.3719
   36MOL   C47027840   4.741   0.844   5.643  0.0486 -0.0627  0.3316
   36MOL   C47127841   4.658   0.954   5.713  0.4720 -0.6839  0.0456
   36MOL   C47227842   4.724   0.995   5.843  0.4544  0.0002  0.6289
   36MOL   C47327843   4.654   1.113   5.915  0.3848  0.4321 -0.4740
   36MOL   O47427844   4.758   1.181   5.983 -0.0953 -0.6342  0.3419
   36MOL   C47527845   4.738   0.873   5.942 -0.1811 -0.1937 -0.4872
   36MOL   C47627846   4.793   0.752   5.872 -0.1751  0.7077  0.3314
   36MOL   C47727847   4.736   0.719   5.729  1.2148  0.1700 -0.9389
   36MOL   C47827848   4.815   0.607   5.660 -0.3894 -0.0298 -0.1575
   36MOL   O47927849   4.773   0.573   5.529  0.3687  0.2309  0.5793
   36MOL   C48027850   4.682   0.472   5.507  0.1789 -0.1551  0.2672
   36MOL   O48127851   4.636   0.403   5.598 -0.1523 -0.0481 -0.1972
   36MOL   C48227852   4.654   0.451   5.359 -0.6062  0.1450 -0.5792
   36MOL   C48327853   4.711   0.520   5.255 -0.4863 -0.1016 -0.1278
   36MOL   C48427854   4.667   0.499   5.120  0.3117  0.2450 -0.7404
   36MOL   C48527855   4.568   0.404   5.088  0.8652  0.3599 -0.4402
   36MOL   C48627856   4.522   0.389   4.946 -0.0220 -0.2877 -0.4065
   36MOL   O48727857   4.543   0.465   4.853 -0.3947  0.0661 -0.2967
   36MOL   O48827858   4.439   0.283   4.934 -0.2360 -0.0078 -0.5462
   36MOL   C48927859   4.505   0.341   5.198 -0.3696 -0.5021  0.2990
   36MOL   C49027860   4.544   0.361   5.327  0.1447  0.4711 -0.0753
   36MOL   H49127861   4.707   0.819   5.542  1.6514 -1.5136  0.1394
   36MOL   H49227862   4.842   0.881   5.627 -0.6966  1.9167  0.0717
   36MOL   H49327863   4.661   1.042   5.649 -0.3918  0.3267  1.3494
   36MOL   H49427864   4.556   0.916   5.717  0.9983 -2.0332  1.3296
   36MOL   H49527865   4.826   1.029   5.823 -0.5975  1.7956 -1.9681
   36MOL   H49627866   4.612   1.187   5.847 -0.4243  1.3158  0.9386
   36MOL   H49727867   4.571   1.098   5.985  0.3893 -1.6093 -0.8916
   36MOL   H49827868   4.794   0.905   6.030  0.8606 -1.8070 -0.5380
   36MOL   H49927869   4.641   0.852   5.985  0.9091 -1.7002  1.2856
   36MOL   H50027870   4.767   0.664   5.930  1.6849  0.0380  0.1982
   36MOL   H50127871   4.902   0.748   5.878 -0.2728  0.4001  2.4710
   36MOL   H50227872   4.632   0.692   5.745  1.7527 -0.8736  0.9706
   36MOL   H50327873   4.916   0.646   5.660 -0.6215  0.6219 -1.7850
   36MOL   H50427874   4.828   0.518   5.721  1.9439  0.1438 -0.3704
   36MOL   H50527875   4.795   0.585   5.271  1.0821 -1.6292 -1.9293
   36MOL   H50627876   4.722   0.560   5.049  1.3367 -0.2502 -0.3841
   36MOL   H50727877   4.417   0.281   5.184  0.5640 -1.9524  0.5269
   36MOL   H50827878   4.488   0.314   5.407 -0.7909  2.2811  0.3619
   36MOL   C50927879   4.088   0.556   4.559 -0.1508  0.1680 -0.6951
   36MOL   C51027880   4.173   0.510   4.687  0.5741 -0.4790  0.6914
   36MOL   C51127881   4.138   0.365   4.722 -0.3551 -0.1513 -0.2702
   36MOL   C51227882   4.221   0.307   4.840  0.5169 -0.0960  1.0262
   36MOL   O51327883   4.357   0.278   4.809  0.1831  0.1558  0.3127
   36MOL   C51427884   3.988   0.348   4.745 -0.4514 -0.8113  0.0561
   36MOL   C51527885   3.901   0.404   4.630 -0.0477  0.1382 -0.2368
   36MOL   C51627886   3.939   0.545   4.583 -0.4924 -0.7479  0.1419
   36MOL   C51727887   3.858   0.572   4.462 -0.7645 -0.0707 -0.4286
   36MOL   O51827888   3.727   0.624   4.490  0.0711  0.0959 -0.3844
   36MOL   C51927889   3.626   0.595   4.408  0.5211  0.5177  0.1451
   36MOL   O52027890   3.635   0.532   4.302  0.0618  0.4533  0.3031
   36MOL   C52127891   3.492   0.627   4.471  0.6415 -0.3322 -0.5427
   36MOL   C52227892   3.480   0.704   4.586  0.9070  0.0531  0.2688
   36MOL   C52327893   3.350   0.724   4.646 -0.2069  0.3843 -0.1610
   36MOL   C52427894   3.232   0.661   4.595 -0.1913 -0.3985 -0.3127
   36MOL   C52527895   3.103   0.674   4.666  0.3975 -0.1550 -0.7869
   36MOL   O52627896   2.988   0.634   4.624 -0.6720 -0.3785 -0.0363
   36MOL   O52727897   3.115   0.743   4.780  0.2274  0.5828  0.4127
   36MOL   C52827898   3.254   0.581   4.481  1.0796  0.1882  0.9264
   36MOL   C52927899   3.378   0.573   4.411  0.6638  0.3378  0.4181
   36MOL   H53027900   4.126   0.656   4.540 -0.8366  0.4557 -0.5685
   36MOL   H53127901   4.119   0.501   4.470  0.7641  2.5663 -1.9209
   36MOL   H53227902   4.278   0.535   4.671 -0.0985  0.9384 -1.9298
   36MOL   H53327903   4.147   0.577   4.769  0.1864  1.3953 -0.9240
   36MOL   H53427904   4.173   0.304   4.639 -1.3645 -2.0178  0.6578
   36MOL   H53527905   4.201   0.385   4.914 -0.8077  1.0178 -0.4757
   36MOL   H53627906   4.170   0.217   4.872  0.4447  0.4421  2.4702
   36MOL   H53727907   3.968   0.243   4.765  0.5801 -0.6383  2.1510
   36MOL   H53827908   3.962   0.406   4.834 -0.5596 -1.6844  0.5923
   36MOL   H53927909   3.797   0.395   4.659  0.4089 -3.8350  0.5759
   36MOL   H54027910   3.904   0.332   4.548 -0.6198 -2.7447  2.1776
   36MOL   H54127911   3.900   0.607   4.664 -1.5291  0.9931 -1.6392
   36MOL   H54227912   3.914   0.645   4.405  0.3316  0.7182  1.5831
   36MOL   H54327913   3.845   0.474   4.416 -1.5911 -0.6911  1.0863
   36MOL   H54427914   3.567   0.742   4.637  0.7546 -1.2417  1.5134
   36MOL   H54527915   3.351   0.788   4.733  1.2789  1.3656 -0.8601
   36MOL   H54627916   3.173   0.521   4.442  2.2429 -1.1316  0.5077
   36MOL   H54727917   3.384   0.503   4.329 -1.5488 -0.1346  0.6380
   36MOL   C54827918   3.149   1.155   5.010 -0.4164 -0.0260 -0.3077
   36MOL   C54927919   3.067   1.027   4.984 -0.1149  0.9285  0.1235
   36MOL   C55027920   3.018   1.008   4.834 -0.4600 -0.6880  0.3316
   36MOL   C55127921   2.926   0.884   4.813 -0.3176 -0.3227  0.0651
   36MOL   O55227922   2.988   0.761   4.846  0.1884 -0.1806  0.3267
   36MOL   C55327923   2.943   1.135   4.788  0.4584  0.6004 -1.0178
   36MOL   C55427924   3.013   1.270   4.822  0.3694 -0.0643 -0.3264
   36MOL   C55527925   3.060   1.272   4.974  0.2790 -0.4148  0.0989
   36MOL   C55627926   3.115   1.422   5.001 -0.2763 -0.1670  0.2372
   36MOL   O55727927   3.010   1.516   5.012  0.4985 -0.5645 -0.4679
   36MOL   C55827928   2.958   1.529   5.132  0.2936 -0.1907 -0.6079
   36MOL   O55927929   2.979   1.457   5.235 -0.1063 -0.2896  0.5154
   36MOL   C56027930   2.857   1.638   5.139 -0.0360  0.7860  0.4624
   36MOL   C56127931   2.815   1.723   5.029 -0.0243  0.1414  0.3478
   36MOL   C56227932   2.717   1.820   5.051  0.2891  0.9807 -0.3789
   36MOL   C56327933   2.640   1.822   5.173 -0.2797  0.1394 -0.0504
   36MOL   C56427934   2.522   1.913   5.185  0.4481  0.1938  0.3756
   36MOL   O56527935   2.512   2.009   5.111  0.5041  0.1045  0.2240
   36MOL   O56627936   2.432   1.877   5.279 -0.2968  0.1722 -0.1484
   36MOL   C56727937   2.679   1.737   5.276  0.8990 -0.2874 -0.2836
   36MOL   C56827938   2.792   1.656   5.267  0.2172 -0.2160 -0.4168
   36MOL   H56927939   3.177   1.167   5.115  0.4793  0.2841 -0.5753
   36MOL   H57027940   3.231   1.170   4.940 -1.3134 -0.2811 -1.4426
   36MOL   H57127941   3.124   0.945   5.027 -0.6467  1.3399  1.6284
   36MOL   H57227942   2.977   1.019   5.045 -1.2381 -0.2719 -1.6384
   36MOL   H57327943   3.110   0.997   4.776  0.0844  0.7497  0.9259
   36MOL   H57427944   2.842   0.899   4.880  1.3325  3.3076  1.4714
   36MOL   H57527945   2.896   0.876   4.709 -0.5792  0.1430  0.1072
   36MOL   H57627946   2.913   1.146   4.684  1.4734  2.4869 -1.1415
   36MOL   H57727947   2.847   1.141   4.840  0.9616  0.2223 -0.0369
   36MOL   H57827948   2.939   1.349   4.813  0.1314 -0.3388 -0.7939
   36MOL   H57927949   3.086   1.310   4.752  0.7142  1.9934  1.1686
   36MOL   H58027950   2.975   1.256   5.041 -0.0138  1.8765  0.3130
   36MOL   H58127951   3.181   1.421   5.088  0.8167 -1.6794 -0.5833
   36MOL   H58227952   3.175   1.460   4.919 -2.9921  1.1039 -1.2367
   36MOL   H58327953   2.871   1.728   4.937 -1.0861 -0.4122 -0.3351
   36MOL   H58427954   2.689   1.893   4.977 -4.5372 -1.1597 -0.8769
   36MOL   H58527955   2.631   1.740   5.372 -3.3991  1.8778 -2.3426
   36MOL   H58627956   2.820   1.599   5.354  1.1091  0.0348 -0.5336
   36MOL   C58727957   2.067   1.533   5.301  0.3426 -0.5730 -0.4544
   36MOL   C58827958   2.183   1.637   5.281 -0.6719  0.6947 -0.5851
   36MOL   C58927959   2.119   1.770   5.234  0.7770 -0.3074 -0.7906
   36MOL   C59027960   2.201   1.906   5.202  0.7632 -0.5210  0.4022
   36MOL   O59127961   2.294   1.956   5.293 -0.0015  0.0839 -0.1190
   36MOL   C59227962   2.023   1.758   5.118 -0.0307  0.1118  0.2732
   36MOL   C59327963   1.912   1.654   5.140 -0.1659 -0.2695  0.0833
   36MOL   C59427964   1.976   1.518   5.179 -0.0696 -0.7845 -0.2334
   36MOL   C59527965   1.868   1.411   5.206  0.5160 -0.4052 -0.3346
   36MOL   O59627966   1.921   1.284   5.223 -0.0013  0.0342 -0.1446
   36MOL   C59727967   1.846   1.173   5.210 -0.1859 -0.1371 -0.0209
   36MOL   O59827968   1.725   1.184   5.218 -0.2273  0.2977  0.5104
   36MOL   C59927969   1.919   1.042   5.194  0.3995  0.3137  0.2857
   36MOL   C60027970   2.057   1.041   5.180 -0.0585  0.3796 -0.7665
   36MOL   C60127971   2.128   0.918   5.161 -0.8050 -0.8439 -0.5515
   36MOL   C60227972   2.054   0.802   5.147  0.1951 -0.1091 -0.5233
   36MOL   C60327973   2.117   0.673   5.088  0.7099  0.1115 -0.0503
   36MOL   O60427974   2.048   0.572   5.080  0.5476  0.1664  0.0305
   36MOL   O60527975   2.242   0.673   5.048 -0.8171 -0.2215 -0.6322
   36MOL   C60627976   1.909   0.805   5.157  0.4338 -0.2806 -0.4094
   36MOL   C60727977   1.842   0.922   5.187  0.1499  0.5201  0.4714
   36MOL   H60827978   2.120   1.439   5.311  0.4114 -0.4258  0.6803
   36MOL   H60927979   2.016   1.549   5.396 -0.5216  1.5497 -1.2481
   36MOL   H61027980   2.240   1.657   5.372 -0.5389  0.4623 -0.6176
   36MOL   H61127981   2.243   1.605   5.196 -0.9055  1.4425 -1.0354
   36MOL   H61227982   2.054   1.792   5.319 -1.5866  3.5800 -3.4463
   36MOL   H61327983   2.240   1.917   5.101  0.9488 -0.9331  0.4304
   36MOL   H61427984   2.122   1.981   5.205 -1.5083 -2.8458  0.4326
   36MOL   H61527985   1.959   1.844   5.099  1.5953  1.2910  0.0016
   36MOL   H61627986   2.073   1.739   5.023  1.2800  1.4210  0.6720
   36MOL   H61727987   1.851   1.634   5.051  0.9422 -0.6952 -0.5868
   36MOL   H61827988   1.845   1.688   5.219  1.8986  3.1220  0.4635
   36MOL   H61927989   2.029   1.492   5.088  0.0598  1.1474 -0.7300
   36MOL   H62027990   1.820   1.433   5.301 -0.8340 -0.3656 -1.0037
   36MOL   H62127991   1.797   1.422   5.123  0.9214  1.7317 -0.4261
   36MOL   H62227992   2.111   1.134   5.184 -0.9408  0.9391 -1.6739
   36MOL   H62327993   2.234   0.923   5.138 -1.4727  0.3303 -3.6130
   36MOL   H62427994   1.855   0.714   5.138 -0.5397  0.3533 -0.6984
   36MOL   H62527995   1.735   0.916   5.192  0.2038  0.5195  1.7334
   36MOL   C62627996   2.723   0.594   5.045  0.6905  0.7184  0.1177
   36MOL   C62727997   2.588   0.549   4.983  0.0059 -0.0567 -0.7958
   36MOL   C62827998   2.488   0.510   5.093  0.6878 -0.0991  0.3673
   36MOL   C62927999   2.356   0.461   5.031  0.0367 -0.4582 -0.2067
   36MOL   O63028000   2.284   0.566   4.957  0.0842 -0.7360  0.1343
   36MOL   C63128001   2.551   0.413   5.187 -0.6267 -0.0315  0.2318
   36MOL   C63228002   2.686   0.457   5.260  0.3571 -0.4261 -0.4114
   36MOL   C63328003   2.785   0.512   5.154  0.8103 -0.7549 -0.3796
   36MOL   C63428004   2.913   0.577   5.223  0.0368 -0.1067 -0.0082
   36MOL   O63528005   2.994   0.472   5.283 -0.1251 -0.0592 -0.1831
   36MOL   C63628006   3.100   0.501   5.361 -0.3275  0.1534  0.2987
   36MOL   O63728007   3.142   0.614   5.376 -0.5912 -0.1844 -0.2129
   36MOL   C63828008   3.148   0.373   5.429 -0.5189 -0.1952 -0.2556
   36MOL   C63928009   3.243   0.387   5.534 -0.1256  0.3987 -0.0975
   36MOL   C64028010   3.297   0.275   5.601 -0.6408  0.1439 -0.0798
   36MOL   C64128011   3.237   0.147   5.571  0.0864  0.5287 -0.0882
   36MOL   C64228012   3.302   0.025   5.633  0.5317 -0.2253  0.8149
   36MOL   O64328013   3.400   0.032   5.704 -0.1042  0.2297  0.1311
   36MOL   O64428014   3.224   7.946   5.616  0.3929 -0.1299 -0.0591
   36MOL   C64528015   3.142   0.127   5.466 -0.2192 -0.6312 -0.5194
   36MOL   C64628016   3.095   0.244   5.401 -0.0830 -0.3711  0.4000
   36MOL   H64728017   2.801   0.607   4.971  0.0681 -0.5788 -0.7830
   36MOL   H64828018   2.712   0.698   5.075 -3.2725  0.1378  0.9605
   36MOL   H64928019   2.558   0.630   4.917  1.2523 -0.8626 -2.3766
   36MOL   H65028020   2.613   0.464   4.919  0.4562  0.4265 -1.2633
   36MOL   H65128021   2.463   0.591   5.161  0.0461  0.1400 -0.1374
   36MOL   H65228022   2.375   0.377   4.965  1.9858  0.7101 -1.1876
   36MOL   H65328023   2.289   0.434   5.112 -0.9820 -0.8871 -1.1799
   36MOL   H65428024   2.481   0.372   5.260 -2.0369 -0.4212 -1.3003
   36MOL   H65528025   2.566   0.321   5.130 -1.1768  0.8699 -1.4130
   36MOL   H65628026   2.729   0.373   5.314 -2.1618 -0.1317  2.2052
   36MOL   H65728027   2.652   0.533   5.331  0.2174 -2.0377  1.2693
   36MOL   H65828028   2.823   0.421   5.108 -1.1759 -2.0148  0.4179
   36MOL   H65928029   2.973   0.627   5.146  1.1861  1.0547  1.6099
   36MOL   H66028030   2.896   0.663   5.288  2.6880 -0.9530  1.9099
   36MOL   H66128031   3.288   0.485   5.547  0.3360  0.2299 -0.4085
   36MOL   H66228032   3.386   0.288   5.661 -0.6647  0.4642 -0.1129
   36MOL   H66328033   3.112   0.027   5.438  1.6741 -1.3503 -0.0677
   36MOL   H66428034   3.024   0.233   5.320  0.7790 -1.1819 -0.2510
   36MOL   C66528035   3.693   7.735   5.399  0.0108  0.2477  0.5424
   36MOL   C66628036   3.538   7.720   5.416  0.1594  0.4944  0.2409
   36MOL   C66728037   3.490   7.786   5.549  0.3828  0.5310 -1.0285
   36MOL   C66828038   3.343   7.752   5.579 -0.0681  0.3110 -0.1394
   36MOL   O66928039   3.278   7.825   5.683 -0.3919 -0.2425 -0.4846
   36MOL   C67028040   3.565   7.723   5.665  0.0677 -0.5594  0.0788
   36MOL   C67128041   3.716   7.744   5.638  0.6691 -0.5075  0.0764
   36MOL   C67228042   3.774   7.672   5.523  0.3901 -0.0551 -0.0784
   36MOL   C67328043   3.932   7.696   5.522  0.4647 -0.0680 -0.0437
   36MOL   O67428044   3.987   7.668   5.391  0.3722  0.4000 -0.0996
   36MOL   C67528045   4.014   7.540   5.355 -0.3200  0.1749 -1.1175
   36MOL   O67628046   4.002   7.448   5.433  0.5432  0.6402  0.0580
   36MOL   C67728047   4.043   7.519   5.210 -0.9516  0.1039 -0.7785
   36MOL   C67828048   4.065   7.390   5.164 -0.4597  0.0073  0.4764
   36MOL   C67928049   4.092   7.364   5.026  0.8774  0.2247 -0.1316
   36MOL   C68028050   4.099   7.463   4.933  0.5520  0.0395 -0.0182
   36MOL   C68128051   4.127   7.432   4.789  0.0158 -0.0252 -0.1480
   36MOL   O68228052   4.155   7.319   4.753 -0.0943  0.2447  0.0279
   36MOL   O68328053   4.091   7.529   4.706  0.3853 -0.1601  0.2922
   36MOL   C68428054   4.075   7.594   4.978 -0.0277 -0.4916  0.3962
   36MOL   C68528055   4.051   7.626   5.116  0.1387 -0.4405 -0.4880
   36MOL   H68628056   3.735   7.673   5.320 -1.3008 -0.3101  0.2783
   36MOL   H68728057   3.714   7.838   5.372  1.7359 -0.1511  0.2751
   36MOL   H68828058   3.482   7.772   5.338 -0.2488 -1.0525 -0.5097
   36MOL   H68928059   3.515   7.614   5.409  0.5560  0.3522  0.9536
   36MOL   H69028060   3.504   7.894   5.540  0.2257  0.7009  0.6376
   36MOL   H69128061   3.283   7.763   5.488 -0.6074  2.3717  0.4397
   36MOL   H69228062   3.332   7.645   5.596 -1.8386  0.5468  0.3344
   36MOL   H69328063   3.541   7.769   5.760  1.8839 -1.0402  0.7742
   36MOL   H69428064   3.533   7.619   5.662 -1.3602 -0.1205 -0.5214
   36MOL   H69528065   3.768   7.704   5.724  0.4149  0.3090  0.6133
   36MOL   H69628066   3.734   7.852   5.637 -0.0972 -0.3761 -1.4675
   36MOL   H69728067   3.747   7.566   5.528 -2.3060  0.6273  0.2739
   36MOL   H69828068   3.970   7.794   5.551 -0.2994  0.8518 -2.0310
   36MOL   H69928069   3.961   7.634   5.607 -1.3625  1.7186  1.9435
   36MOL   H70028070   4.054   7.311   5.236 -0.3076  0.9534  1.5449
   36MOL   H70128071   4.129   7.267   4.996 -0.0825  0.3868 -1.9038
   36MOL   H70228072   4.064   7.670   4.902 -0.3767 -1.2617 -0.3189
   36MOL   H70328073   4.038   7.727   5.152  0.9104 -1.0135  1.5095
   36MOL   C70428074   3.958   7.364   4.116  0.2617  0.2870  0.7715
   36MOL   C70528075   3.931   7.402   4.261 -0.3925 -0.7633  0.7837
   36MOL   C70628076   4.058   7.419   4.353  0.3740 -0.7431 -0.6150
   36MOL   C70728077   4.011   7.453   4.496  0.1900 -0.0707 -0.3530
   36MOL   O70828078   4.124   7.499   4.562  0.0230  0.1286 -0.5665
   36MOL   C70928079   4.137   7.289   4.336  0.0988 -0.0217  0.5716
   36MOL   C71028080   4.170   7.257   4.186  0.2802 -0.3113 -0.2579
   36MOL   C71128081   4.039   7.235   4.104 -0.2054  0.7528 -0.1707
   36MOL   C71228082   4.071   7.184   3.960  0.6423  0.8086 -0.6820
   36MOL   O71328083   4.159   7.276   3.898 -0.5369  0.1388  0.0437
   36MOL   C71428084   4.189   7.271   3.769 -0.1462 -0.8247 -0.6043
   36MOL   O71528085   4.130   7.198   3.691  0.0169  0.0498 -0.4690
   36MOL   C71628086   4.292   7.383   3.735 -0.7407  0.1131 -0.2902
   36MOL   C71728087   4.336   7.391   3.603  0.0788 -0.1343  0.4713
   36MOL   C71828088   4.432   7.487   3.568  0.8320 -0.1809  0.4835
   36MOL   C71928089   4.477   7.583   3.663 -0.1498  0.4737  0.0014
   36MOL   C72028090   4.564   7.701   3.626 -0.6836 -0.3219 -1.0799
   36MOL   O72128091   4.558   7.814   3.682 -0.4165 -0.2253 -0.0044
   36MOL   O72228092   4.642   7.679   3.517 -0.1838  0.2997  0.2337
   36MOL   C72328093   4.429   7.574   3.797  0.2100  0.3131  1.2592
   36MOL   C72428094   4.334   7.478   3.833 -0.0172 -0.7393  0.1134
   36MOL   H72528095   3.864   7.355   4.061  1.2056  0.0333 -0.8596
   36MOL   H72628096   4.021   7.442   4.074  0.3459  0.2489  0.8246
   36MOL   H72728097   3.864   7.487   4.254  0.9183  0.3366  1.3125
   36MOL   H72828098   3.864   7.324   4.298 -0.0707 -0.7762  1.3519
   36MOL   H72928099   4.124   7.500   4.323  1.0858  0.0476  2.9825
   36MOL   H73028100   3.935   7.531   4.503  0.8142  0.5403 -0.3378
   36MOL   H73128101   3.973   7.364   4.547  0.5989  0.1301  0.3069
   36MOL   H73228102   4.234   7.294   4.385  0.6199 -0.2873 -0.4172
   36MOL   H73328103   4.077   7.205   4.371 -0.1776  0.6928  1.8551
   36MOL   H73428104   4.232   7.168   4.180 -1.4802 -1.5419 -0.5179
   36MOL   H73528105   4.232   7.339   4.148 -0.7623  0.6898  0.1506
   36MOL   H73628106   3.977   7.157   4.148  1.0124 -1.6786 -2.5769
   36MOL   H73728107   4.123   7.088   3.961 -1.6538 -0.4543 -0.0665
   36MOL   H73828108   3.975   7.172   3.909  0.0658  2.0444  0.1079
   36MOL   H73928109   4.298   7.327   3.525  1.0269  0.2327 -0.2993
   36MOL   H74028110   4.466   7.486   3.466  0.4848  2.0578  0.3213
   36MOL   H74128111   4.451   7.652   3.869  2.3350  0.0527  0.9302
   36MOL   H74228112   4.290   7.473   3.931  0.4793  1.3226  0.4565
   36MOL   C74328113   5.097   8.007   3.417  0.3693 -0.2581 -0.1038
   36MOL   C74428114   4.988   7.898   3.417 -0.2344 -0.0175  1.0960
   36MOL   C74528115   4.971   7.841   3.560 -0.1690 -0.3413 -0.2238
   36MOL   C74628116   4.862   7.732   3.562 -0.1363  0.4742 -0.7957
   36MOL   O74728117   4.748   7.780   3.492 -0.2161  0.4112  0.1648
   36MOL   C74828118   5.104   7.777   3.599  0.0194 -0.2632 -0.4290
   36MOL   C74928119   5.222   7.872   3.585 -0.2656 -0.4405 -0.0021
   36MOL   C75028120   5.228   7.941   3.440 -0.0059 -0.0691 -0.3616
   36MOL   C75128121   5.348   0.000   3.444  0.6122 -0.2815  0.6369
   36MOL   O75228122   5.390   0.054   3.322 -0.6549 -0.1213  0.1399
   36MOL   C75328123   5.370   0.188   3.273  0.0821  0.2278 -0.5550
   36MOL   O75428124   5.280   0.260   3.316 -0.8144  0.1521  0.1940
   36MOL   C75528125   5.464   0.234   3.162  1.1709 -0.1425 -0.5114
   36MOL   C75628126   5.559   0.141   3.113 -0.0398  0.1910  0.2391
   36MOL   C75728127   5.649   0.174   3.005  0.3732 -0.1114 -0.5070
   36MOL   C75828128   5.647   0.310   2.959 -0.2556  0.2211  0.0860
   36MOL   C75928129   5.741   0.347   2.843 -0.2580  0.2610 -0.1443
   36MOL   O76028130   5.809   0.261   2.787 -0.0415 -0.5655  0.0159
   36MOL   O76128131   5.732   0.472   2.786  0.2117 -0.1333 -0.6657
   36MOL   C76228132   5.555   0.400   3.011 -0.6191  0.3221  0.0682
   36MOL   C76328133   5.465   0.365   3.111  0.1166  0.1501 -0.4165
   36MOL   H76428134   5.107   8.032   3.311 -0.5937 -0.5826 -0.2741
   36MOL   H76528135   5.064   0.057   3.475 -2.5230 -1.1340 -0.4084
   36MOL   H76628136   4.897   7.933   3.369 -0.9302 -0.0188  2.3952
   36MOL   H76728137   5.018   7.813   3.356 -1.9377  0.0020  0.2249
   36MOL   H76828138   4.937   7.926   3.620 -1.9435 -0.3464 -1.1866
   36MOL   H76928139   4.889   7.632   3.527  0.2947  0.6438 -0.9442
   36MOL   H77028140   4.841   7.716   3.668  1.2904 -0.4018 -0.6300
   36MOL   H77128141   5.092   7.738   3.701 -0.6890 -0.5293 -0.6126
   36MOL   H77228142   5.116   7.695   3.528 -1.6901  0.6667 -1.8097
   36MOL   H77328143   5.317   7.821   3.601  0.2190  0.6203  0.5363
   36MOL   H77428144   5.210   7.945   3.665 -0.3082  0.3043 -0.6923
   36MOL   H77528145   5.242   7.870   3.358 -2.9122 -1.8017  0.5821
   36MOL   H77628146   5.348   0.082   3.515  3.0007 -0.1072  0.4955
   36MOL   H77728147   5.429   7.968   3.473 -0.7882 -2.0681  0.4797
   36MOL   H77828148   5.544   0.037   3.139 -0.3475 -0.8959 -3.8876
   36MOL   H77928149   5.706   0.097   2.955  2.1103  2.1011 -2.0726
   36MOL   H78028150   5.571   0.502   2.979  0.7473  0.0007 -0.3142
   36MOL   H78128151   5.402   0.444   3.149  1.6993  1.9131 -1.3749
   36MOL   H78228152   5.748   0.458   2.694  0.8654  2.3673 -0.9830
   37MOL     C128153   6.416   5.018   3.866  0.0054  0.2134  0.4459
   37MOL     C228154   6.543   4.930   3.881 -0.0021 -0.0122 -0.0810
   37MOL     C328155   6.675   4.989   3.822  0.0201 -0.0088 -0.4515
   37MOL     C428156   6.782   4.884   3.827 -0.6798  0.2461 -0.2654
   37MOL     O528157   6.767   4.768   3.741 -0.2895  0.3056 -0.1538
   37MOL     C628158   6.649   5.048   3.687  0.0982 -0.4891  0.4971
   37MOL     C728159   6.522   5.138   3.681  0.7136 -0.2204  0.0097
   37MOL     C828160   6.397   5.061   3.723 -0.8319  0.7055  1.0094
   37MOL     C928161   6.261   5.134   3.700  0.2937 -0.0645 -0.7948
   37MOL    O1028162   6.147   5.048   3.713 -0.4990 -0.0708 -0.3058
   37MOL    C1128163   6.029   5.092   3.668 -0.2537 -0.5026 -0.1151
   37MOL    O1228164   6.011   5.212   3.642 -0.5228 -0.2809 -0.2348
   37MOL    C1328165   5.929   4.993   3.641 -0.8068 -0.3361 -0.1642
   37MOL    C1428166   5.823   5.017   3.543 -0.0392  0.3371 -0.5683
   37MOL    C1528167   5.719   4.926   3.532  0.0215  0.2013  0.2986
   37MOL    C1628168   5.732   4.799   3.582 -0.1937 -0.4136 -0.1822
   37MOL    C1728169   5.639   4.694   3.541 -0.4743  0.4831  0.7064
   37MOL    O1828170   5.539   4.715   3.472 -0.6477 -0.2186 -0.6231
   37MOL    O1928171   5.671   4.571   3.586  0.2227 -0.0847  0.0225
   37MOL    C2028172   5.832   4.769   3.680 -0.4579  0.0308 -0.2571
   37MOL    C2128173   5.933   4.870   3.711  0.9438  0.2628 -0.7228
   37MOL    H2228174   6.327   4.980   3.917 -1.0607  3.6299  1.2585
   37MOL    H2328175   6.447   5.104   3.926 -1.0651 -0.8360  2.5596
   37MOL    H2428176   6.554   4.909   3.987 -1.2094 -2.6797 -0.4458
   37MOL    H2528177   6.519   4.837   3.830  2.0936 -0.5234 -0.1630
   37MOL    H2628178   6.705   5.065   3.894 -2.2466  0.0915  0.4534
   37MOL    H2728179   6.882   4.925   3.821 -0.4161 -0.2529  0.6705
   37MOL    H2828180   6.792   4.843   3.928  0.1616 -2.1108 -1.2533
   37MOL    H2928181   6.737   5.098   3.648 -1.2489  1.3261 -0.3247
   37MOL    H3028182   6.632   4.971   3.612 -0.2798  0.1351 -0.0696
   37MOL    H3128183   6.524   5.166   3.576  1.7444 -0.0605  0.0668
   37MOL    H3228184   6.543   5.226   3.741 -0.8375  0.2061 -0.0475
   37MOL    H3328185   6.395   4.981   3.649  1.6881  1.0621  0.5229
   37MOL    H3428186   6.255   5.217   3.771  2.0685 -1.1156  0.6462
   37MOL    H3528187   6.256   5.186   3.605  2.9048  1.2337 -0.2703
   37MOL    H3628188   5.814   5.108   3.486 -2.7723  0.8473  0.5613
   37MOL    H3728189   5.638   4.938   3.462 -0.6978  3.2881  1.5650
   37MOL    H3828190   5.832   4.669   3.721 -1.9168 -0.0424 -0.4233
   37MOL    H3928191   6.012   4.858   3.784  0.5458  0.6798 -0.2272
   37MOL    H4028192   6.768   4.804   3.654  1.7850  1.9635  0.5103
   37MOL    C4128193   5.236   4.185   3.489  0.2124 -0.6738 -0.4180
   37MOL    C4228194   5.305   4.323   3.522 -0.1711 -0.3119 -0.1007
   37MOL    C4328195   5.409   4.307   3.635 -0.0717 -0.4969 -0.4068
   37MOL    C4428196   5.483   4.442   3.649 -0.4612  0.3439 -0.4254
   37MOL    O4528197   5.577   4.462   3.547 -0.0966 -0.2402  0.5850
   37MOL    C4628198   5.337   4.264   3.762 -0.9785 -0.2346 -0.9572
   37MOL    C4728199   5.269   4.132   3.731 -0.5780  0.1185  0.1234
   37MOL    C4828200   5.166   4.139   3.614 -0.0242  0.4558 -0.7133
   37MOL    C4928201   5.083   4.015   3.585  0.1778  1.2002 -0.0731
   37MOL    O5028202   5.163   3.906   3.550 -0.0441 -0.5546 -0.6623
   37MOL    C5128203   5.106   3.802   3.485  0.5949 -0.3175 -0.0320
   37MOL    O5228204   4.982   3.789   3.476 -0.2343  0.1247  0.1110
   37MOL    C5328205   5.210   3.698   3.447  0.0103  0.2780  0.1137
   37MOL    C5428206   5.328   3.684   3.519 -0.2195 -0.0897  0.5792
   37MOL    C5528207   5.419   3.580   3.478 -0.2804  0.4994 -0.3382
   37MOL    C5628208   5.383   3.479   3.382  0.2489  0.5445  0.2146
   37MOL    C5728209   5.472   3.361   3.357  0.9264 -0.1742  0.3805
   37MOL    O5828210   5.582   3.340   3.416 -0.7389 -0.0586  0.0301
   37MOL    O5928211   5.426   3.282   3.264  0.1805 -0.0734 -0.0003
   37MOL    C6028212   5.258   3.493   3.315  0.4221 -0.1656  0.3996
   37MOL    C6128213   5.177   3.605   3.346 -0.4188 -0.2048  0.2575
   37MOL    H6228214   5.161   4.217   3.416 -0.1377 -0.5685 -0.0148
   37MOL    H6328215   5.308   4.112   3.451  0.8991 -0.4378  0.4363
   37MOL    H6428216   5.340   4.367   3.429 -0.3301 -1.8151 -0.8963
   37MOL    H6528217   5.223   4.383   3.562 -0.2690 -0.4702 -0.0596
   37MOL    H6628218   5.478   4.227   3.609  0.3322 -0.2678 -0.0685
   37MOL    H6728219   5.412   4.525   3.651 -1.5528 -0.5970  2.9514
   37MOL    H6828220   5.547   4.445   3.737 -2.6501 -0.9576  1.2747
   37MOL    H6928221   5.405   4.246   3.846 -0.4315  1.0093 -1.1194
   37MOL    H7028222   5.261   4.338   3.789 -0.7517  0.0100 -0.9883
   37MOL    H7128223   5.220   4.090   3.818  1.5433 -1.1973  0.7042
   37MOL    H7228224   5.349   4.060   3.717 -1.0516 -0.5992  1.0178
   37MOL    H7328225   5.093   4.218   3.627  0.4032  0.3677  2.7170
   37MOL    H7428226   5.032   3.984   3.676  0.9023 -0.2302 -0.1416
   37MOL    H7528227   5.008   4.029   3.506  0.7511  0.2262 -0.8054
   37MOL    H7628228   5.359   3.758   3.592 -0.8060  0.9082 -0.1612
   37MOL    H7728229   5.512   3.565   3.530 -0.0718  0.8846 -0.5929
   37MOL    H7828230   5.234   3.430   3.231  0.2610 -0.8276  0.9327
   37MOL    H7928231   5.091   3.631   3.286  1.5147  1.0787 -2.0229
   37MOL    C8028232   5.503   2.684   3.412  0.5542 -0.3799 -0.0332
   37MOL    C8128233   5.413   2.801   3.353  0.3650  0.2074 -1.0792
   37MOL    C8228234   5.498   2.933   3.331  0.3329  0.2251  0.0946
   37MOL    C8328235   5.411   3.050   3.280  0.1241  0.6279  0.0258
   37MOL    O8428236   5.502   3.154   3.250  0.1894 -0.0216  0.5385
   37MOL    C8528237   5.580   2.971   3.450 -0.1308  0.1120 -0.7593
   37MOL    C8628238   5.661   2.849   3.504 -0.6391  0.0772 -0.1395
   37MOL    C8728239   5.576   2.729   3.541 -0.1723 -0.2017 -0.3413
   37MOL    C8828240   5.664   2.608   3.581  0.2148 -0.4634 -0.0723
   37MOL    O8928241   5.743   2.560   3.475  0.0495 -0.0718 -0.3029
   37MOL    C9028242   5.828   2.468   3.499 -0.5716  0.0716 -0.0069
   37MOL    O9128243   5.868   2.436   3.610  0.0094  0.5199  0.4545
   37MOL    C9228244   5.884   2.412   3.372  0.2564  0.1743  0.0210
   37MOL    C9328245   5.818   2.428   3.240 -0.4757  0.0527 -0.0501
   37MOL    C9428246   5.877   2.370   3.126 -0.1239 -0.9201 -0.2606
   37MOL    C9528247   6.000   2.302   3.136  0.2120 -0.2777 -0.1670
   37MOL    C9628248   6.056   2.239   3.011  0.0828 -0.6556  0.7873
   37MOL    O9728249   6.167   2.192   3.009 -0.3804  0.1955  1.0434
   37MOL    O9828250   5.969   2.221   2.902  0.3980 -0.3806 -0.1229
   37MOL    C9928251   6.074   2.298   3.260 -0.8434 -0.0319  0.1299
   37MOL   C10028252   6.015   2.358   3.376 -0.3046  1.2500 -0.0905
   37MOL   H10128253   5.450   2.592   3.436  0.8823  0.1273  2.8441
   37MOL   H10228254   5.577   2.678   3.331  0.8498 -1.8272  0.3413
   37MOL   H10328255   5.378   2.770   3.255 -0.8903 -1.3987 -0.1534
   37MOL   H10428256   5.331   2.823   3.421  2.4563  0.0982  1.5433
   37MOL   H10528257   5.577   2.900   3.264  0.6644  0.4216  0.3891
   37MOL   H10628258   5.369   3.015   3.186  1.0419 -0.2868 -0.0523
   37MOL   H10728259   5.329   3.073   3.349  1.7422  2.8235  1.3142
   37MOL   H10828260   5.655   3.039   3.408 -0.4919  0.9827 -0.0307
   37MOL   H10928261   5.524   3.031   3.523 -0.8698  0.1018 -1.3158
   37MOL   H11028262   5.715   2.882   3.593 -1.3785  0.4468  0.1769
   37MOL   H11128263   5.733   2.822   3.427  0.3164  1.6334  0.1811
   37MOL   H11228264   5.507   2.750   3.623 -1.0810 -1.4027 -0.7767
   37MOL   H11328265   5.735   2.641   3.657  2.4590  0.9957 -2.6954
   37MOL   H11428266   5.602   2.531   3.628  0.7368 -1.3547 -0.8324
   37MOL   H11528267   5.727   2.483   3.227 -0.2903 -0.1925 -2.6384
   37MOL   H11628268   5.818   2.375   3.036  3.1374 -0.8504 -2.4809
   37MOL   H11728269   6.163   2.238   3.262  0.2534  1.6040  1.9994
   37MOL   H11828270   6.076   2.370   3.465  0.1103  1.6682 -0.4299
   37MOL   C11928271   6.237   1.853   2.558  0.0713 -0.8986 -0.2940
   37MOL   C12028272   6.219   1.971   2.651  0.1844  0.2220  0.2384
   37MOL   C12128273   6.109   2.062   2.596  0.1385 -0.5119 -0.3895
   37MOL   C12228274   6.068   2.180   2.692 -0.5073  0.1253  0.2660
   37MOL   O12328275   6.024   2.120   2.810 -0.0870 -0.4902  0.2003
   37MOL   C12428276   6.139   2.119   2.456  0.6709  0.4994 -0.8029
   37MOL   C12528277   6.165   1.995   2.362  0.0930 -0.2520 -0.7230
   37MOL   C12628278   6.276   1.898   2.417 -0.0006  0.2305  0.2238
   37MOL   C12728279   6.304   1.782   2.320  0.4402  0.7169 -0.0480
   37MOL   O12828280   6.332   1.826   2.186  0.1090 -0.3138 -0.1366
   37MOL   C12928281   6.448   1.802   2.127 -0.2500  0.2289  0.0090
   37MOL   O13028282   6.545   1.765   2.196  0.2203 -0.3538 -0.6033
   37MOL   C13128283   6.453   1.841   1.985  0.5943 -0.1682  0.3669
   37MOL   C13228284   6.575   1.878   1.921  0.6198  0.0536  0.4778
   37MOL   C13328285   6.573   1.923   1.791 -0.7104  0.6503 -0.0707
   37MOL   C13428286   6.456   1.929   1.717  0.1642  0.1157  0.1331
   37MOL   C13528287   6.461   1.951   1.570 -0.3246  0.4511  0.2279
   37MOL   O13628288   6.564   1.959   1.505 -0.4508 -0.1848 -0.3721
   37MOL   O13728289   6.340   1.975   1.511  0.1607  0.1728  0.1742
   37MOL   C13828290   6.330   1.900   1.778  0.8117  0.3321  0.9944
   37MOL   C13928291   6.337   1.852   1.910  0.2464  0.6145  0.6427
   37MOL   H14028292   6.310   1.788   2.605  1.5026 -0.2576 -1.5781
   37MOL   H14128293   6.149   1.789   2.553 -1.1193  0.7463 -0.8400
   37MOL   H14228294   6.224   1.963   2.759  2.5274  2.9453  0.3947
   37MOL   H14328295   6.311   2.028   2.637  0.0261  0.8647  1.7139
   37MOL   H14428296   6.016   2.006   2.592  0.3339 -0.8006 -0.9928
   37MOL   H14528297   6.165   2.227   2.712 -1.5182  1.7072  1.4943
   37MOL   H14628298   5.994   2.236   2.636  0.0223 -0.2058 -0.8028
   37MOL   H14728299   6.051   2.170   2.417  0.1787 -0.7882 -1.3990
   37MOL   H14828300   6.224   2.186   2.471  0.8517  0.0997 -0.0351
   37MOL   H14928301   6.175   2.012   2.254  0.8374 -2.2807 -0.9884
   37MOL   H15028302   6.077   1.931   2.362  0.1907 -0.3856 -0.2085
   37MOL   H15128303   6.364   1.963   2.422  0.9294 -0.7459 -2.4599
   37MOL   H15228304   6.381   1.717   2.362  0.4948  1.5478  1.1552
   37MOL   H15328305   6.215   1.719   2.309 -0.7810  2.2820  0.5920
   37MOL   H15428306   6.675   1.877   1.962 -0.5860 -1.9054  3.6011
   37MOL   H15528307   6.667   1.944   1.742  0.6081 -1.0697  1.6301
   37MOL   H15628308   6.236   1.910   1.727 -0.1522  0.6450  2.7632
   37MOL   H15728309   6.241   1.824   1.951  1.4405 -1.7673  1.8745
   37MOL   C15828310   6.409   1.914   0.906  0.1897 -0.2383 -0.2806
   37MOL   C15928311   6.437   1.928   1.052  0.2706  0.7595 -0.2413
   37MOL   C16028312   6.306   1.919   1.131  0.9398  0.1063 -0.3774
   37MOL   C16128313   6.301   1.894   1.286  0.5895  0.0504 -0.2674
   37MOL   O16228314   6.349   2.004   1.358  0.2139  0.3416 -0.2587
   37MOL   C16328315   6.229   2.045   1.084 -0.6562 -0.6477  0.0108
   37MOL   C16428316   6.198   2.044   0.936 -0.1938 -0.1756 -0.0001
   37MOL   C16528317   6.323   2.026   0.847  0.0107 -0.0453 -0.8244
   37MOL   C16628318   6.269   1.990   0.703 -0.2911 -0.0750  0.9490
   37MOL   O16728319   6.379   1.992   0.620  0.0845  0.1179 -0.0921
   37MOL   C16828320   6.367   1.967   0.494  0.2472  0.5201  0.2153
   37MOL   O16928321   6.260   1.960   0.434  0.0398 -0.1386  0.1896
   37MOL   C17028322   6.500   1.938   0.425  0.1621 -0.4711 -0.2208
   37MOL   C17128323   6.509   1.974   0.286  0.5058  0.4632  0.3946
   37MOL   C17228324   6.629   1.959   0.215 -0.0419 -0.3688  0.7236
   37MOL   C17328325   6.742   1.906   0.288 -0.5292  0.0441  0.0688
   37MOL   C17428326   6.872   1.895   0.217 -0.6061  0.2388  0.5463
   37MOL   O17528327   6.893   1.926   0.104  0.2672  0.0879  0.5367
   37MOL   O17628328   6.965   1.835   0.298 -0.3415  0.1782  0.3576
   37MOL   C17728329   6.735   1.868   0.423  0.3058 -0.0982 -0.0053
   37MOL   C17828330   6.617   1.885   0.495 -0.0371 -0.2276  0.0612
   37MOL   H17928331   6.501   1.917   0.847  0.0051  0.4738 -0.5433
   37MOL   H18028332   6.369   1.813   0.902  1.3597 -0.7324  0.2026
   37MOL   H18128333   6.499   1.843   1.080 -0.2191 -0.2849 -2.1781
   37MOL   H18228334   6.480   2.026   1.070 -0.5604  1.0642  0.0899
   37MOL   H18328335   6.261   1.826   1.097  2.0139 -1.3528  2.0942
   37MOL   H18428336   6.200   1.875   1.321  0.5291 -0.2789 -0.6114
   37MOL   H18528337   6.359   1.805   1.311  1.8164  1.2003  1.0597
   37MOL   H18628338   6.133   2.039   1.136 -1.5530  1.1378 -1.3925
   37MOL   H18728339   6.275   2.138   1.119  2.0833 -2.0463  0.2605
   37MOL   H18828340   6.134   2.130   0.914  2.1843  1.6535  0.0817
   37MOL   H18928341   6.141   1.954   0.914 -1.8087  0.3948  1.7174
   37MOL   H19028342   6.372   2.124   0.843 -2.6756  1.3323 -1.9594
   37MOL   H19128343   6.229   1.889   0.699 -2.3245  0.7677 -1.2939
   37MOL   H19228344   6.202   2.075   0.689  1.9155  1.8854  1.8377
   37MOL   H19328345   6.424   2.003   0.226  0.7630 -0.9866 -0.7169
   37MOL   H19428346   6.630   1.986   0.110 -1.7411 -0.4266  0.6898
   37MOL   H19528347   6.819   1.839   0.485 -0.8482 -1.1746  1.0541
   37MOL   H19628348   6.619   1.847   0.596  0.2791 -0.7926 -0.1559
   37MOL   C19728349   7.554   1.811   0.213  0.0465 -0.2597 -0.0946
   37MOL   C19828350   7.412   1.805   0.274 -0.3957  0.5580 -0.7308
   37MOL   C19928351   7.330   1.907   0.199  0.6002  0.0272 -0.8307
   37MOL   C20028352   7.183   1.916   0.252 -0.0793  0.1919 -0.5047
   37MOL   O20128353   7.097   1.806   0.229  0.0067  0.1139 -0.3370
   37MOL   C20228354   7.399   2.051   0.199  0.2720  0.1745 -0.2479
   37MOL   C20328355   7.545   2.049   0.149 -0.1762 -0.6868  0.2589
   37MOL   C20428356   7.624   1.942   0.233 -0.6537 -0.8753  0.2784
   37MOL   C20528357   7.769   1.938   0.192  0.4393 -0.1529 -0.9252
   37MOL   O20628358   7.808   2.062   0.247 -0.2837  0.3652  0.2234
   37MOL   C20728359   7.916   2.126   0.202  0.4858 -0.2270 -0.0532
   37MOL   O20828360   7.989   2.085   0.109 -0.0474 -0.4846 -0.0480
   37MOL   C20928361   7.935   2.261   0.274 -0.1920  0.0220 -0.0473
   37MOL   C21028362   7.821   2.332   0.313  0.1781 -0.2576  0.4932
   37MOL   C21128363   7.838   2.462   0.366 -0.0076  0.4314 -0.0031
   37MOL   C21228364   7.965   2.524   0.367  0.0371  0.5490  0.3136
   37MOL   C21328365   7.978   2.663   0.413 -0.0826  0.3842  0.3006
   37MOL   O21428366   7.903   2.718   0.489  0.0451  0.0000  0.4185
   37MOL   O21528367   0.027   2.731   0.332 -0.0897 -0.5471 -0.1620
   37MOL   C21628368   0.042   2.456   0.318  0.2377  0.5174  0.2815
   37MOL   C21728369   0.024   2.325   0.282 -1.1564  0.4672  0.0213
   37MOL   H21828370   7.615   1.736   0.265  0.4349 -0.0732 -0.2816
   37MOL   H21928371   7.563   1.787   0.107  0.8046  2.3865 -0.6572
   37MOL   H22028372   7.379   1.702   0.258 -0.0833  0.4950 -0.9769
   37MOL   H22128373   7.419   1.810   0.382  2.3022  0.1463 -0.8373
   37MOL   H22228374   7.311   1.873   0.097  0.8976 -1.8943 -0.2535
   37MOL   H22328375   7.185   1.923   0.360  1.4744 -2.2572 -0.3568
   37MOL   H22428376   7.140   2.009   0.214  0.5839 -1.0105 -4.4505
   37MOL   H22528377   7.342   2.124   0.142 -1.8200 -2.0751 -1.1473
   37MOL   H22628378   7.400   2.075   0.305 -1.4007  0.2870 -0.2449
   37MOL   H22728379   7.590   2.144   0.176 -1.3071 -0.2573  0.6467
   37MOL   H22828380   7.554   2.053   0.041 -2.1998  0.3660  0.1056
   37MOL   H22928381   7.618   1.963   0.340  3.0519  0.6080  0.2619
   37MOL   H23028382   7.828   1.854   0.227  1.7542  1.0617 -0.2155
   37MOL   H23128383   7.757   1.933   0.083 -1.2913  0.2188 -0.7739
   37MOL   H23228384   7.721   2.293   0.306 -1.5403  4.0634 -0.5462
   37MOL   H23328385   7.745   2.512   0.388  0.0175  0.8693 -0.8649
   37MOL   H23428386   0.139   2.502   0.311  1.2176 -1.3775  1.2716
   37MOL   H23528387   0.104   2.273   0.232 -0.2157  1.1340  0.8168
   37MOL   C23628388   0.284   3.076   0.042  0.2800 -0.5917 -0.3070
   37MOL   C23728389   0.170   3.060   0.147 -0.2925 -0.6917 -0.0723
   37MOL   C23828390   0.072   2.953   0.109 -0.0801  0.3514 -0.3938
   37MOL   C23928391   8.001   2.935   0.219  0.1370  0.0143 -0.1968
   37MOL   O24028392   0.022   2.884   0.338 -0.2335 -0.1863  0.5110
   37MOL   C24128393   0.018   2.986   8.001 -0.0300  0.1950  0.1951
   37MOL   C24228394   0.135   2.978   7.902  0.5293  0.0412  0.1190
   37MOL   C24328395   0.246   3.087   7.930  0.8500 -0.3005 -0.3911
   37MOL   C24428396   0.358   3.110   7.831 -0.2435  0.7249 -0.4901
   37MOL   O24528397   0.430   2.987   7.828 -0.6332 -0.9517  0.5808
   37MOL   C24628398   0.551   2.981   7.783 -0.5850  0.5321 -0.3451
   37MOL   O24728399   0.602   3.069   7.714  0.1400 -0.4894  0.1185
   37MOL   C24828400   0.610   2.844   7.816 -0.0620 -0.2045  0.5796
   37MOL   C24928401   0.527   2.726   7.845  0.1903  0.5865  0.2893
   37MOL   C25028402   0.591   2.601   7.863 -0.5387  0.1937  0.1237
   37MOL   C25128403   0.739   2.595   7.881  0.6564 -0.4701  0.5913
   37MOL   C25228404   0.809   2.475   7.919  0.9778 -0.3270  0.4445
   37MOL   O25328405   0.930   2.471   7.943  0.0185 -0.2565 -0.7094
   37MOL   O25428406   0.720   2.373   7.940  0.0158 -0.2577 -0.3488
   37MOL   C25528407   0.813   2.708   7.850  0.3875 -0.0408  0.4513
   37MOL   C25628408   0.747   2.833   7.819  0.1606  0.5565 -0.3717
   37MOL   H25728409   0.341   3.167   0.060  1.5826 -1.3580 -0.4916
   37MOL   H25828410   0.352   2.993   0.062  1.5797  0.5141 -0.0429
   37MOL   H25928411   0.197   3.040   0.251 -0.6039  0.7057  0.2909
   37MOL   H26028412   0.107   3.149   0.148  2.2558  1.1812  1.8527
   37MOL   H26128413   0.137   2.865   0.104  3.5619  2.9208 -0.6491
   37MOL   H26228414   7.968   3.035   0.246  0.7918  0.0719  0.3934
   37MOL   H26328415   7.916   2.876   0.183 -0.8804  1.6956 -0.6468
   37MOL   H26428416   7.987   2.902   7.980  1.5577 -0.1187 -3.9436
   37MOL   H26528417   7.991   3.076   7.995 -1.6223 -0.9477 -0.7783
   37MOL   H26628418   0.109   3.011   7.801 -0.6432  2.2897  1.1222
   37MOL   H26728419   0.172   2.876   7.895 -3.6446 -1.5155 -0.6210
   37MOL   H26828420   0.189   3.179   7.933  0.5939 -0.4389 -1.0898
   37MOL   H26928421   0.305   3.126   7.737 -1.2266 -2.2619 -0.5053
   37MOL   H27028422   0.424   3.196   7.844 -0.5138  0.9950 -0.9212
   37MOL   H27128423   0.421   2.739   7.829 -0.0816 -2.9475 -1.2710
   37MOL   H27228424   0.529   2.514   7.879  0.3492 -0.3080  0.9480
   37MOL   H27328425   0.920   2.708   7.854  0.3537  0.2982  1.5349
   37MOL   H27428426   0.810   2.916   7.790 -0.5419  1.2242  0.0142
   37MOL   C27528427   0.801   1.855   0.142 -0.2242 -0.1418 -0.2380
   37MOL   C27628428   0.761   1.950   0.034 -0.1348  0.5049 -0.1061
   37MOL   C27728429   0.877   2.043   0.002  0.3561 -0.4093 -0.0510
   37MOL   C27828430   0.835   2.158   7.943 -0.2011  0.0469  0.4339
   37MOL   O27928431   0.772   2.261   8.022 -0.3825  0.0659 -0.9135
   37MOL   C28028432   0.948   2.107   0.125  0.8968 -0.1091 -0.2943
   37MOL   C28128433   0.979   2.002   0.228 -0.8203  0.5461 -0.3307
   37MOL   C28228434   0.866   1.909   0.270  0.3912 -0.0575  0.1551
   37MOL   C28328435   0.905   1.793   0.354 -0.6829 -0.6097 -0.0764
   37MOL   O28428436   0.785   1.737   0.413  0.2640  0.2151 -0.4460
   37MOL   C28528437   0.784   1.605   0.429 -0.6893 -0.3885  0.1186
   37MOL   O28628438   0.858   1.528   0.369  0.2786 -0.3578  0.0061
   37MOL   C28728439   0.665   1.562   0.505  0.5228  0.2532 -0.4062
   37MOL   C28828440   0.648   1.420   0.532  0.0098 -0.1269  0.4220
   37MOL   C28928441   0.547   1.375   0.611 -0.0634  0.6635 -0.3668
   37MOL   C29028442   0.447   1.466   0.656 -0.1982 -0.0179 -0.5003
   37MOL   C29128443   0.324   1.414   0.736 -0.2037  0.1373  0.5605
   37MOL   O29228444   0.233   1.486   0.774 -0.0301  0.0721 -0.1882
   37MOL   O29328445   0.329   1.285   0.768 -0.4769  0.2969  0.1765
   37MOL   C29428446   0.463   1.608   0.634 -0.0561  0.6612 -0.0164
   37MOL   C29528447   0.571   1.654   0.553 -0.1546 -0.7885 -0.2674
   37MOL   H29628448   0.714   1.797   0.171 -0.1846 -0.2279 -0.2902
   37MOL   H29728449   0.884   1.800   0.097  1.5311  2.3841 -0.2307
   37MOL   H29828450   0.744   1.888   7.981  0.0274 -0.9084  0.8278
   37MOL   H29928451   0.670   2.007   0.055  0.3221  0.5677  1.7907
   37MOL   H30028452   0.954   1.983   7.988  1.5736  2.0117 -1.1712
   37MOL   H30128453   0.927   2.193   7.896 -1.3951  1.9627 -0.5540
   37MOL   H30228454   0.766   2.111   7.873 -2.3223  0.8377  1.9109
   37MOL   H30328455   1.040   2.159   0.096  2.8063 -3.0194  0.3947
   37MOL   H30428456   0.896   2.188   0.176  0.9464 -1.1928  1.5027
   37MOL   H30528457   1.008   2.051   0.321 -0.6173 -0.0970 -0.0524
   37MOL   H30628458   1.059   1.932   0.204 -0.6396  0.4649  0.4846
   37MOL   H30728459   0.802   1.967   0.338  0.1489  0.8820 -0.8582
   37MOL   H30828460   0.966   1.730   0.289 -1.4193 -1.3346 -0.0733
   37MOL   H30928461   0.973   1.823   0.434 -2.2283 -1.4699  1.5899
   37MOL   H31028462   0.725   1.351   0.500  0.7754 -0.3098  2.6442
   37MOL   H31128463   0.539   1.269   0.629 -0.6507  0.7753  0.0616
   37MOL   H31228464   0.378   1.669   0.659 -0.7425  0.1898 -1.1794
   37MOL   H31328465   0.579   1.760   0.534  0.2010 -0.8118 -0.2433
   37MOL   C31428466   7.951   1.224   1.147  0.0839  0.7638  0.5073
   37MOL   C31528467   0.054   1.259   1.096 -0.5877  0.7155 -0.6407
   37MOL   C31628468   0.132   1.141   1.041  0.2065 -0.6490 -0.4013
   37MOL   C31728469   0.256   1.198   0.975 -0.3037 -0.5332  0.7544
   37MOL   O31828470   0.213   1.252   0.847  0.4239 -0.3186 -0.1716
   37MOL   C31928471   0.155   1.032   1.149 -1.3104  0.4804 -0.1872
   37MOL   C32028472   0.021   0.994   1.224 -0.2870 -0.4650  0.2452
   37MOL   C32128473   7.967   1.116   1.261  0.0492 -0.3531  0.2022
   37MOL   C32228474   7.825   1.084   1.323 -0.2540  0.5994 -0.2523
   37MOL   O32328475   7.761   1.023   1.212 -0.0213 -0.5205 -0.6251
   37MOL   C32428476   7.685   0.911   1.229 -0.4846  0.3736 -0.5641
   37MOL   O32528477   7.665   0.846   1.333 -0.0209  0.2301  0.5054
   37MOL   C32628478   7.614   0.887   1.095 -0.2159  0.1208 -0.3331
   37MOL   C32728479   7.666   0.942   0.973  0.2379  0.3536  0.4404
   37MOL   C32828480   7.602   0.924   0.852  0.0174  0.2490  0.9266
   37MOL   C32928481   7.478   0.849   0.842  0.0390  0.4606 -0.4254
   37MOL   C33028482   7.397   0.838   0.718 -0.5767  0.3064 -0.2745
   37MOL   O33128483   7.277   0.822   0.719 -0.0855  0.7328  0.0310
   37MOL   O33228484   7.470   0.854   0.602  0.2224  0.9167 -0.5131
   37MOL   C33328485   7.441   0.778   0.956  0.3951  0.1849 -0.1769
   37MOL   C33428486   7.504   0.800   1.081 -0.3451  0.5896  0.2726
   37MOL   H33528487   7.912   1.319   1.184 -1.9598 -0.0580  0.5245
   37MOL   H33628488   7.897   1.194   1.057  1.4061  1.0051 -0.3819
   37MOL   H33728489   0.045   1.335   1.018 -1.0045  1.2025 -0.1223
   37MOL   H33828490   0.117   1.288   1.181  0.1717 -0.2291 -0.8697
   37MOL   H33928491   0.068   1.084   0.974  0.9187 -0.9590 -0.8262
   37MOL   H34028492   0.307   1.263   1.046 -1.8228 -1.7971  3.0455
   37MOL   H34128493   0.329   1.118   0.960  0.0760 -0.2353  1.0075
   37MOL   H34228494   0.200   0.941   1.109 -0.5450  0.5369  0.5340
   37MOL   H34328495   0.217   1.074   1.229 -0.1608 -1.0345 -0.2495
   37MOL   H34428496   0.038   0.935   1.314  0.0459 -0.8317 -0.0579
   37MOL   H34528497   7.997   0.926   1.162  0.8304 -2.2935  1.1724
   37MOL   H34628498   8.006   1.172   1.346 -1.2300  1.1200 -0.1557
   37MOL   H34728499   7.819   1.019   1.411 -1.3260  0.2699 -0.5548
   37MOL   H34828500   7.777   1.180   1.341  0.9353  1.1750 -0.1342
   37MOL   H34928501   7.754   1.005   0.972  0.9099 -0.5860 -0.8876
   37MOL   H35028502   7.648   0.971   0.766  1.9234 -1.5922  0.8969
   37MOL   H35128503   7.358   0.708   0.946 -0.4966  1.3842 -1.3726
   37MOL   H35228504   7.483   0.741   1.169 -0.2926  2.0525  1.2874
   37MOL   C35328505   7.282   0.859   0.066 -0.3250  0.0232  0.7176
   37MOL   C35428506   7.352   0.900   0.200 -0.0571  0.3207  0.7052
   37MOL   C35528507   7.257   0.935   0.320 -0.4660  0.2367 -0.1345
   37MOL   C35628508   7.342   0.971   0.441 -0.2940 -0.8268  0.9036
   37MOL   O35728509   7.391   0.845   0.481  0.5194 -0.4647  0.2461
   37MOL   C35828510   7.162   1.049   0.261  0.8763  0.0524 -0.4547
   37MOL   C35928511   7.084   0.994   0.139  0.8716  0.3802 -0.0916
   37MOL   C36028512   7.180   0.960   0.023  0.0147 -0.8059 -0.1976
   37MOL   C36128513   7.109   0.916   7.932  0.5849  0.2348  0.1126
   37MOL   O36228514   7.018   1.016   7.882 -0.5822 -0.1016 -0.1666
   37MOL   C36328515   7.066   1.111   7.800 -0.2125  0.5245  0.3469
   37MOL   O36428516   7.179   1.119   7.748  0.0032 -0.2559  0.0647
   37MOL   C36528517   6.965   1.210   7.758 -0.8637 -0.5837 -0.6487
   37MOL   C36628518   6.828   1.171   7.769 -0.1465 -0.1170 -0.5216
   37MOL   C36728519   6.728   1.257   7.718  0.3994  0.1227  0.6853
   37MOL   C36828520   6.759   1.385   7.669  0.6254  0.0546  0.1389
   37MOL   C36928521   6.649   1.467   7.633  0.5467 -1.5307  0.3726
   37MOL   O37028522   6.541   1.455   7.686 -0.6929 -0.2371 -0.1469
   37MOL   O37128523   6.677   1.574   7.543  0.1181 -0.3730 -0.4291
   37MOL   C37228524   6.890   1.422   7.668  0.3340  0.3071 -0.1614
   37MOL   C37328525   6.999   1.340   7.707 -0.3811  0.7010 -0.2970
   37MOL   H37428526   7.359   0.866   8.025 -2.1393  0.8125 -1.0884
   37MOL   H37528527   7.245   0.757   0.057  3.1445 -1.4166  1.9244
   37MOL   H37628528   7.418   0.821   0.237  1.3653  1.7341  1.2053
   37MOL   H37728529   7.417   0.985   0.185 -0.4001  0.2445 -1.3418
   37MOL   H37828530   7.193   0.849   0.342  1.8572 -1.1948  1.2238
   37MOL   H37928531   7.419   1.043   0.412 -0.4835 -1.4860 -1.2897
   37MOL   H38028532   7.281   1.016   0.519 -2.0827  0.9490 -1.4229
   37MOL   H38128533   7.090   1.089   0.332  0.8202 -0.8096 -0.0191
   37MOL   H38228534   7.218   1.139   0.233  1.5780 -0.8098 -1.8407
   37MOL   H38328535   7.004   1.062   0.108 -0.0191  0.5526  2.5410
   37MOL   H38428536   7.026   0.912   0.180  0.9515  0.5623  0.3804
   37MOL   H38528537   7.240   1.048   0.000 -0.8099 -0.9151 -3.0084
   37MOL   H38628538   7.181   0.891   7.855  0.1605 -0.0543 -0.1897
   37MOL   H38728539   7.052   0.824   7.944 -3.0806  2.3493 -0.3651
   37MOL   H38828540   6.805   1.071   7.802 -0.7671  0.2843  0.3127
   37MOL   H38928541   6.624   1.228   7.724  0.1616  0.6997 -0.3875
   37MOL   H39028542   6.912   1.523   7.634 -0.2699  0.8758  1.0936
   37MOL   H39128543   7.104   1.363   7.698 -0.1347 -0.3819 -0.2202
   37MOL   C39228544   6.374   2.056   7.668 -0.4516 -0.1381 -0.5329
   37MOL   C39328545   6.498   1.987   7.613  0.7105 -0.4073  0.0975
   37MOL   C39428546   6.543   1.878   7.711 -0.1175 -0.5006  0.2267
   37MOL   C39528547   6.651   1.788   7.653 -0.1302 -1.0262  1.1148
   37MOL   O39628548   6.586   1.690   7.574  0.2714  0.2793 -0.0748
   37MOL   C39728549   6.591   1.952   7.842 -0.3718 -0.0201  0.2837
   37MOL   C39828550   6.489   2.044   7.903 -1.0580 -0.1078 -0.0295
   37MOL   C39928551   6.420   2.137   7.795  0.3814  0.4157 -0.1976
   37MOL   C40028552   6.304   2.213   7.859 -0.1834 -0.3911 -0.3043
   37MOL   O40128553   6.243   2.313   7.783 -0.0287  0.6534  0.4501
   37MOL   C40228554   6.133   2.363   7.831 -0.8541 -0.1002 -0.1161
   37MOL   O40328555   6.065   2.318   7.922 -0.2442 -0.2016  0.0342
   37MOL   C40428556   6.107   2.498   7.767 -0.4327  0.0258 -0.0973
   37MOL   C40528557   6.188   2.544   7.666  0.3027  0.1583  0.5294
   37MOL   C40628558   6.169   2.664   7.602  0.3560  0.0560 -0.3228
   37MOL   C40728559   6.063   2.748   7.640 -0.4814  0.3708 -0.2541
   37MOL   C40828560   6.038   2.880   7.572 -0.0494 -0.6170  0.3182
   37MOL   O40928561   6.100   2.914   7.468 -0.2991  0.1271  0.3457
   37MOL   O41028562   5.942   2.961   7.636  0.1728  0.0198 -0.3104
   37MOL   C41128563   5.982   2.712   7.746 -0.0396  0.1404  0.4484
   37MOL   C41228564   6.004   2.583   7.807 -0.4266 -0.4119 -0.0184
   37MOL   H41328565   6.333   2.129   7.598  0.0510 -1.6351 -2.4118
   37MOL   H41428566   6.291   1.988   7.688 -0.9177  0.0403 -1.8080
   37MOL   H41528567   6.466   1.945   7.517 -0.7733 -0.7876  0.7450
   37MOL   H41628568   6.574   2.059   7.584  0.8674 -0.6399 -0.0724
   37MOL   H41728569   6.462   1.812   7.743  1.3167 -2.2900  0.2567
   37MOL   H41828570   6.720   1.846   7.592  1.1140 -1.3862  2.1468
   37MOL   H41928571   6.703   1.740   7.736  0.9346 -0.7531  0.6123
   37MOL   H42028572   6.648   1.885   7.906  1.6131  1.3897  0.0204
   37MOL   H42128573   6.668   2.019   7.802 -1.4487  1.4353  0.5961
   37MOL   H42228574   6.531   2.104   7.984 -2.0852 -0.5185  0.8318
   37MOL   H42328575   6.405   1.999   7.957 -0.7402 -0.2045  0.3870
   37MOL   H42428576   6.488   2.213   7.759  0.7883 -0.2677 -0.8782
   37MOL   H42528577   6.233   2.138   7.894  0.7036 -0.8860  0.4701
   37MOL   H42628578   6.332   2.271   7.947  1.1252 -0.0445 -0.9319
   37MOL   H42728579   6.276   2.490   7.635  0.5237  1.3301 -0.9571
   37MOL   H42828580   6.230   2.688   7.516  0.9815  0.3248  0.1947
   37MOL   H42928581   5.908   2.780   7.784  0.6379  1.1944 -0.1033
   37MOL   H43028582   5.934   2.551   7.883 -0.1663 -2.6094 -0.6744
   37MOL   C43128583   5.855   3.501   7.419  0.1624  0.5054  0.4074
   37MOL   C43228584   5.837   3.371   7.501  0.2457  0.6009  0.4598
   37MOL   C43328585   5.862   3.251   7.409 -0.2909 -0.7277 -0.8979
   37MOL   C43428586   5.841   3.117   7.486 -0.2775 -0.0597  0.0809
   37MOL   O43528587   5.932   3.107   7.588  0.2577  0.7292 -0.2452
   37MOL   C43628588   5.778   3.256   7.285  0.2707 -0.0618  0.2314
   37MOL   C43728589   5.791   3.381   7.209 -0.5280  0.4261 -0.0861
   37MOL   C43828590   5.758   3.500   7.290 -0.1923  0.0781  0.1018
   37MOL   C43928591   5.773   3.627   7.211 -0.2286 -0.3773 -0.4453
   37MOL   O44028592   5.687   3.641   7.104  0.4099 -0.2035 -0.1343
   37MOL   C44128593   5.577   3.728   7.115 -0.0551 -0.0640 -0.4833
   37MOL   O44228594   5.535   3.775   7.218  0.1162  0.8329 -0.2696
   37MOL   C44328595   5.511   3.746   6.985  0.1829 -0.6365 -0.4620
   37MOL   C44428596   5.372   3.777   6.989 -0.0282  0.0464  0.8037
   37MOL   C44528597   5.303   3.793   6.867  0.4596  0.7278  0.2409
   37MOL   C44628598   5.368   3.779   6.738  0.6190  0.4869 -0.1936
   37MOL   C44728599   5.300   3.787   6.606 -0.2649  0.1698  0.2888
   37MOL   O44828600   5.180   3.821   6.608  0.1205 -0.3479  0.1758
   37MOL   O44928601   5.379   3.779   6.492  0.2968 -0.8723  0.2856
   37MOL   C45028602   5.506   3.771   6.743  0.1325  0.5843 -0.4757
   37MOL   C45128603   5.576   3.743   6.860  0.4201  0.2653  0.2829
   37MOL   H45228604   5.818   3.579   7.486 -2.8201  0.7982 -1.5109
   37MOL   H45328605   5.960   3.515   7.394 -0.0636  1.0459 -0.2245
   37MOL   H45428606   5.913   3.374   7.580  2.6154  2.5496 -1.8379
   37MOL   H45528607   5.740   3.371   7.551  0.2463 -0.6817  0.4773
   37MOL   H45628608   5.965   3.241   7.375  0.7267 -1.6300  2.2711
   37MOL   H45728609   5.737   3.116   7.520 -0.5582 -0.7345 -0.7935
   37MOL   H45828610   5.846   3.029   7.423 -0.5953 -0.0113 -0.0101
   37MOL   H45928611   5.802   3.171   7.222 -1.6885 -1.0040  0.6942
   37MOL   H46028612   5.674   3.236   7.313 -0.0303 -0.1266 -0.9265
   37MOL   H46128613   5.720   3.375   7.126  2.1405 -1.4032 -2.3219
   37MOL   H46228614   5.890   3.397   7.164 -1.3430 -0.5067 -2.2643
   37MOL   H46328615   5.659   3.504   7.335  0.9154 -1.0967  2.7350
   37MOL   H46428616   5.775   3.716   7.274 -0.7322 -0.1572 -0.7399
   37MOL   H46528617   5.872   3.621   7.166 -0.8729 -1.7018 -1.7384
   37MOL   H46628618   5.314   3.782   7.080  0.3469  0.6703  1.0130
   37MOL   H46728619   5.196   3.807   6.866  0.2380 -0.4988  2.8181
   37MOL   H46828620   5.566   3.763   6.654  2.0748 -0.2535  0.8654
   37MOL   H46928621   5.684   3.732   6.861  0.3987 -0.3152  4.2151
   37MOL   C47028622   5.054   3.727   5.949 -0.4103  0.7149 -0.1870
   37MOL   C47128623   5.086   3.687   6.090 -0.5127  0.0813  0.7790
   37MOL   C47228624   5.195   3.775   6.161 -0.1151 -0.7474  0.0751
   37MOL   C47328625   5.233   3.732   6.301  0.1744 -0.3900  0.2721
   37MOL   O47428626   5.301   3.836   6.367  0.4982  0.3249 -0.2781
   37MOL   C47528627   5.314   3.812   6.075 -0.7392  0.6149  0.9251
   37MOL   C47628628   5.273   3.857   5.936 -0.4466 -0.0356 -0.4218
   37MOL   C47728629   5.185   3.751   5.872  0.1358  0.1138 -0.1901
   37MOL   C47828630   5.168   3.765   5.714 -0.3738  0.4142 -0.1574
   37MOL   O47928631   5.293   3.780   5.637  0.4033  0.0586 -0.7223
   37MOL   C48028632   5.354   3.674   5.578 -0.3713  0.1690  0.0766
   37MOL   O48128633   5.329   3.555   5.598  0.1971 -1.0627  0.1272
   37MOL   C48228634   5.465   3.707   5.484 -0.2193  0.4534 -0.6212
   37MOL   C48328635   5.526   3.611   5.405 -0.0316 -0.4089  0.0618
   37MOL   C48428636   5.617   3.647   5.302 -0.2280 -0.3185  0.7393
   37MOL   C48528637   5.654   3.783   5.284 -0.0959  0.1014  0.7636
   37MOL   C48628638   5.734   3.825   5.168  0.2836 -0.4310 -0.4237
   37MOL   O48728639   5.780   3.745   5.080  0.8010 -0.4012 -0.5457
   37MOL   O48828640   5.753   3.958   5.159 -0.4400 -0.5608 -0.6014
   37MOL   C48928641   5.616   3.880   5.384 -0.0492  0.1327  0.0311
   37MOL   C49028642   5.522   3.836   5.477  0.4243  0.2487  0.0217
   37MOL   H49128643   5.006   3.642   5.901  1.9106 -0.4357 -0.5429
   37MOL   H49228644   4.984   3.811   5.951 -1.3555  0.0133 -2.1119
   37MOL   H49328645   4.996   3.694   6.151 -0.1068 -0.2356  1.4241
   37MOL   H49428646   5.122   3.584   6.092  1.6073  0.7553 -0.8103
   37MOL   H49528647   5.146   3.872   6.169  1.3477  0.3051 -2.7472
   37MOL   H49628648   5.145   3.710   6.361  0.2044  0.5618  0.6724
   37MOL   H49728649   5.301   3.647   6.306  2.5421  1.5193  1.2972
   37MOL   H49828650   5.376   3.889   6.122 -0.8028 -0.2702  2.4863
   37MOL   H49928651   5.378   3.724   6.074 -1.7101 -0.1018 -0.7734
   37MOL   H50028652   5.360   3.872   5.871  1.0527  0.4668  1.6598
   37MOL   H50128653   5.223   3.953   5.940  1.2478  0.8137  1.1270
   37MOL   H50228654   5.242   3.659   5.882 -0.8769 -0.8613 -2.7948
   37MOL   H50328655   5.124   3.674   5.673  3.0829 -1.9631  1.1221
   37MOL   H50428656   5.108   3.851   5.683  2.2693  1.8060 -1.5875
   37MOL   H50528657   5.484   3.512   5.413 -2.4533  0.6665  1.2261
   37MOL   H50628658   5.661   3.576   5.234  2.0826 -0.7021  2.5630
   37MOL   H50728659   5.642   3.985   5.379 -0.0039  0.2897  2.9046
   37MOL   H50828660   5.484   3.903   5.553 -0.8195 -0.3098 -0.0950
   37MOL   C50928661   5.873   4.243   4.660  0.3255 -0.0363 -0.2574
   37MOL   C51028662   5.843   4.218   4.813  0.3115 -0.5152  0.2337
   37MOL   C51128663   5.718   4.116   4.819 -0.1544 -0.4665 -0.9119
   37MOL   C51228664   5.686   4.070   4.968  0.0870 -0.6420  0.1621
   37MOL   O51328665   5.796   4.001   5.020  0.0021 -0.6259 -0.0560
   37MOL   C51428666   5.598   4.179   4.751 -0.5733 -0.5496  0.0593
   37MOL   C51528667   5.634   4.190   4.600 -0.5873 -0.7012  0.2254
   37MOL   C51628668   5.749   4.290   4.583 -0.6840 -0.0461 -0.9741
   37MOL   C51728669   5.787   4.301   4.431 -0.1572  0.1775  0.3248
   37MOL   O51828670   5.666   4.313   4.350  0.3180 -0.6328  0.6144
   37MOL   C51928671   5.625   4.436   4.302  0.3620 -0.0749  0.1233
   37MOL   O52028672   5.690   4.538   4.302 -0.6939 -0.4608  0.3181
   37MOL   C52128673   5.490   4.436   4.232  0.4562 -0.0363 -0.1446
   37MOL   C52228674   5.426   4.311   4.215  0.1598 -0.1266  0.1244
   37MOL   C52328675   5.298   4.301   4.159 -0.3935  0.1139 -0.1461
   37MOL   C52428676   5.238   4.419   4.113 -0.1043 -0.3347  0.3672
   37MOL   C52528677   5.110   4.410   4.045  0.2194 -0.0669  0.4946
   37MOL   O52628678   5.028   4.498   4.041 -0.1205 -0.1167 -0.3484
   37MOL   O52728679   5.090   4.287   3.977 -0.1231  0.4321  0.0498
   37MOL   C52828680   5.299   4.546   4.144  1.1873  0.1697  0.2977
   37MOL   C52928681   5.426   4.555   4.197 -0.2576 -0.2207  0.1146
   37MOL   H53028682   5.953   4.317   4.656 -0.0540  0.2872 -2.1708
   37MOL   H53128683   5.918   4.153   4.616  1.0729  0.6772 -0.9647
   37MOL   H53228684   5.929   4.175   4.865  0.8501 -0.1468 -0.3415
   37MOL   H53328685   5.819   4.310   4.867 -2.5193 -2.2150  1.9893
   37MOL   H53428686   5.739   4.025   4.764  2.1552 -0.0829 -0.7274
   37MOL   H53528687   5.655   4.149   5.036 -0.1036 -0.9697  0.4572
   37MOL   H53628688   5.612   3.990   4.969  1.3271 -1.8075  0.0494
   37MOL   H53728689   5.506   4.126   4.775 -0.1511 -0.9134  0.8983
   37MOL   H53828690   5.579   4.278   4.793 -0.9431 -1.2260  1.5228
   37MOL   H53928691   5.546   4.207   4.538  0.1137  2.7652  0.1258
   37MOL   H54028692   5.661   4.091   4.562 -2.4829 -1.2104  0.1321
   37MOL   H54128693   5.704   4.382   4.619  0.0919  0.7445 -1.9754
   37MOL   H54228694   5.848   4.390   4.421  0.6433 -0.3945  0.0627
   37MOL   H54328695   5.849   4.219   4.395  0.4319  0.5519  0.4868
   37MOL   H54428696   5.479   4.220   4.240 -1.2372 -0.5001  1.8185
   37MOL   H54528697   5.262   4.202   4.134  2.3652 -1.0553  0.3587
   37MOL   H54628698   5.248   4.631   4.102  0.5482 -0.2054  0.3133
   37MOL   H54728699   5.471   4.648   4.227 -1.0444 -0.5353  2.3335
   37MOL   C54828700   4.567   4.405   3.748 -0.9033 -0.3168 -0.0082
   37MOL   C54928701   4.697   4.380   3.821  0.4586  0.0488  0.5219
   37MOL   C55028702   4.743   4.238   3.828  0.3159 -0.4328 -0.2547
   37MOL   C55128703   4.866   4.226   3.921 -0.6415  0.4282 -0.6964
   37MOL   O55228704   4.979   4.295   3.872 -0.4080  0.1907 -0.1451
   37MOL   C55328705   4.631   4.152   3.885 -0.0741 -0.3947 -0.2789
   37MOL   C55428706   4.493   4.168   3.824 -1.0780 -0.4101 -0.3055
   37MOL   C55528707   4.457   4.315   3.816  0.0149 -0.9852  0.0265
   37MOL   C55628708   4.322   4.334   3.742  0.4713 -0.1610 -0.3251
   37MOL   O55728709   4.224   4.258   3.804  0.2315  0.8976 -0.5380
   37MOL   C55828710   4.110   4.212   3.739  0.2956 -0.1625 -0.4723
   37MOL   O55928711   4.083   4.222   3.618 -0.5042  0.6043  0.4577
   37MOL   C56028712   4.023   4.137   3.839  0.0920  0.0964 -0.3560
   37MOL   C56128713   4.079   4.063   3.943  0.1222  0.9045  0.0755
   37MOL   C56228714   3.993   3.981   4.022  0.2269  0.6069 -0.9751
   37MOL   C56328715   3.858   3.969   3.997  0.5870 -0.1539  0.5929
   37MOL   C56428716   3.770   3.865   4.074 -0.3878 -0.1135  0.8614
   37MOL   O56528717   3.650   3.858   4.051 -0.3251  0.6406 -0.2945
   37MOL   O56628718   3.839   3.801   4.162 -0.0144 -0.5921  0.1429
   37MOL   C56728719   3.807   4.047   3.887 -0.5011  0.5866 -0.2030
   37MOL   C56828720   3.884   4.134   3.815 -0.5939  0.0080  0.1288
   37MOL   H56928721   4.535   4.509   3.749  1.5612  0.4884 -0.3494
   37MOL   H57028722   4.577   4.365   3.647 -0.7581 -0.2019 -0.0384
   37MOL   H57128723   4.777   4.442   3.781 -1.4072  1.2004 -1.5164
   37MOL   H57228724   4.679   4.408   3.925 -1.3825 -1.2974  0.5855
   37MOL   H57328725   4.772   4.210   3.726  2.6226 -1.2800  0.6034
   37MOL   H57428726   4.838   4.250   4.024 -1.2402 -0.2664 -0.6883
   37MOL   H57528727   4.893   4.121   3.933  0.0471  0.8850  2.0606
   37MOL   H57628728   4.664   4.049   3.898  0.1034 -0.4003 -0.7800
   37MOL   H57728729   4.611   4.175   3.990  1.3186  0.7587 -0.2475
   37MOL   H57828730   4.421   4.119   3.889 -0.0668 -1.4892  0.0081
   37MOL   H57928731   4.489   4.108   3.733 -1.0156 -0.3103 -0.3757
   37MOL   H58028732   4.435   4.357   3.914  0.5862  1.8712 -0.9989
   37MOL   H58128733   4.295   4.439   3.735  0.5284 -0.1656 -0.5983
   37MOL   H58228734   4.330   4.290   3.643  0.6832 -1.1427  0.1219
   37MOL   H58328735   4.186   4.071   3.957  0.1397  1.9903 -0.6747
   37MOL   H58428736   4.046   3.929   4.100 -0.4608  1.0345 -0.2176
   37MOL   H58528737   3.703   4.039   3.857 -0.4570 -0.2788 -0.1477
   37MOL   H58628738   3.831   4.193   3.741  1.1115  0.5488 -0.6809
   37MOL   C58728739   3.430   3.498   4.114  0.4779 -0.0345 -0.3933
   37MOL   C58828740   3.529   3.568   4.203 -0.4394  0.0404 -0.1437
   37MOL   C58928741   3.674   3.540   4.171 -0.3485  0.3507  0.4145
   37MOL   C59028742   3.774   3.612   4.269 -0.7600 -0.1214 -0.6589
   37MOL   O59128743   3.759   3.748   4.276  0.2099 -1.1030 -0.1649
   37MOL   C59228744   3.711   3.391   4.158 -0.7409  0.3016 -0.2044
   37MOL   C59328745   3.595   3.317   4.080  0.4787 -0.3178 -0.7272
   37MOL   C59428746   3.451   3.351   4.129 -0.1358 -0.6946  0.3730
   37MOL   C59528747   3.352   3.270   4.047 -0.3345 -0.4365 -0.4322
   37MOL   O59628748   3.347   3.138   4.073 -0.1783  0.0542 -0.4493
   37MOL   C59728749   3.315   3.047   3.977 -0.1991  0.0061 -0.3724
   37MOL   O59828750   3.280   3.069   3.863 -0.0375  0.2811 -0.4576
   37MOL   C59928751   3.320   2.909   4.039 -0.6342  0.1096  0.4571
   37MOL   C60028752   3.263   2.808   3.963 -0.1732 -0.0037 -0.3205
   37MOL   C60128753   3.264   2.670   4.003  0.8648  0.3827 -0.1254
   37MOL   C60228754   3.350   2.644   4.113  0.0322  0.3359  0.4367
   37MOL   C60328755   3.369   2.508   4.165 -0.1894  0.3773  0.9196
   37MOL   O60428756   3.426   2.489   4.271 -0.0233  0.4272  0.1854
   37MOL   O60528757   3.305   2.414   4.094  0.3920  0.1850  0.4636
   37MOL   C60628758   3.416   2.754   4.183 -0.3603 -0.5915 -0.0667
   37MOL   C60728759   3.402   2.883   4.150  0.8946  1.0120 -0.5973
   37MOL   H60828760   3.330   3.522   4.150  0.0159  0.0299 -1.6952
   37MOL   H60928761   3.457   3.526   4.012  0.7499 -1.6852 -0.7863
   37MOL   H61028762   3.507   3.675   4.202  0.8427  0.3096  0.3994
   37MOL   H61128763   3.523   3.541   4.309  2.8416  2.2744  0.6696
   37MOL   H61228764   3.688   3.585   4.072 -1.4653 -2.6017 -1.1692
   37MOL   H61328765   3.749   3.573   4.367  0.7593 -1.7036 -0.8881
   37MOL   H61428766   3.877   3.578   4.277 -0.1379  2.3049  2.6964
   37MOL   H61528767   3.801   3.385   4.098  1.3216  0.2441  2.8229
   37MOL   H61628768   3.732   3.336   4.250  0.5862  2.1618  0.6092
   37MOL   H61728769   3.617   3.210   4.080 -0.5166 -0.5433  0.7690
   37MOL   H61828770   3.596   3.353   3.977 -1.4737  0.8929 -0.3465
   37MOL   H61928771   3.445   3.327   4.235 -2.4058  1.3706  0.7534
   37MOL   H62028772   3.251   3.298   4.080  0.6249  1.6926  0.7772
   37MOL   H62128773   3.352   3.299   3.942  1.2406 -1.3619 -0.7022
   37MOL   H62228774   3.218   2.830   3.867 -0.6096  2.0502  0.3298
   37MOL   H62328775   3.211   2.596   3.945  0.5120  0.8401 -0.3888
   37MOL   H62428776   3.479   2.742   4.270 -3.0506 -0.6603  1.9342
   37MOL   H62528777   3.455   2.957   4.209  1.9593  0.8028 -1.2849
   37MOL   C62628778   3.471   1.956   4.386 -0.1970 -0.8722  0.8953
   37MOL   C62728779   3.483   2.092   4.313  0.4194 -0.0975  0.2977
   37MOL   C62828780   3.452   2.069   4.161  0.6338 -0.1233  0.0624
   37MOL   C62928781   3.415   2.208   4.094 -0.0461 -0.2295  0.0507
   37MOL   O63028782   3.308   2.274   4.158  0.0532  0.3739  0.3945
   37MOL   C63128783   3.564   1.981   4.107 -0.2412 -0.0108  0.0291
   37MOL   C63228784   3.562   1.847   4.171  0.7215 -0.1714 -0.3632
   37MOL   C63328785   3.590   1.873   4.320 -0.1417 -0.5729 -0.2578
   37MOL   C63428786   3.615   1.745   4.401  0.1621 -0.2745 -0.2016
   37MOL   O63528787   3.695   1.783   4.512 -0.3402  0.4696  0.1895
   37MOL   C63628788   3.756   1.689   4.582 -0.4867 -0.3802 -0.0071
   37MOL   O63728789   3.719   1.572   4.589 -0.4066 -0.3299 -0.4810
   37MOL   C63828790   3.872   1.741   4.671  0.5749  0.1690 -0.7483
   37MOL   C63928791   3.918   1.652   4.772  0.2892  0.0353 -0.1073
   37MOL   C64028792   4.024   1.699   4.853  0.8424  0.3721 -0.3702
   37MOL   C64128793   4.078   1.828   4.840 -0.2327 -0.2393  0.5240
   37MOL   C64228794   4.162   1.892   4.938 -0.4176 -0.5396  0.4619
   37MOL   O64328795   4.229   1.995   4.931  0.1172 -0.1445 -0.8126
   37MOL   O64428796   4.163   1.822   5.060 -0.2217 -0.4355  0.4789
   37MOL   C64528797   4.027   1.914   4.742  0.0209  0.2239 -0.0241
   37MOL   C64628798   3.925   1.868   4.656 -0.3837 -0.3523  0.1911
   37MOL   H64728799   3.493   1.976   4.491  0.4330  1.7028  0.3043
   37MOL   H64828800   3.377   1.902   4.373  0.0267 -0.9479 -0.4009
   37MOL   H64928801   3.407   2.146   4.369  2.9567  3.1306  0.8000
   37MOL   H65028802   3.586   2.128   4.326  0.7262 -0.6687 -0.5187
   37MOL   H65128803   3.357   2.016   4.152  1.7604 -2.2253  0.3287
   37MOL   H65228804   3.505   2.269   4.082 -0.0553 -0.3348 -0.5608
   37MOL   H65328805   3.380   2.178   3.995 -0.5945  2.0005 -0.4606
   37MOL   H65428806   3.546   1.975   3.999 -3.0381 -1.4594  0.5437
   37MOL   H65528807   3.664   2.025   4.117 -1.3570  2.4806  0.6375
   37MOL   H65628808   3.642   1.791   4.123  0.0478 -0.1902 -1.4777
   37MOL   H65728809   3.470   1.792   4.153  0.2198  0.8136 -0.8221
   37MOL   H65828810   3.681   1.934   4.324 -2.2602  2.7400 -0.6544
   37MOL   H65928811   3.525   1.706   4.449 -0.1117  0.7497  0.1214
   37MOL   H66028812   3.662   1.661   4.350 -0.8747 -1.0809  0.1387
   37MOL   H66128813   3.870   1.558   4.792 -0.3182  0.7515  1.9000
   37MOL   H66228814   4.054   1.642   4.939  0.7765  0.4489 -0.2961
   37MOL   H66328815   4.069   2.013   4.735 -0.4990  0.3323 -1.7857
   37MOL   H66428816   3.881   1.917   4.570 -4.0560 -3.9669 -0.1372
   37MOL   C66528817   4.597   2.049   5.369 -0.2565 -0.2959 -0.5749
   37MOL   C66628818   4.518   1.985   5.254 -0.2835 -0.1964  0.2792
   37MOL   C66728819   4.436   1.875   5.310  0.5445 -0.3440 -0.4970
   37MOL   C66828820   4.354   1.816   5.192  0.6369 -0.0775  0.5202
   37MOL   O66928821   4.239   1.890   5.170  0.7192  0.2075 -0.2052
   37MOL   C67028822   4.520   1.764   5.373  0.1139  0.2781 -0.1052
   37MOL   C67128823   4.603   1.824   5.487 -0.3264  0.4721  0.2100
   37MOL   C67228824   4.682   1.951   5.439 -0.5400 -0.1384 -0.2032
   37MOL   C67328825   4.752   2.031   5.547 -0.2748  0.3626  0.2631
   37MOL   O67428826   4.879   1.970   5.579 -0.2727  0.9573 -0.2314
   37MOL   C67528827   4.998   2.025   5.582 -0.6026  0.0680 -0.4658
   37MOL   O67628828   5.027   2.136   5.547  0.2748 -0.0608  0.3090
   37MOL   C67728829   5.103   1.927   5.640  0.2252  0.0353 -0.0900
   37MOL   C67828830   5.062   1.819   5.724  0.5180 -0.4918 -0.2433
   37MOL   C67928831   5.161   1.737   5.781  0.2455 -0.3533 -0.0250
   37MOL   C68028832   5.301   1.761   5.761 -0.2738 -0.3363 -0.2034
   37MOL   C68128833   5.402   1.669   5.818  0.2147  0.7407  0.1171
   37MOL   O68228834   5.519   1.698   5.808 -0.4423 -0.5794  0.6138
   37MOL   O68328835   5.350   1.549   5.860 -0.1354 -0.5508  0.4596
   37MOL   C68428836   5.341   1.874   5.690  0.4162 -0.4706  0.1147
   37MOL   C68528837   5.241   1.955   5.626 -0.3290 -0.6991 -0.2944
   37MOL   H68628838   4.666   2.126   5.334 -0.0184 -1.1077 -1.9147
   37MOL   H68728839   4.524   2.095   5.435  1.5795 -0.7809  1.8844
   37MOL   H68828840   4.464   2.066   5.205  0.8668 -0.8285 -2.0937
   37MOL   H68928841   4.593   1.939   5.189  0.1214 -0.2035  0.7431
   37MOL   H69028842   4.367   1.911   5.386 -0.4008 -1.2168 -0.9178
   37MOL   H69128843   4.408   1.817   5.097 -0.2933  0.1661 -0.0109
   37MOL   H69228844   4.317   1.717   5.216  1.6593 -0.3427  1.0303
   37MOL   H69328845   4.455   1.687   5.414  0.6408  0.7105  1.5684
   37MOL   H69428846   4.593   1.719   5.305 -0.1136  0.3184 -0.3770
   37MOL   H69528847   4.668   1.743   5.521  1.1729  0.8141 -1.8059
   37MOL   H69628848   4.533   1.845   5.568 -1.6713  0.1126 -0.8364
   37MOL   H69728849   4.761   1.920   5.371  0.6519 -0.2894  1.2290
   37MOL   H69828850   4.762   2.138   5.527 -0.8609  0.2528 -0.6658
   37MOL   H69928851   4.698   2.038   5.642 -0.0724  3.7801  0.2051
   37MOL   H70028852   4.956   1.808   5.744  0.6038  1.8062  1.6211
   37MOL   H70128853   5.126   1.648   5.832 -1.8776 -0.9906 -2.5048
   37MOL   H70228854   5.446   1.893   5.677  0.4042 -0.7764 -0.4384
   37MOL   H70328855   5.269   2.038   5.563  0.6397  0.0939  1.1427
   37MOL   C70428856   5.713   1.041   5.854 -0.6164 -0.8555  0.4986
   37MOL   C70528857   5.620   1.146   5.781  0.6934 -0.4646 -0.0414
   37MOL   C70628858   5.581   1.260   5.877  0.2815 -0.7903  0.1319
   37MOL   C70728859   5.483   1.363   5.819  0.0129  0.2473  0.3656
   37MOL   O70828860   5.459   1.460   5.919  0.6114 -0.7464 -0.7422
   37MOL   C70928861   5.532   1.213   6.008 -0.4136 -0.0508  0.0410
   37MOL   C71028862   5.622   1.102   6.071 -0.1130 -0.0232  0.1139
   37MOL   C71128863   5.651   0.986   5.979 -0.8137 -0.6375  0.4359
   37MOL   C71228864   5.733   0.883   6.065  0.6114  0.0016  0.0710
   37MOL   O71328865   5.728   0.755   6.021  0.1377 -0.1625  0.5336
   37MOL   C71428866   5.622   0.680   6.049 -0.6929  0.3378 -0.0684
   37MOL   O71528867   5.526   0.719   6.112 -0.0752 -0.1047  0.3641
   37MOL   C71628868   5.635   0.535   6.013  0.4317  0.2922 -0.0087
   37MOL   C71728869   5.522   0.447   6.028 -0.1034  0.1006  0.0454
   37MOL   C71828870   5.539   0.311   5.998  0.3304 -0.3092 -0.1299
   37MOL   C71928871   5.656   0.258   5.941 -0.5106 -0.1118  0.2373
   37MOL   C72028872   5.665   0.110   5.918  0.1756 -0.5031 -0.0630
   37MOL   O72128873   5.595   0.036   5.978 -0.1729  0.3287 -0.3852
   37MOL   O72228874   5.757   0.073   5.829 -0.3436 -0.4631  0.2195
   37MOL   C72328875   5.765   0.340   5.914  0.3162 -0.9304 -0.3345
   37MOL   C72428876   5.754   0.479   5.953 -0.2899 -0.1650 -0.7973
   37MOL   H72528877   5.732   0.962   5.782  1.1792 -1.5453  1.7270
   37MOL   H72628878   5.801   1.097   5.885 -3.8048  4.3581  0.7814
   37MOL   H72728879   5.683   1.183   5.700  0.8472 -0.3604  0.1243
   37MOL   H72828880   5.531   1.093   5.747  0.8462 -0.0139 -1.1845
   37MOL   H72928881   5.674   1.313   5.898  0.1899  0.1394 -1.7546
   37MOL   H73028882   5.530   1.399   5.727 -0.2012  0.8112  0.4720
   37MOL   H73128883   5.392   1.321   5.778 -0.0881 -0.3784  1.2357
   37MOL   H73228884   5.504   1.291   6.078 -1.7609 -0.3247 -0.1900
   37MOL   H73328885   5.443   1.155   5.988 -1.0528  0.5628  1.1090
   37MOL   H73428886   5.593   1.068   6.171 -0.0326 -1.2974 -0.2879
   37MOL   H73528887   5.722   1.139   6.093  0.3319  0.9579 -3.1947
   37MOL   H73628888   5.555   0.941   5.955 -1.5212  1.9660 -1.9067
   37MOL   H73728889   5.838   0.913   6.070  0.0361  2.3405 -1.0079
   37MOL   H73828890   5.694   0.881   6.167 -1.4660 -2.6733 -0.7090
   37MOL   H73928891   5.430   0.480   6.072 -1.0782 -3.4669  0.8732
   37MOL   H74028892   5.458   0.241   6.015  0.4350 -0.4914 -0.3810
   37MOL   H74128893   5.857   0.306   5.870 -0.2183  1.8014 -3.7792
   37MOL   H74228894   5.844   0.537   5.941  0.1542 -0.4470  1.0921
   37MOL   C74328895   5.941   7.573   5.728  0.0180  0.1271  0.2266
   37MOL   C74428896   5.914   7.721   5.731  0.7078  0.7139 -0.4217
   37MOL   C74528897   5.763   7.757   5.710  0.2342  0.6627 -0.1828
   37MOL   C74628898   5.741   7.907   5.703 -0.2176  0.2139  0.3391
   37MOL   O74728899   5.786   7.958   5.827 -0.2583  0.3415 -0.4838
   37MOL   C74828900   5.706   7.677   5.584  0.7118  0.3968  0.1952
   37MOL   C74928901   5.722   7.528   5.606 -0.2007 -0.1316  0.4026
   37MOL   C75028902   5.874   7.495   5.612 -0.2934  0.6739 -0.1409
   37MOL   C75128903   5.909   7.349   5.623  0.2284  0.1788 -0.5017
   37MOL   O75228904   5.858   7.284   5.502 -0.2918  0.1927 -0.2294
   37MOL   C75328905   5.899   7.151   5.478  0.1043 -0.2860  0.2669
   37MOL   O75428906   5.985   7.095   5.537  0.2967  0.0637  0.3898
   37MOL   C75528907   5.819   7.086   5.367  0.2687 -0.4631 -0.7591
   37MOL   C75628908   5.718   7.155   5.298  0.0449 -0.1560 -0.3748
   37MOL   C75728909   5.632   7.089   5.208 -0.1941  0.0145 -0.7601
   37MOL   C75828910   5.649   6.951   5.178 -0.4304 -0.3308  0.2963
   37MOL   C75928911   5.563   6.883   5.081  0.1889 -0.3176  0.2941
   37MOL   O76028912   5.461   6.939   5.030 -0.9157  0.0837 -0.1739
   37MOL   O76128913   5.592   6.752   5.058  0.5548  0.1660  0.2004
   37MOL   C76228914   5.751   6.884   5.246  0.3377 -0.2449  0.0250
   37MOL   C76328915   5.832   6.948   5.338  0.5244 -0.2291 -0.7240
   37MOL   H76428916   6.049   7.567   5.716 -0.0616  2.0459 -1.8242
   37MOL   H76528917   5.913   7.523   5.821 -1.3386  0.4786  0.0129
   37MOL   H76628918   5.953   7.764   5.823 -0.3039 -2.1271  1.4042
   37MOL   H76728919   5.960   7.771   5.646  0.4761 -0.3182 -1.1674
   37MOL   H76828920   5.718   7.714   5.799  1.0590 -0.4300 -0.2792
   37MOL   H76928921   5.785   7.944   5.610 -4.1020 -1.0709 -2.1267
   37MOL   H77028922   5.635   7.929   5.685 -0.1449 -0.1582 -0.5774
   37MOL   H77128923   5.599   7.700   5.578  1.0294  1.5350 -1.0929
   37MOL   H77228924   5.767   7.693   5.496  2.2563 -1.0000  0.9871
   37MOL   H77328925   5.676   7.479   5.520  1.5705 -0.5942 -0.3037
   37MOL   H77428926   5.674   7.490   5.696 -0.4285 -1.0736 -0.1071
   37MOL   H77528927   5.909   7.529   5.515  0.7193  2.4456  0.8139
   37MOL   H77628928   6.018   7.350   5.620  0.2095  1.1758 -1.1065
   37MOL   H77728929   5.864   7.309   5.714 -0.3051 -0.4337 -1.0341
   37MOL   H77828930   5.688   7.256   5.322  0.3069 -0.2503  0.3587
   37MOL   H77928931   5.546   7.140   5.167 -1.1369 -0.7895  0.1823
   37MOL   H78028932   5.778   6.780   5.234  2.2588  0.0230  1.6138
   37MOL   H78128933   5.912   6.893   5.385 -1.5557 -3.4478 -0.7070
   37MOL   H78228934   5.558   6.735   4.971  0.0721  0.9858  0.2275
   38MOL     C128935   2.843   2.943   4.159  0.4650 -0.0670  0.7173
   38MOL     C228936   2.867   3.089   4.204  0.2236  0.0478 -0.0691
   38MOL     C328937   3.004   3.102   4.277  0.1908  0.2253  0.3008
   38MOL     C428938   3.034   3.239   4.320 -0.6994 -0.2573 -0.7932
   38MOL     O528939   2.953   3.294   4.431 -0.3129  0.1450  0.7369
   38MOL     C628940   3.016   3.003   4.391  0.0403  0.1444  0.0095
   38MOL     C728941   3.005   2.859   4.332 -0.2072 -0.5359  0.1907
   38MOL     C828942   2.868   2.837   4.269  0.5493 -0.5230  0.1661
   38MOL     C928943   2.839   2.695   4.216  0.0206 -0.4719 -0.4029
   38MOL    O1028944   2.841   2.589   4.315  1.0925 -0.1429  0.6483
   38MOL    C1128945   2.952   2.517   4.334 -1.0299  0.3691 -0.3737
   38MOL    O1228946   3.063   2.559   4.292 -0.1125 -0.1214  0.4372
   38MOL    C1328947   2.942   2.402   4.432 -0.1759  0.4332 -0.6907
   38MOL    C1428948   3.072   2.347   4.472  0.5829  0.8072  0.7021
   38MOL    C1528949   3.066   2.226   4.550  0.3174  0.4479 -0.5320
   38MOL    C1628950   2.943   2.170   4.584 -0.4376 -0.2570 -0.4800
   38MOL    C1728951   2.934   2.051   4.668 -0.3153 -0.3528  0.0290
   38MOL    O1828952   2.839   1.969   4.666  0.3556 -0.2629  0.0042
   38MOL    O1928953   3.046   2.037   4.745 -0.7031 -0.2138 -0.1404
   38MOL    C2028954   2.820   2.220   4.541  0.2839  0.5963 -0.3233
   38MOL    C2128955   2.823   2.334   4.462  0.6882 -0.4866  0.2410
   38MOL    H2228956   2.740   2.931   4.123  1.0350 -3.5768 -0.0071
   38MOL    H2328957   2.894   2.911   4.068 -0.2589 -1.0818  0.6479
   38MOL    H2428958   2.858   3.161   4.123  0.1410  0.3302  0.1907
   38MOL    H2528959   2.786   3.107   4.275  0.0662  3.2916 -1.0182
   38MOL    H2628960   3.086   3.077   4.210 -1.4569 -0.3112 -1.5545
   38MOL    H2728961   3.133   3.236   4.364 -0.7922 -0.0188 -0.5703
   38MOL    H2828962   3.040   3.312   4.238  1.2353  0.1318 -0.3116
   38MOL    H2928963   3.118   3.004   4.430  0.7149  2.1567 -1.6997
   38MOL    H3028964   2.947   3.020   4.474 -0.6510 -0.8583 -0.3466
   38MOL    H3128965   3.022   2.793   4.417 -1.3937  0.4411  1.1982
   38MOL    H3228966   3.079   2.848   4.252 -0.7543  2.9212 -0.8743
   38MOL    H3328967   2.788   2.847   4.343  1.4194  0.5486  0.9642
   38MOL    H3428968   2.738   2.702   4.177  0.0544  2.6938 -0.0262
   38MOL    H3528969   2.905   2.664   4.135 -0.1933  0.1825 -0.8226
   38MOL    H3628970   3.160   2.403   4.443  0.3927 -0.2893 -2.2025
   38MOL    H3728971   3.160   2.188   4.587  0.5200  2.3736  0.9953
   38MOL    H3828972   2.726   2.177   4.573  0.6940 -0.5654 -0.6506
   38MOL    H3928973   2.727   2.377   4.435 -0.3293 -2.9331 -0.1731
   38MOL    H4028974   2.947   3.229   4.500 -0.2141  1.0312  1.5794
   38MOL    C4128975   3.021   1.581   4.556 -0.4977 -0.9356  0.0831
   38MOL    C4228976   3.034   1.665   4.676 -0.5125  0.0463 -0.0956
   38MOL    C4328977   3.151   1.767   4.677  0.4904 -0.2790 -0.0226
   38MOL    C4428978   3.165   1.843   4.808  0.0631  0.5435 -0.6212
   38MOL    O4528979   3.054   1.927   4.842  0.4029  0.0527 -0.0733
   38MOL    C4628980   3.283   1.694   4.639 -0.1060  0.2708 -0.8969
   38MOL    C4728981   3.262   1.613   4.510  0.2999 -0.7364 -0.3730
   38MOL    C4828982   3.147   1.514   4.517 -0.4168 -0.9172  1.0989
   38MOL    C4928983   3.128   1.428   4.384  0.1694 -0.4186  0.1297
   38MOL    O5028984   3.093   1.501   4.262 -0.5518 -0.3151  0.0981
   38MOL    C5128985   3.190   1.567   4.196 -0.5857 -0.1401 -0.2614
   38MOL    O5228986   3.309   1.562   4.226  0.1999  0.0611 -0.1716
   38MOL    C5328987   3.143   1.639   4.074  0.0566 -0.2984 -0.3357
   38MOL    C5428988   3.233   1.719   3.999  0.7528  0.2035 -0.5534
   38MOL    C5528989   3.187   1.780   3.880 -0.3486  1.0429  0.4490
   38MOL    C5628990   3.049   1.772   3.838  0.2608  0.0556 -0.3018
   38MOL    C5728991   2.988   1.830   3.719  0.1067 -0.9144 -0.0356
   38MOL    O5828992   2.866   1.826   3.696 -0.1340  0.0120  0.1032
   38MOL    O5928993   3.085   1.896   3.641 -0.0645 -0.5785 -0.7722
   38MOL    C6028994   2.959   1.697   3.920  0.0449  0.6643  0.5002
   38MOL    C6128995   3.009   1.634   4.038  0.2332  0.3607 -0.1078
   38MOL    H6228996   2.948   1.502   4.573 -0.8039 -0.6085  0.2854
   38MOL    H6328997   2.987   1.649   4.478  0.3000 -0.7662 -0.1181
   38MOL    H6428998   2.945   1.723   4.703  0.3384  1.1958  0.2788
   38MOL    H6528999   3.056   1.603   4.763 -0.0038 -0.0267 -0.2765
   38MOL    H6629000   3.143   1.845   4.601  0.1527  1.4792  1.7821
   38MOL    H6729001   3.167   1.774   4.892  3.8019 -0.7935 -1.6780
   38MOL    H6829002   3.258   1.900   4.817  1.1803 -1.4270  0.9084
   38MOL    H6929003   3.364   1.764   4.620 -0.3181  0.2258 -1.9678
   38MOL    H7029004   3.329   1.625   4.710  0.8038  0.6940 -1.0711
   38MOL    H7129005   3.356   1.568   4.478  1.6307  2.5292 -1.3212
   38MOL    H7229006   3.243   1.685   4.430  1.2295  0.8561  0.8044
   38MOL    H7329007   3.169   1.450   4.602  1.2477  0.0120  1.3797
   38MOL    H7429008   3.208   1.358   4.362  1.4768  0.6098  1.5534
   38MOL    H7529009   3.047   1.355   4.391 -1.4319  1.3015  0.1830
   38MOL    H7629010   3.338   1.717   4.019  0.2227 -1.6459  2.2158
   38MOL    H7729011   3.257   1.840   3.823 -1.5789  0.5075 -1.6845
   38MOL    H7829012   2.853   1.698   3.898  0.3123 -0.6014 -0.9478
   38MOL    H7929013   2.944   1.565   4.091  1.7344 -0.9303  0.0886
   38MOL    C8029014   2.785   2.356   3.358  0.2784  0.2541 -0.3175
   38MOL    C8129015   2.854   2.281   3.469 -0.6713 -0.2509 -0.3130
   38MOL    C8229016   2.927   2.157   3.429  0.3387 -0.4124 -0.0842
   38MOL    C8329017   2.984   2.095   3.556  0.4941  1.2552  0.1548
   38MOL    O8429018   3.018   1.963   3.525 -0.3471 -0.0896  0.0546
   38MOL    C8529019   2.831   2.060   3.368 -0.3394  0.9424 -0.3413
   38MOL    C8629020   2.770   2.124   3.249 -0.8933  0.3114 -0.2062
   38MOL    C8729021   2.696   2.257   3.291  0.0812 -0.0339  0.5949
   38MOL    C8829022   2.624   2.325   3.173  0.0413 -0.6512 -0.8283
   38MOL    O8929023   2.519   2.404   3.228  0.6479  0.8084  0.4419
   38MOL    C9029024   2.491   2.523   3.170 -0.0809 -0.0835 -0.9726
   38MOL    O9129025   2.551   2.575   3.074  0.1400  0.2134 -0.0365
   38MOL    C9229026   2.370   2.575   3.238  0.0206  0.5248 -0.0466
   38MOL    C9329027   2.335   2.542   3.373 -0.6153 -0.3220  0.3027
   38MOL    C9429028   2.216   2.582   3.425  0.0420  0.6100 -0.0643
   38MOL    C9529029   2.122   2.651   3.345  0.5653  0.6910  0.6497
   38MOL    C9629030   1.997   2.696   3.406  0.4345  0.3960 -0.2727
   38MOL    O9729031   1.918   2.779   3.364 -0.0492  0.1520 -0.1349
   38MOL    O9829032   1.972   2.631   3.529 -0.0451  0.2029 -0.0180
   38MOL    C9929033   2.159   2.689   3.213 -0.6007 -0.9500  0.2715
   38MOL   C10029034   2.287   2.650   3.160 -0.4151  0.1137  0.4650
   38MOL   H10129035   2.740   2.444   3.403  1.9757  0.2393  1.4516
   38MOL   H10229036   2.855   2.386   3.281 -1.0920  0.8597 -1.3346
   38MOL   H10329037   2.920   2.347   3.526 -0.2739 -1.5870  0.7895
   38MOL   H10429038   2.781   2.250   3.543 -1.8114 -0.3483 -1.4626
   38MOL   H10529039   3.006   2.191   3.362 -0.7236  3.7739  0.5994
   38MOL   H10629040   3.072   2.149   3.591  1.0058  0.0929  0.6535
   38MOL   H10729041   2.913   2.085   3.639  1.7369 -0.2629  1.0387
   38MOL   H10829042   2.891   1.977   3.330  1.8378  3.0697 -1.7923
   38MOL   H10929043   2.754   2.027   3.437  0.2356  1.6766  0.6670
   38MOL   H11029044   2.704   2.052   3.202  0.4866 -1.7457  0.9508
   38MOL   H11129045   2.840   2.151   3.170 -3.2648  2.1101 -1.7702
   38MOL   H11229046   2.622   2.231   3.368 -2.0810 -0.0171 -1.4212
   38MOL   H11329047   2.698   2.380   3.115  0.3912  0.4894  0.6742
   38MOL   H11429048   2.574   2.251   3.110 -1.4446  0.1268 -0.5845
   38MOL   H11529049   2.406   2.484   3.428 -1.1166 -0.2296  1.0494
   38MOL   H11629050   2.181   2.561   3.525 -1.7558  1.7848 -0.4324
   38MOL   H11729051   2.099   2.753   3.151  0.8142 -0.6552 -0.8315
   38MOL   H11829052   2.308   2.679   3.058 -2.6701 -2.5335 -0.8034
   38MOL   C11929053   1.345   2.682   3.585 -0.0364 -0.7668  0.1005
   38MOL   C12029054   1.471   2.593   3.594  0.3451 -0.9698  0.2675
   38MOL   C12129055   1.604   2.670   3.569 -0.4088 -0.4450  0.6023
   38MOL   C12229056   1.740   2.596   3.573  0.0710  0.2020 -0.5886
   38MOL   O12329057   1.839   2.683   3.604  0.4118  0.4098 -0.0132
   38MOL   C12429058   1.598   2.743   3.435  0.4307 -0.4860  1.2494
   38MOL   C12529059   1.468   2.827   3.412  0.2418 -0.6349 -0.3429
   38MOL   C12629060   1.338   2.747   3.439  0.1615  0.0638 -0.8120
   38MOL   C12729061   1.216   2.839   3.418 -0.3807  0.3780 -0.3496
   38MOL   O12829062   1.206   2.869   3.276 -0.5830 -0.1265 -0.0199
   38MOL   C12929063   1.094   2.912   3.225 -0.2986  0.2277 -0.2118
   38MOL   O13029064   0.982   2.906   3.277  0.1601  0.0295  0.4407
   38MOL   C13129065   1.126   2.966   3.091 -0.1953  0.1801 -0.2092
   38MOL   C13229066   1.028   2.966   2.992 -0.9953 -0.0318  0.4425
   38MOL   C13329067   1.051   3.028   2.868  0.2404  0.7638 -0.6735
   38MOL   C13429068   1.172   3.093   2.839  0.5199  0.3194  0.0873
   38MOL   C13529069   1.213   3.163   2.714  0.5135  0.4450 -0.2255
   38MOL   O13629070   1.329   3.184   2.676  0.1389  0.3793 -0.3863
   38MOL   O13729071   1.107   3.195   2.647  0.1819  0.4856  0.0151
   38MOL   C13829072   1.273   3.093   2.939  0.3842 -0.3554  0.0295
   38MOL   C13929073   1.249   3.030   3.060  0.7197 -0.1178  0.1215
   38MOL   H14029074   1.256   2.624   3.608 -0.5534 -0.5955 -1.4059
   38MOL   H14129075   1.347   2.766   3.655 -0.2677 -0.0200 -0.7801
   38MOL   H14229076   1.470   2.538   3.688 -0.3542 -1.5258 -0.0587
   38MOL   H14329077   1.455   2.511   3.524  1.4228 -0.1094 -1.0183
   38MOL   H14429078   1.607   2.752   3.641 -0.0397 -1.5735  1.8749
   38MOL   H14529079   1.738   2.511   3.642  0.4198  1.6210  1.2136
   38MOL   H14629080   1.750   2.549   3.475  0.6962  0.0985 -0.4765
   38MOL   H14729081   1.675   2.816   3.409 -1.5627  0.9229 -0.9749
   38MOL   H14829082   1.602   2.672   3.351 -4.9889 -0.4791  0.8093
   38MOL   H14929083   1.462   2.884   3.319  1.8190  2.0453  1.1696
   38MOL   H15029084   1.455   2.907   3.485 -0.7180  0.6151 -1.8398
   38MOL   H15129085   1.331   2.666   3.366 -1.1856  0.5581 -1.2492
   38MOL   H15229086   1.128   2.783   3.448  0.3821  1.1023  3.4777
   38MOL   H15329087   1.205   2.936   3.468  0.2959  0.1331  0.2808
   38MOL   H15429088   0.930   2.927   3.016 -1.8653  2.4738  1.0251
   38MOL   H15529089   0.974   3.032   2.792  0.5971  1.6279 -0.9938
   38MOL   H15629090   1.373   3.124   2.912 -0.1852 -1.4145 -3.4850
   38MOL   H15729091   1.331   3.034   3.130  1.1107  2.7806 -0.4453
   38MOL   C15829092   0.884   3.634   2.400  0.1204  0.5286  1.1159
   38MOL   C15929093   1.013   3.572   2.433  0.3869  0.4617  0.4495
   38MOL   C16029094   1.007   3.415   2.426  0.0369  0.2214 -0.0086
   38MOL   C16129095   1.140   3.367   2.483  0.2985  0.5998 -0.2155
   38MOL   O16229096   1.133   3.226   2.499  0.4758  0.7825  0.1218
   38MOL   C16329097   0.887   3.362   2.505  0.2111 -0.0334  0.9367
   38MOL   C16429098   0.755   3.439   2.484  0.0764  0.7267 -0.5256
   38MOL   C16529099   0.774   3.585   2.503 -0.1636 -0.0188 -0.2637
   38MOL   C16629100   0.641   3.651   2.473 -0.2867  0.4503  0.6965
   38MOL   O16729101   0.637   3.791   2.507 -0.3591  0.5913  0.7255
   38MOL   C16829102   0.642   3.886   2.409 -0.1969  0.0503  0.2796
   38MOL   O16929103   0.619   3.853   2.296  0.0942  0.6044 -0.3386
   38MOL   C17029104   0.656   4.023   2.455  0.2476 -0.1896 -0.4690
   38MOL   C17129105   0.637   4.067   2.588 -0.2540  0.8316  0.1446
   38MOL   C17229106   0.649   4.199   2.634 -0.9448  0.0552  0.3782
   38MOL   C17329107   0.681   4.295   2.537  0.7844  0.1646  0.3914
   38MOL   C17429108   0.688   4.442   2.573  0.2484 -0.0351 -0.2896
   38MOL   O17529109   0.687   4.482   2.692  0.3459 -0.0657  0.5513
   38MOL   O17629110   0.679   4.526   2.466  0.5395 -0.5474 -0.4485
   38MOL   C17729111   0.703   4.256   2.399  0.6492  0.8184 -0.2006
   38MOL   C17829112   0.686   4.124   2.360 -0.3314  0.0844  0.8584
   38MOL   H17929113   0.898   3.741   2.385  1.7010  0.1838  0.0311
   38MOL   H18029114   0.854   3.615   2.297 -1.6313 -0.0635  1.7039
   38MOL   H18129115   1.102   3.610   2.384  0.4203  2.4264  1.9530
   38MOL   H18229116   1.025   3.594   2.539 -1.0770  0.1355  0.6950
   38MOL   H18329117   0.994   3.392   2.321 -1.0939 -0.1520  0.2136
   38MOL   H18429118   1.214   3.391   2.407  0.6991  1.7329  0.5141
   38MOL   H18529119   1.166   3.408   2.581  0.4353 -0.5756  0.2474
   38MOL   H18629120   0.863   3.257   2.489 -2.3833  0.5499  0.8631
   38MOL   H18729121   0.906   3.384   2.611 -1.3641 -0.4030  1.3025
   38MOL   H18829122   0.691   3.397   2.562 -0.2990  0.6685 -0.8700
   38MOL   H18929123   0.706   3.408   2.392  1.5173 -0.1624 -1.0215
   38MOL   H19029124   0.808   3.614   2.603  0.1767 -1.3022 -0.0010
   38MOL   H19129125   0.616   3.633   2.368  1.6414  0.6588  0.1811
   38MOL   H19229126   0.559   3.603   2.526 -0.8297  0.2591 -0.3009
   38MOL   H19329127   0.606   3.992   2.659 -0.1444  1.2873  0.6802
   38MOL   H19429128   0.639   4.225   2.738  1.5158 -0.8981  0.8974
   38MOL   H19529129   0.742   4.331   2.331  1.0039 -0.8989 -1.9728
   38MOL   H19629130   0.706   4.100   2.256 -1.3166 -0.6099  0.8237
   38MOL   C19729131   0.478   4.931   2.830 -0.7382  0.2857  0.7155
   38MOL   C19829132   0.508   4.805   2.752 -0.1532  0.4463  0.7195
   38MOL   C19929133   0.485   4.821   2.597 -0.5751 -0.4328  0.7073
   38MOL   C20029134   0.510   4.690   2.524 -0.2883 -0.4301  1.0277
   38MOL   O20129135   0.650   4.671   2.507 -0.1970  0.1733 -0.1916
   38MOL   C20229136   0.348   4.879   2.564  0.2349 -0.6348  0.5395
   38MOL   C20329137   0.332   5.013   2.637  1.0328 -0.5246 -0.7396
   38MOL   C20429138   0.347   5.002   2.792 -0.6461 -0.0493  0.3840
   38MOL   C20529139   0.325   5.131   2.866 -0.0180  0.1023 -0.1203
   38MOL   O20629140   0.339   5.112   3.007  0.0534 -0.0922 -0.0594
   38MOL   C20729141   0.440   5.158   3.084  0.2364 -0.5642  0.4568
   38MOL   O20829142   0.546   5.200   3.043 -0.8873  0.8895  0.4205
   38MOL   C20929143   0.404   5.155   3.228  0.3621 -0.0678  0.1318
   38MOL   C21029144   0.289   5.087   3.278  0.0111  0.3573 -1.0124
   38MOL   C21129145   0.255   5.103   3.416 -0.7664  0.2088 -0.2476
   38MOL   C21229146   0.340   5.148   3.511 -0.5494  0.1049 -0.4658
   38MOL   C21329147   0.315   5.143   3.654  0.4942 -0.0368 -0.5065
   38MOL   O21429148   0.200   5.149   3.696  0.9256 -0.8027  0.5207
   38MOL   O21529149   0.422   5.146   3.729 -0.1660  0.1019  0.2068
   38MOL   C21629150   0.452   5.215   3.456  0.1322 -0.4581 -0.2826
   38MOL   C21729151   0.491   5.213   3.319  0.4579  0.1132  0.5928
   38MOL   H21829152   0.463   4.900   2.933 -2.0762 -2.4113 -0.2099
   38MOL   H21929153   0.569   4.985   2.805 -0.7020 -0.8147 -1.7277
   38MOL   H22029154   0.606   4.762   2.770 -0.7524 -1.6119 -0.7451
   38MOL   H22129155   0.434   4.739   2.797  1.3542 -0.6990  1.5487
   38MOL   H22229156   0.558   4.887   2.549  0.3387 -2.8758 -1.4125
   38MOL   H22329157   0.448   4.612   2.568 -0.6586 -0.8354 -0.1990
   38MOL   H22429158   0.459   4.697   2.428 -2.6733 -0.7863  2.2390
   38MOL   H22529159   0.334   4.883   2.456 -0.3666  3.1688  0.6758
   38MOL   H22629160   0.281   4.803   2.603  1.0361 -0.5438  2.1616
   38MOL   H22729161   0.233   5.055   2.621  1.5991  1.8285  1.4987
   38MOL   H22829162   0.401   5.092   2.606  1.2202 -1.2743 -2.2684
   38MOL   H22929163   0.274   4.931   2.831  0.1704 -0.1097  1.8569
   38MOL   H23029164   0.396   5.208   2.833 -0.9742  2.0594  2.1833
   38MOL   H23129165   0.226   5.171   2.845  0.8059  1.2210 -2.0264
   38MOL   H23229166   0.218   5.046   3.208 -0.6573 -0.6000  0.2073
   38MOL   H23329167   0.162   5.056   3.444  0.2620 -2.6542 -1.4810
   38MOL   H23429168   0.513   5.269   3.527 -0.7937  0.1999  0.0282
   38MOL   H23529169   0.573   5.275   3.286  0.1023  0.1301 -0.2796
   38MOL   C23629170   0.754   5.379   3.832 -0.0418  0.1622 -0.4998
   38MOL   C23729171   0.611   5.337   3.822 -0.3179 -0.1441 -0.3115
   38MOL   C23829172   0.553   5.301   3.964  0.4267  0.1892  0.3629
   38MOL   C23929173   0.408   5.249   3.942  0.1446  0.1921  0.5828
   38MOL   O24029174   0.394   5.122   3.879 -0.0332 -0.1614 -0.1300
   38MOL   C24129175   0.644   5.194   4.033 -0.3409 -0.1417 -0.2108
   38MOL   C24229176   0.795   5.246   4.042  0.3504 -0.3140 -0.4850
   38MOL   C24329177   0.848   5.273   3.902  0.4625  0.6689  0.1205
   38MOL   C24429178   0.987   5.330   3.912 -0.2740  0.4415 -0.0809
   38MOL   O24529179   1.072   5.236   3.967  0.6041  0.0801  0.1766
   38MOL   C24629180   1.168   5.276   4.051  0.1400 -0.2090  0.4739
   38MOL   O24729181   1.169   5.386   4.106 -0.6275  0.0616 -0.1544
   38MOL   C24829182   1.261   5.175   4.100 -0.1711  0.2860  0.3269
   38MOL   C24929183   1.344   5.207   4.212  0.2562  0.9476 -0.2805
   38MOL   C25029184   1.433   5.108   4.254  0.6565 -0.5320  0.6253
   38MOL   C25129185   1.430   4.977   4.199  0.4997  0.3157 -0.7208
   38MOL   C25229186   1.529   4.874   4.240 -0.5337  0.4568 -0.6992
   38MOL   O25329187   1.540   4.765   4.182  0.2331 -0.5846  0.3175
   38MOL   O25429188   1.618   4.910   4.340 -0.4847 -0.1145  0.3858
   38MOL   C25529189   1.347   4.951   4.089  0.5763  0.6784  0.0106
   38MOL   C25629190   1.263   5.050   4.038  0.5782  0.0745 -0.1539
   38MOL   H25729191   0.793   5.407   3.735 -0.0254 -1.9471 -1.1260
   38MOL   H25829192   0.755   5.465   3.900 -0.4325 -1.0439  1.0696
   38MOL   H25929193   0.548   5.413   3.777 -1.0880 -0.8292 -0.3875
   38MOL   H26029194   0.612   5.252   3.755 -1.7665 -0.3575 -0.0828
   38MOL   H26129195   0.539   5.389   4.026  1.1980  1.8205 -1.7234
   38MOL   H26229196   0.355   5.241   4.037  1.3820  0.8024  1.3296
   38MOL   H26329197   0.355   5.327   3.887  0.0717 -0.9612 -1.0559
   38MOL   H26429198   0.598   5.163   4.127  0.0678 -3.8997 -1.1624
   38MOL   H26529199   0.647   5.106   3.968  4.1077 -0.1303 -0.1625
   38MOL   H26629200   0.859   5.186   4.106  0.4698 -0.6060 -0.8853
   38MOL   H26729201   0.806   5.334   4.106  1.2137 -0.6825 -0.1183
   38MOL   H26829202   0.863   5.181   3.845 -0.9326  1.0543 -0.8793
   38MOL   H26929203   1.014   5.366   3.813 -0.7281  2.2073  0.4271
   38MOL   H27029204   0.987   5.413   3.982 -2.0501  0.8034 -0.4699
   38MOL   H27129205   1.344   5.300   4.267 -0.3408  0.5427  0.4249
   38MOL   H27229206   1.492   5.130   4.341  0.5572  0.9028  0.3369
   38MOL   H27329207   1.332   4.856   4.040 -0.1014  0.1352  1.2389
   38MOL   H27429208   1.198   5.026   3.956  0.1005  2.9850 -0.6717
   38MOL   C27529209   2.080   4.980   4.588 -1.2837  0.2941  0.5663
   38MOL   C27629210   2.001   4.903   4.487 -0.1494 -0.2076  0.3377
   38MOL   C27729211   1.926   5.000   4.399  0.5620  0.6137  0.1350
   38MOL   C27829212   1.846   4.928   4.289 -0.5254 -0.4743  0.3886
   38MOL   O27929213   1.747   4.841   4.344 -0.5437 -0.1308  0.4408
   38MOL   C28029214   1.837   5.080   4.487 -0.1727 -0.7933  0.0253
   38MOL   C28129215   1.906   5.157   4.595 -0.0176  0.0252 -0.8378
   38MOL   C28229216   1.995   5.066   4.680  0.5562 -0.5186 -0.3474
   38MOL   C28329217   2.070   5.142   4.783  0.0368 -0.4417 -0.0586
   38MOL   O28429218   2.154   5.062   4.868  0.2135  0.3829 -0.0751
   38MOL   C28529219   2.195   5.126   4.978 -0.5687  0.4014  0.2870
   38MOL   O28629220   2.130   5.212   5.033  0.0940  0.1167  0.2737
   38MOL   C28729221   2.318   5.058   5.030 -0.0728  0.6281 -0.2532
   38MOL   C28829222   2.392   4.963   4.959 -0.1005  0.1061 -0.4538
   38MOL   C28929223   2.514   4.911   5.006 -0.3223  0.4242 -0.0478
   38MOL   C29029224   2.575   4.961   5.128  0.4105 -0.0439  0.2367
   38MOL   C29129225   2.705   4.914   5.178 -0.1871  1.1407  0.1409
   38MOL   O29229226   2.783   4.838   5.117 -0.1041 -0.1831 -0.6217
   38MOL   O29329227   2.737   4.966   5.301 -0.0758  0.1130 -0.0553
   38MOL   C29429228   2.492   5.055   5.204 -0.6160  0.2693  0.8139
   38MOL   C29529229   2.367   5.096   5.158  0.0834  0.3395 -0.1900
   38MOL   H29629230   2.141   4.917   4.653  0.5758  4.0186  2.6410
   38MOL   H29729231   2.145   5.048   4.533 -0.5624  0.2305  1.3284
   38MOL   H29829232   2.070   4.838   4.433 -1.4625 -1.5951  0.2838
   38MOL   H29929233   1.934   4.825   4.521 -1.7555  0.7561 -0.5722
   38MOL   H30029234   1.987   5.074   4.348  1.9044  0.7752  1.9445
   38MOL   H30129235   1.803   5.009   4.230  2.3800  0.6204 -0.3070
   38MOL   H30229236   1.907   4.860   4.229 -0.7105 -1.0711  0.8789
   38MOL   H30329237   1.769   5.145   4.433  0.8879 -0.3870 -0.8455
   38MOL   H30429238   1.774   5.012   4.543 -3.0249 -0.0285 -2.1684
   38MOL   H30529239   1.833   5.215   4.653 -1.6960 -2.0458 -0.8426
   38MOL   H30629240   1.965   5.236   4.549 -1.3109  2.2805  1.2483
   38MOL   H30729241   1.943   4.991   4.739 -0.3997  1.2509  1.1461
   38MOL   H30829242   2.138   5.211   4.731  0.9570 -1.3421 -0.0595
   38MOL   H30929243   2.002   5.199   4.846 -2.4033 -2.5962 -0.6747
   38MOL   H31029244   2.369   4.928   4.860 -2.0083 -1.8513  0.6498
   38MOL   H31129245   2.574   4.846   4.944  0.5248 -0.7079  1.9371
   38MOL   H31229246   2.513   5.097   5.301  1.9135 -0.5412  0.6328
   38MOL   H31329247   2.332   5.176   5.220 -0.2508  0.8680 -1.0497
   38MOL   C31429248   2.911   4.918   5.789  0.1981  0.8572 -0.1579
   38MOL   C31529249   2.970   4.916   5.645 -0.7815 -0.0938  0.0042
   38MOL   C31629250   2.866   4.859   5.547 -0.9134 -0.6034  0.5203
   38MOL   C31729251   2.927   4.853   5.400 -0.7405 -0.3389 -0.5559
   38MOL   O31829252   2.886   4.968   5.328  0.0483 -0.4612  0.5276
   38MOL   C31929253   2.820   4.715   5.589 -0.4005  0.9372  0.1429
   38MOL   C32029254   2.771   4.708   5.730  0.2965 -0.2767 -0.7356
   38MOL   C32129255   2.871   4.775   5.824  0.1282  0.5197  0.0571
   38MOL   C32229256   2.847   4.748   5.975  0.0647 -0.2513 -0.2260
   38MOL   O32329257   2.738   4.819   6.030  0.4805  0.1340  0.3699
   38MOL   C32429258   2.613   4.760   6.034 -0.0542 -0.1329 -0.9307
   38MOL   O32529259   2.589   4.651   5.993  0.1801  0.0601 -0.6329
   38MOL   C32629260   2.510   4.850   6.099 -0.3717  0.1442  0.0912
   38MOL   C32729261   2.544   4.980   6.139 -0.0867  0.6047  0.8115
   38MOL   C32829262   2.446   5.065   6.202 -0.1879  0.7813 -0.2079
   38MOL   C32929263   2.317   5.021   6.227  0.0204 -0.4844 -0.0454
   38MOL   C33029264   2.218   5.108   6.302  0.0679  0.7879  0.0408
   38MOL   O33129265   2.235   5.228   6.326  0.0637 -0.3428 -0.1409
   38MOL   O33229266   2.109   5.040   6.347 -0.3803 -0.1218  0.4125
   38MOL   C33329267   2.288   4.892   6.194 -0.4877 -0.8434  0.9156
   38MOL   C33429268   2.381   4.808   6.129  0.1599 -0.1481 -0.5712
   38MOL   H33529269   2.994   4.949   5.853  1.2553 -1.9235 -0.0907
   38MOL   H33629270   2.830   4.990   5.797 -0.5831 -0.0348  0.1143
   38MOL   H33729271   3.013   5.013   5.622 -0.3001  0.0037  1.2954
   38MOL   H33829272   3.052   4.844   5.644 -0.6835  0.0202 -0.1420
   38MOL   H33929273   2.783   4.930   5.548  0.6628  1.2795  0.7488
   38MOL   H34029274   3.035   4.841   5.401 -1.0160 -2.8991  0.7148
   38MOL   H34129275   2.888   4.760   5.358 -0.4244 -1.9023  2.4804
   38MOL   H34229276   2.752   4.679   5.512  0.5896 -1.1030  0.1861
   38MOL   H34329277   2.903   4.644   5.591 -1.8856 -0.8360  0.2080
   38MOL   H34429278   2.755   4.602   5.753  1.3091  0.1346  2.1131
   38MOL   H34529279   2.676   4.759   5.722  1.8492  3.1473  1.2516
   38MOL   H34629280   2.959   4.714   5.803 -2.0242 -2.4051 -0.7629
   38MOL   H34729281   2.845   4.642   5.998 -0.0729  0.0628  1.2833
   38MOL   H34829282   2.933   4.787   6.030  1.0530  1.6900 -3.0310
   38MOL   H34929283   2.644   5.017   6.120 -0.4239  0.7091 -0.7726
   38MOL   H35029284   2.472   5.168   6.223 -1.0038  0.8923  0.2981
   38MOL   H35129285   2.187   4.856   6.208 -0.4936 -2.1445 -2.1543
   38MOL   H35229286   2.347   4.707   6.115 -2.2163  0.5202  0.0297
   38MOL   C35329287   1.582   5.063   6.518  0.0478  0.3939  0.6306
   38MOL   C35429288   1.727   5.048   6.456 -0.4421  0.3857 -0.3053
   38MOL   C35529289   1.773   5.173   6.378 -0.1307  0.2867 -0.0326
   38MOL   C35629290   1.906   5.158   6.308  0.0759 -0.1593  0.2311
   38MOL   O35729291   1.999   5.123   6.412  0.2238  0.2491  0.7166
   38MOL   C35829292   1.660   5.222   6.283 -0.1879  0.0367  0.3055
   38MOL   C35929293   1.527   5.253   6.358 -0.2029 -0.3103  0.1683
   38MOL   C36029294   1.473   5.129   6.426  0.4717 -0.6059  1.0607
   38MOL   C36129295   1.349   5.160   6.510 -0.0492  0.3153  0.4416
   38MOL   O36229296   1.381   5.253   6.618 -0.0942  0.0809 -0.6357
   38MOL   C36329297   1.324   5.224   6.742 -1.0822  0.0998 -0.3399
   38MOL   O36429298   1.258   5.125   6.763 -1.1542 -0.3251  0.4086
   38MOL   C36529299   1.386   5.304   6.852 -0.6058  0.3983 -0.2643
   38MOL   C36629300   1.454   5.425   6.824  0.4904  0.0058  0.4511
   38MOL   C36729301   1.514   5.498   6.929  0.0135 -0.2369  0.2572
   38MOL   C36829302   1.502   5.445   7.066  0.0789 -0.1643 -0.1013
   38MOL   C36929303   1.563   5.525   7.171 -0.1956  0.7766 -0.8733
   38MOL   O37029304   1.627   5.627   7.148 -0.2285  0.1388 -0.2332
   38MOL   O37129305   1.548   5.468   7.297 -0.1099  0.5646 -0.5383
   38MOL   C37229306   1.426   5.330   7.096 -0.1772 -0.4278  0.0283
   38MOL   C37329307   1.359   5.266   6.985 -0.6278  0.0324 -0.1197
   38MOL   H37429308   1.551   4.973   6.572 -0.1797 -0.5947 -1.1135
   38MOL   H37529309   1.610   5.141   6.589  0.1739  0.6712  0.2781
   38MOL   H37629310   1.793   5.017   6.536 -1.7358 -1.8823 -0.0642
   38MOL   H37729311   1.717   4.959   6.392  0.1302  0.1853 -0.1155
   38MOL   H37829312   1.787   5.239   6.463  0.1047 -0.1219  0.2505
   38MOL   H37929313   1.902   5.080   6.232  0.9558  0.8177 -0.8138
   38MOL   H38029314   1.943   5.251   6.267 -1.6104  0.1673 -0.5943
   38MOL   H38129315   1.705   5.310   6.238 -1.1351 -0.1218 -0.9876
   38MOL   H38229316   1.641   5.143   6.211  1.4459 -1.6121  1.6396
   38MOL   H38329317   1.465   5.290   6.276  0.4067 -2.2662 -1.2099
   38MOL   H38429318   1.548   5.333   6.429  3.7874 -0.9922 -0.1446
   38MOL   H38529319   1.443   5.057   6.350  0.9770 -0.5054  0.7596
   38MOL   H38629320   1.278   5.214   6.447  0.1746 -1.8166 -1.6495
   38MOL   H38729321   1.308   5.066   6.547 -1.8065  0.4651 -1.0610
   38MOL   H38829322   1.463   5.461   6.722  0.8091 -0.5648  0.2704
   38MOL   H38929323   1.565   5.591   6.909 -0.5098  0.2423  1.1467
   38MOL   H39029324   1.419   5.295   7.198  2.8720 -1.9477 -0.2233
   38MOL   H39129325   1.296   5.181   7.007  0.7542 -1.3911 -1.4467
   38MOL   C39229326   1.690   5.734   7.797 -0.1746 -1.1560  0.0508
   38MOL   C39329327   1.639   5.648   7.681  0.3690  0.8388 -0.0497
   38MOL   C39429328   1.544   5.720   7.585  0.8466  0.4059 -0.7512
   38MOL   C39529329   1.487   5.623   7.477 -0.4908 -0.6404  0.8213
   38MOL   O39629330   1.596   5.550   7.417  0.3533 -0.0908  0.2729
   38MOL   C39729331   1.428   5.770   7.675  0.3993 -0.1425  0.4146
   38MOL   C39829332   1.486   5.870   7.762 -0.2613 -0.1916 -0.8766
   38MOL   C39929333   1.569   5.798   7.867 -0.0552 -0.5575  0.1068
   38MOL   C40029334   1.589   5.902   7.987 -0.2342  0.1414  0.6614
   38MOL   O40129335   1.467   5.938   0.010 -0.1865 -0.0862 -0.0907
   38MOL   C40229336   1.414   5.862   0.113  0.1601 -0.7116  0.4179
   38MOL   O40329337   1.463   5.755   0.148  0.5435  0.1311 -0.4529
   38MOL   C40429338   1.289   5.912   0.163  0.3865  0.9042 -0.2866
   38MOL   C40529339   1.202   5.823   0.233  0.2569 -0.2778 -0.7132
   38MOL   C40629340   1.077   5.873   0.279  0.4593  0.4021  0.3266
   38MOL   C40729341   1.037   6.004   0.249 -0.1531  0.0853 -1.1159
   38MOL   C40829342   0.899   6.056   0.282  0.0498  0.1357  0.3199
   38MOL   O40929343   0.858   6.168   0.248  0.0920  0.8118 -0.4561
   38MOL   O41029344   0.824   5.964   0.339  1.3117  0.1152 -0.1212
   38MOL   C41129345   1.121   6.087   0.173  0.5029 -0.6398  0.2877
   38MOL   C41229346   1.249   6.044   0.133 -0.2519 -0.0694 -0.0103
   38MOL   H41329347   1.745   5.671   7.866  0.1221  0.2956  1.1731
   38MOL   H41429348   1.760   5.811   7.762 -1.7521  0.0551 -0.5268
   38MOL   H41529349   1.733   5.618   7.636 -0.0231 -0.6479  0.0710
   38MOL   H41629350   1.595   5.557   7.724 -0.9341  0.2348 -2.5203
   38MOL   H41729351   1.586   5.813   7.546  0.0736  1.1002  0.0515
   38MOL   H41829352   1.410   5.555   7.514 -3.2983  0.7680 -2.1991
   38MOL   H41929353   1.433   5.683   7.404 -0.3096  1.6368  2.5408
   38MOL   H42029354   1.342   5.797   7.613  1.4466  1.7283 -0.2454
   38MOL   H42129355   1.398   5.680   7.729  1.8234  1.1027  3.3819
   38MOL   H42229356   1.393   5.905   7.807 -0.9221 -0.3351 -2.1100
   38MOL   H42329357   1.530   5.959   7.717  0.7140 -0.7868 -1.1145
   38MOL   H42429358   1.507   5.715   7.903 -1.6193  0.8241  0.6896
   38MOL   H42529359   1.669   5.869   0.019  0.4810  1.2155  0.3392
   38MOL   H42629360   1.636   5.980   7.928  0.9818 -0.8338  0.3044
   38MOL   H42729361   1.234   5.721   0.252  1.0384  0.2147  0.6894
   38MOL   H42829362   1.003   5.812   0.328  0.1364  1.0013  0.5873
   38MOL   H42929363   1.089   6.187   0.149  0.8098 -0.6192 -0.0339
   38MOL   H43029364   1.312   6.115   0.081 -1.0825 -0.3164 -1.3906
   38MOL   C43129365   0.370   6.035   0.752  0.1411  0.0554 -0.3361
   38MOL   C43229366   0.510   5.991   0.709 -0.3494  0.3210 -0.1116
   38MOL   C43329367   0.540   6.044   0.564 -0.6137  0.1268  0.0961
   38MOL   C43429368   0.687   6.002   0.520 -0.0278  0.0518  0.3838
   38MOL   O43529369   0.694   6.015   0.379 -0.5468 -0.1715 -0.0777
   38MOL   C43629370   0.434   5.979   0.468  0.4398  0.6127 -0.7982
   38MOL   C43729371   0.293   6.013   0.505 -0.9039  0.0133  0.2943
   38MOL   C43829372   0.264   5.985   0.653  0.0305  0.0401 -0.6893
   38MOL   C43929373   0.116   6.029   0.695 -0.5255  0.2928 -0.2676
   38MOL   O44029374   0.090   6.035   0.837 -0.2841 -0.7132 -0.0685
   38MOL   C44129375   8.002   5.991   0.877 -0.1846 -0.2234  0.4670
   38MOL   O44229376   7.923   5.935   0.802  0.3957  0.4483 -0.2488
   38MOL   C44329377   7.979   6.014   1.021  0.3198 -0.2036  0.5030
   38MOL   C44429378   7.851   6.014   1.066 -0.5747  0.4980 -0.7990
   38MOL   C44529379   7.814   6.046   1.194 -0.2627  0.6010  0.0085
   38MOL   C44629380   7.913   6.061   1.292  0.3205 -0.2182  0.5047
   38MOL   C44729381   7.881   6.102   1.434  0.6969 -0.4413 -0.1636
   38MOL   O44829382   7.966   6.147   1.512  0.0016  0.2117  0.4314
   38MOL   O44929383   7.747   6.078   1.475 -0.0377  0.1393  0.4792
   38MOL   C45029384   0.018   6.047   1.255  0.4056  0.5089  0.2534
   38MOL   C45129385   0.047   6.027   1.115 -0.3402 -0.1122  0.9795
   38MOL   H45229386   0.338   6.002   0.851 -1.8929 -0.7361 -1.2324
   38MOL   H45329387   0.365   6.141   0.775 -1.7278  0.6290 -3.1351
   38MOL   H45429388   0.575   6.029   0.788 -0.9684 -1.3947  1.2672
   38MOL   H45529389   0.510   5.882   0.703  0.7922  0.3241 -0.1867
   38MOL   H45629390   0.542   6.153   0.559 -0.1560  0.1665  1.0574
   38MOL   H45729391   0.765   6.059   0.570 -1.4917  2.1991  0.3064
   38MOL   H45829392   0.709   5.901   0.556 -1.0297 -0.6465 -0.9135
   38MOL   H45929393   0.454   6.021   0.369  1.7066  0.1785 -0.7338
   38MOL   H46029394   0.437   5.870   0.466  1.7986  0.5243  2.4218
   38MOL   H46129395   0.213   5.969   0.445  0.0929 -0.5393 -0.6484
   38MOL   H46229396   0.282   6.120   0.486  1.5857  0.5522  1.7041
   38MOL   H46329397   0.269   5.877   0.664 -2.0372  0.1606  2.0850
   38MOL   H46429398   0.107   6.130   0.656 -1.7870 -0.9079 -3.2241
   38MOL   H46529399   0.054   5.965   0.632 -0.4432  0.1869 -0.2421
   38MOL   H46629400   7.772   5.987   0.998 -1.5570  2.1009 -0.3237
   38MOL   H46729401   7.709   6.066   1.213 -0.5179  1.8289 -2.5142
   38MOL   H46829402   0.089   6.066   1.334  0.1398 -0.6670  0.7860
   38MOL   H46929403   0.152   6.036   1.091 -0.8632  2.1798 -0.5783
   38MOL   C47029404   7.709   5.468   1.573 -0.2056 -0.0622  0.5204
   38MOL   C47129405   7.742   5.616   1.609  0.3994 -0.2510  0.6194
   38MOL   C47229406   7.698   5.709   1.497  0.0985  0.6491  0.4047
   38MOL   C47329407   7.716   5.852   1.531 -0.0638 -0.1173 -0.4994
   38MOL   O47429408   7.693   5.938   1.429  0.1813 -0.4174 -0.1054
   38MOL   C47529409   7.756   5.660   1.358  0.2114  0.2868  0.1825
   38MOL   C47629410   7.732   5.515   1.330 -0.5837  0.4293 -0.1451
   38MOL   C47729411   7.776   5.422   1.451  0.0834 -0.3377 -0.3098
   38MOL   C47829412   7.735   5.271   1.439 -0.4422  0.2086  0.0720
   38MOL   O47929413   7.789   5.218   1.322  0.2978  0.1640  0.6032
   38MOL   C48029414   7.716   5.124   1.254 -0.2389  0.2537 -0.6863
   38MOL   O48129415   7.602   5.093   1.275  0.1808  0.2917  0.1213
   38MOL   C48229416   7.791   5.058   1.144 -1.0966  0.0843 -0.3761
   38MOL   C48329417   7.746   4.933   1.098 -0.4565  0.0388 -0.2175
   38MOL   C48429418   7.825   4.872   0.996 -0.2552  0.0540  0.4308
   38MOL   C48529419   7.941   4.933   0.948  0.4551  0.4608  0.8442
   38MOL   C48629420   8.022   4.859   0.846  0.3261 -0.0204 -0.0182
   38MOL   O48729421   0.077   4.911   0.780  0.9812 -0.0014 -0.2736
   38MOL   O48829422   7.988   4.728   0.827  0.3906 -0.2687 -0.0939
   38MOL   C48929423   7.977   5.065   0.981 -0.0977  0.1995  0.8057
   38MOL   C49029424   7.904   5.123   1.084 -0.0909 -0.1108 -0.0478
   38MOL   H49129425   7.737   5.405   1.657  1.0420  1.5071  1.3240
   38MOL   H49229426   7.602   5.455   1.561 -0.1674 -1.2037  1.3713
   38MOL   H49329427   7.690   5.652   1.698  2.1083  1.9770  0.7739
   38MOL   H49429428   7.845   5.634   1.641  0.7232 -0.9741  0.0038
   38MOL   H49529429   7.592   5.685   1.492  0.5590 -1.1137 -1.2451
   38MOL   H49629430   7.664   5.875   1.624  0.2564 -0.3050 -0.2702
   38MOL   H49729431   7.819   5.877   1.557 -0.6243  1.0579  0.6733
   38MOL   H49829432   7.721   5.723   1.276 -0.1411  0.5500  0.5367
   38MOL   H49929433   7.865   5.672   1.359  0.4905 -2.0917  1.1115
   38MOL   H50029434   7.794   5.488   1.245 -0.0164 -1.2216  0.7773
   38MOL   H50129435   7.627   5.503   1.303 -0.0182  0.9776 -2.6822
   38MOL   H50229436   7.882   5.437   1.472 -0.0737  0.5778 -0.1330
   38MOL   H50329437   7.751   5.214   1.531 -2.7978 -0.8383 -0.1162
   38MOL   H50429438   7.627   5.278   1.432 -0.3828  2.6162  1.1007
   38MOL   H50529439   7.660   4.882   1.139 -0.3115  1.7560  2.3544
   38MOL   H50629440   7.797   4.775   0.957 -3.1992  0.5752  1.1245
   38MOL   H50729441   0.033   5.106   0.941 -1.2739  0.8518 -1.3100
   38MOL   H50829442   7.940   5.213   1.132  0.3852 -0.0270 -0.5623
   38MOL   C50929443   0.375   4.472   0.511  0.3513  0.2975 -0.6708
   38MOL   C51029444   0.242   4.500   0.581 -0.5470  0.3937 -0.2274
   38MOL   C51129445   0.188   4.639   0.550  0.2997  0.7179  0.5592
   38MOL   C51229446   0.053   4.659   0.614  0.7629  0.4979 -0.8626
   38MOL   O51329447   0.063   4.646   0.759 -0.1123  0.0913 -0.1797
   38MOL   C51429448   0.293   4.736   0.586 -0.6271 -0.1947 -0.8112
   38MOL   C51529449   0.419   4.713   0.500  0.1366 -0.6951 -0.8746
   38MOL   C51629450   0.484   4.581   0.534 -0.7126 -0.4235  0.5215
   38MOL   C51729451   0.618   4.554   0.460  0.4129  0.3426  0.2947
   38MOL   O51829452   0.607   4.491   0.328 -0.2386 -0.1255 -0.2482
   38MOL   C51929453   0.601   4.560   0.221  0.0887 -0.6558 -0.7707
   38MOL   O52029454   0.629   4.679   0.220 -0.2746 -0.3851 -0.0031
   38MOL   C52129455   0.539   4.488   0.105 -0.1599  0.0420  0.2884
   38MOL   C52229456   0.506   4.555   8.021  0.5789  0.0878 -0.4923
   38MOL   C52329457   0.455   4.487   7.907 -0.0281 -0.3773  0.1715
   38MOL   C52429458   0.427   4.347   7.914  0.1823 -0.2243 -0.8844
   38MOL   C52529459   0.357   4.277   7.806  0.4641 -0.3935  0.4467
   38MOL   O52629460   0.314   4.167   7.821  0.8650 -0.5648 -0.4009
   38MOL   O52729461   0.349   4.347   7.685 -0.2569  0.0412 -0.1192
   38MOL   C52829462   0.456   4.278   8.031  0.4512  0.1837  0.5082
   38MOL   C52929463   0.513   4.349   0.107  0.6125 -0.2860 -0.0675
   38MOL   H53029464   0.421   4.379   0.547  2.4577  1.0693 -1.2744
   38MOL   H53129465   0.354   4.449   0.407 -0.3633 -0.8211 -0.2889
   38MOL   H53229466   0.169   4.429   0.543  0.0262 -0.0149 -0.5826
   38MOL   H53329467   0.253   4.485   0.688  1.0287 -1.1150 -0.5784
   38MOL   H53429468   0.172   4.648   0.442 -1.3294 -0.4082  0.6900
   38MOL   H53529469   0.023   4.761   0.591  0.9828 -0.0767 -3.8719
   38MOL   H53629470   8.015   4.590   0.572  0.5971 -0.8677  1.5392
   38MOL   H53729471   0.258   4.839   0.582 -1.9988 -0.6120  0.1254
   38MOL   H53829472   0.314   4.715   0.691 -2.4698  1.1713 -0.1401
   38MOL   H53929473   0.486   4.798   0.513 -0.5011 -0.0305 -1.8087
   38MOL   H54029474   0.387   4.719   0.395 -1.1681  2.7725 -0.3627
   38MOL   H54129475   0.513   4.588   0.638 -2.1324  0.3799  0.8766
   38MOL   H54229476   0.680   4.642   0.472  0.1227  0.7262 -0.9531
   38MOL   H54329477   0.668   4.481   0.524 -0.7950  0.3644  1.2893
   38MOL   H54429478   0.519   4.662   8.011  0.3059  0.1730  0.0466
   38MOL   H54529479   0.428   4.540   7.817  2.6289  0.8577  0.0621
   38MOL   H54629480   0.439   4.172   0.008  0.6343 -0.0057 -0.8076
   38MOL   H54729481   0.538   4.295   0.197 -0.3279 -2.6166 -1.1682
   38MOL   C54829482   0.574   4.569   7.341  0.4387 -0.1674 -0.6787
   38MOL   C54929483   0.479   4.454   7.361  0.8447 -0.8827 -0.4736
   38MOL   C55029484   0.535   4.363   7.472  0.8770  0.7182  0.1370
   38MOL   C55129485   0.454   4.237   7.503 -0.4078  0.2670  0.3680
   38MOL   O55229486   0.328   4.268   7.564  0.1948  0.1969 -0.2289
   38MOL   C55329487   0.668   4.309   7.427  0.1556  0.0507  0.0293
   38MOL   C55429488   0.768   4.423   7.409 -0.3909 -0.3345  0.2488
   38MOL   C55529489   0.721   4.521   7.298 -0.3006 -0.6764  0.2758
   38MOL   C55629490   0.828   4.634   7.276  0.1579  1.2719  0.3754
   38MOL   O55729491   0.783   4.720   7.170 -1.0307 -0.2034 -0.2768
   38MOL   C55829492   0.877   4.785   7.092 -0.1303  0.7924  0.1980
   38MOL   O55929493   1.002   4.785   7.111  0.5444  0.2887  0.9742
   38MOL   C56029494   0.807   4.861   6.984  0.5044  0.3206 -0.4595
   38MOL   C56129495   0.667   4.843   6.953  0.1357 -0.1339  0.2508
   38MOL   C56229496   0.611   4.926   6.852 -0.0187  0.2360  0.5663
   38MOL   C56329497   0.682   5.027   6.784  0.0735 -0.5337  0.4278
   38MOL   C56429498   0.630   5.105   6.666  0.3365  0.5635 -0.6952
   38MOL   O56529499   0.704   5.161   6.592 -0.0091 -0.4459 -0.1919
   38MOL   O56629500   0.503   5.106   6.650  0.2886 -0.4118 -0.0440
   38MOL   C56729501   0.816   5.044   6.830 -0.5239  0.1243  0.6154
   38MOL   C56829502   0.876   4.960   6.929  0.7414 -0.8123 -0.1462
   38MOL   H56929503   0.531   4.632   7.264 -0.5527  0.6949  0.5507
   38MOL   H57029504   0.589   4.646   7.418  0.1802 -1.1590  0.3786
   38MOL   H57129505   0.381   4.493   7.391  1.1110 -0.4015 -0.2159
   38MOL   H57229506   0.487   4.399   7.268  1.1795 -2.7955  0.6737
   38MOL   H57329507   0.549   4.424   7.561 -0.5010 -1.9318  2.2051
   38MOL   H57429508   0.434   4.184   7.410 -1.7546  0.6350  0.4337
   38MOL   H57529509   0.516   4.168   7.560 -1.2938 -2.0655 -1.3960
   38MOL   H57629510   0.704   4.234   7.497  0.5518  0.3791  0.1769
   38MOL   H57729511   0.655   4.262   7.329 -0.4831  1.6518 -0.6692
   38MOL   H57829512   0.862   4.376   7.382 -1.3276 -1.6018 -0.8891
   38MOL   H57929513   0.780   4.480   7.501 -0.7140  0.3580 -0.1386
   38MOL   H58029514   0.703   4.461   7.209  0.4071  0.6454 -0.7738
   38MOL   H58129515   0.843   4.674   7.376 -1.5839  1.2262  0.6777
   38MOL   H58229516   0.919   4.580   7.248 -0.6488  0.9408 -1.6506
   38MOL   H58329517   0.604   4.790   7.022 -0.1118  1.1498  1.0383
   38MOL   H58429518   0.507   4.913   6.824 -0.1513  2.0048  0.1969
   38MOL   H58529519   0.887   5.111   6.783  1.1752 -1.9230  0.1753
   38MOL   H58629520   0.982   4.979   6.940  0.4718 -0.6848  2.4201
   38MOL   C58729521   0.459   5.537   6.293  0.2200  0.2146  0.1409
   38MOL   C58829522   0.498   5.454   6.414 -0.6289  0.1383 -0.1397
   38MOL   C58929523   0.371   5.406   6.483 -0.5632 -0.0771  0.0063
   38MOL   C59029524   0.400   5.319   6.608  0.9559  0.2235 -0.4895
   38MOL   O59129525   0.452   5.202   6.548  0.1997  0.4653 -0.1072
   38MOL   C59229526   0.273   5.524   6.524  0.3033  0.0064  0.2184
   38MOL   C59329527   0.232   5.593   6.394  0.0139  0.0383 -0.1987
   38MOL   C59429528   0.362   5.651   6.326 -0.1763  0.2621  0.3752
   38MOL   C59529529   0.327   5.722   6.195  0.0315  0.0916  0.3663
   38MOL   O59629530   0.438   5.775   6.131 -0.5478 -0.5620 -0.1671
   38MOL   C59729531   0.432   5.852   6.017 -0.7005  0.2744 -1.0918
   38MOL   O59829532   0.328   5.880   5.968  0.0508  0.2038 -0.2430
   38MOL   C59929533   0.561   5.902   5.969 -0.4744  0.1882  0.3201
   38MOL   C60029534   0.667   5.926   6.055 -0.0162 -0.4124 -0.4525
   38MOL   C60129535   0.785   5.980   6.011 -0.2080 -0.4249 -0.3485
   38MOL   C60229536   0.805   6.003   5.873  0.2574  0.8124  0.1111
   38MOL   C60329537   0.933   6.046   5.816  0.4938  0.7082  0.1621
   38MOL   O60429538   0.948   6.065   5.697  0.0523  0.2864  0.3587
   38MOL   O60529539   1.031   6.072   5.913 -0.2369  0.4025 -0.0175
   38MOL   C60629540   0.708   5.964   5.779  0.5308  0.0431 -0.3811
   38MOL   C60729541   0.581   5.923   5.827  0.3747  0.0872 -0.1854
   38MOL   H60829542   0.551   5.565   6.242  0.3485 -0.1124  0.1892
   38MOL   H60929543   0.406   5.473   6.223 -0.4191  0.7396  0.1446
   38MOL   H61029544   0.556   5.369   6.377 -1.9306 -1.4603  1.3827
   38MOL   H61129545   0.563   5.514   6.478  1.0329 -0.6168 -1.0625
   38MOL   H61229546   0.318   5.347   6.408  0.6681 -1.4189  0.1562
   38MOL   H61329547   0.464   5.372   6.678  0.7181  0.6659 -0.6103
   38MOL   H61429548   0.303   5.302   6.655  1.2892 -0.9312 -0.2083
   38MOL   H61529549   0.180   5.481   6.562  1.5969 -2.0924  1.1210
   38MOL   H61629550   0.313   5.601   6.589 -1.2004  0.4033  0.6838
   38MOL   H61729551   0.164   5.678   6.402 -1.3402 -1.0310 -0.0929
   38MOL   H61829552   0.188   5.522   6.324  0.5390 -1.2846  0.7794
   38MOL   H61929553   0.406   5.729   6.389 -0.4023  2.3750 -2.0076
   38MOL   H62029554   0.284   5.657   6.119 -0.5071  0.4748  0.3364
   38MOL   H62129555   0.248   5.796   6.211  0.0748 -0.0074  1.0642
   38MOL   H62229556   0.655   5.913   6.162 -0.9122  0.5051 -0.4360
   38MOL   H62329557   0.867   5.995   6.080  0.6054 -2.5913 -0.7892
   38MOL   H62429558   0.720   5.959   5.672  1.2557  0.8642 -0.3404
   38MOL   H62529559   0.516   5.894   5.745  0.2729  0.1520 -0.1274
   38MOL   C62629560   1.363   5.739   5.580 -0.3221  0.3567  0.1600
   38MOL   C62729561   1.330   5.785   5.716  0.0552  0.4937 -0.6718
   38MOL   C62829562   1.248   5.918   5.720 -0.6006 -0.7718 -0.4723
   38MOL   C62929563   1.239   5.965   5.861 -0.0209 -1.2206  1.1588
   38MOL   O63029564   1.171   6.089   5.861  0.2588  0.6204  0.4386
   38MOL   C63129565   1.295   6.034   5.618 -0.1552 -0.3347 -0.2338
   38MOL   C63229566   1.329   5.965   5.484  0.3515 -0.8215  0.2907
   38MOL   C63329567   1.428   5.850   5.488 -0.3302 -0.0698 -0.1172
   38MOL   C63429568   1.476   5.799   5.353 -0.4706 -0.4706  0.8220
   38MOL   O63529569   1.418   5.680   5.305  0.9342 -0.6380  0.0332
   38MOL   C63629570   1.484   5.584   5.247 -0.4936 -0.0034  0.5723
   38MOL   O63729571   1.607   5.567   5.247 -0.1531  0.3382  0.4151
   38MOL   C63829572   1.393   5.479   5.195 -0.2256  0.4460  0.2768
   38MOL   C63929573   1.451   5.358   5.148 -0.9061 -0.7990  0.3651
   38MOL   C64029574   1.371   5.271   5.074 -0.5775 -0.1798  0.6442
   38MOL   C64129575   1.231   5.288   5.063  0.5950  0.7536 -0.3283
   38MOL   C64229576   1.145   5.181   4.996 -0.0833 -0.5150  0.3233
   38MOL   O64329577   1.028   5.175   5.023  0.2695  0.2911  0.6379
   38MOL   O64429578   1.209   5.116   4.892  0.0119  0.2094  0.6051
   38MOL   C64529579   1.173   5.405   5.111  0.4171 -0.0872 -0.5030
   38MOL   C64629580   1.255   5.496   5.180 -0.0044  0.0646  0.2718
   38MOL   H64729581   1.425   5.650   5.589  0.4701  1.1187  2.5408
   38MOL   H64829582   1.276   5.714   5.520 -0.3504 -0.5713  0.5733
   38MOL   H64929583   1.284   5.706   5.776  0.4244  0.4450 -0.4506
   38MOL   H65029584   1.429   5.808   5.755 -0.3437  0.4796  0.3783
   38MOL   H65129585   1.145   5.890   5.696 -1.0332  0.6775 -0.4122
   38MOL   H65229586   1.191   5.890   5.924  1.1521 -1.1495  2.1513
   38MOL   H65329587   1.342   5.978   5.896  0.6131 -0.3824 -0.9602
   38MOL   H65429588   1.231   6.122   5.608 -1.9836 -1.5588  0.3053
   38MOL   H65529589   1.393   6.076   5.641 -0.5330  1.1697 -1.2904
   38MOL   H65629590   1.346   6.039   5.406 -1.8989 -2.1882 -1.5747
   38MOL   H65729591   1.230   5.933   5.451 -0.2883  0.4876  0.8884
   38MOL   H65829592   1.520   5.893   5.527 -1.0689  0.8016  0.6938
   38MOL   H65929593   1.474   5.875   5.276 -2.2603 -1.0273  0.2816
   38MOL   H66029594   1.582   5.779   5.371 -0.0650  1.6486  0.8727
   38MOL   H66129595   1.557   5.341   5.160 -0.7576 -0.0113  0.1779
   38MOL   H66229596   1.427   5.189   5.034  0.1987  0.8441 -0.4018
   38MOL   H66329597   1.068   5.432   5.104  0.1345 -0.3119  2.2314
   38MOL   H66429598   1.209   5.589   5.211 -0.3907  0.2243 -0.7281
   38MOL   C66529599   0.982   4.869   4.429  0.0167  0.2576  0.4985
   38MOL   C66629600   1.066   4.934   4.536  0.2437  0.1133  0.1672
   38MOL   C66729601   0.989   5.050   4.598  0.7183 -0.4075 -0.2027
   38MOL   C66829602   1.081   5.126   4.692 -0.3940 -0.2830  0.4447
   38MOL   O66929603   1.121   5.041   4.794 -0.2610 -0.0251 -0.3224
   38MOL   C67029604   0.924   5.147   4.488 -0.1755 -0.3002 -0.6439
   38MOL   C67129605   0.835   5.075   4.377 -0.2898 -0.2440 -0.0238
   38MOL   C67229606   0.924   4.962   4.316 -0.1545  0.1659  0.6646
   38MOL   C67329607   0.850   4.881   4.213  0.0978 -0.4431  0.3549
   38MOL   O67429608   0.944   4.813   4.131  0.6449  0.4311 -0.0009
   38MOL   C67529609   0.965   4.844   4.006  0.5853  0.1131 -0.0977
   38MOL   O67629610   0.898   4.934   3.951 -0.3721 -0.0682  0.1637
   38MOL   C67729611   1.071   4.770   3.941  0.0550  0.2563 -0.0551
   38MOL   C67829612   1.114   4.801   3.809  0.4441 -0.0647 -0.1394
   38MOL   C67929613   1.212   4.724   3.746 -0.5477  0.1595 -0.0256
   38MOL   C68029614   1.261   4.611   3.809 -0.4404 -0.2464  1.0658
   38MOL   C68129615   1.370   4.523   3.739  0.6350 -0.4715  0.1522
   38MOL   O68229616   1.428   4.550   3.629 -0.1497 -0.1940 -0.0083
   38MOL   O68329617   1.405   4.418   3.806 -0.0050 -0.4433  0.2573
   38MOL   C68429618   1.232   4.583   3.946 -0.3289  0.1912 -0.4395
   38MOL   C68529619   1.140   4.661   4.012  0.3325 -0.8575 -0.2319
   38MOL   H68629620   1.049   4.803   4.374  0.1469  0.1066  0.8392
   38MOL   H68729621   0.910   4.799   4.472  2.3920 -2.2482  0.4863
   38MOL   H68829622   1.101   4.862   4.609 -1.0616  0.9920  1.6838
   38MOL   H68929623   1.153   4.987   4.498 -1.6585  2.2730 -1.3611
   38MOL   H69029624   0.916   5.006   4.667 -0.0082  1.9577  0.5719
   38MOL   H69129625   1.163   5.174   4.638 -0.2370 -0.9610  0.0712
   38MOL   H69229626   1.039   5.212   4.744 -0.0218 -0.8275  1.6590
   38MOL   H69329627   0.874   5.234   4.531  0.5941 -0.0699 -0.1954
   38MOL   H69429628   1.000   5.195   4.427  0.9347  0.1221  1.0331
   38MOL   H69529629   0.795   5.141   4.301 -0.6022 -0.4120 -0.0034
   38MOL   H69629630   0.742   5.041   4.421 -0.1042 -1.4417 -0.5457
   38MOL   H69729631   1.009   5.009   4.267 -1.5620  1.0697 -0.9697
   38MOL   H69829632   0.773   4.812   4.247  0.3232 -0.3276  1.1175
   38MOL   H69929633   0.797   4.957   4.156  1.0076  0.3494  0.5446
   38MOL   H70029634   1.058   4.877   3.756  0.5921 -0.3237 -0.6625
   38MOL   H70129635   1.252   4.748   3.648 -1.5813  0.5655 -0.3529
   38MOL   H70229636   1.269   4.499   4.003 -0.2771  0.0046 -0.7508
   38MOL   H70329637   1.125   4.643   4.117  2.1936 -0.0102  0.2003
   38MOL   C70429638   1.216   4.072   4.018  0.2219 -0.2570 -0.3972
   38MOL   C70529639   1.257   4.167   3.906  0.3443 -0.5517  0.8197
   38MOL   C70629640   1.376   4.117   3.827 -0.6298 -0.0445  0.1187
   38MOL   C70729641   1.422   4.206   3.707 -0.4668  0.2193 -0.4783
   38MOL   O70829642   1.499   4.322   3.736  0.4476  0.4166  0.1807
   38MOL   C70929643   1.494   4.093   3.916 -0.2871  0.2214  0.1640
   38MOL   C71029644   1.458   4.002   4.036 -0.2484 -1.0364 -0.0634
   38MOL   C71129645   1.333   4.056   4.114  0.2211  0.5791  0.0540
   38MOL   C71229646   1.302   3.976   4.244  0.0828  0.1570 -0.2234
   38MOL   O71329647   1.411   4.018   4.327 -0.2074 -0.3161  0.2828
   38MOL   C71429648   1.400   4.034   4.460  0.5090 -0.2205 -0.5880
   38MOL   O71529649   1.295   4.020   4.516 -0.5243 -0.5263  0.4652
   38MOL   C71629650   1.531   4.067   4.533  0.5879 -0.2471 -0.5168
   38MOL   C71729651   1.659   4.060   4.467 -0.0870 -0.3575 -0.0681
   38MOL   C71829652   1.778   4.076   4.547  0.3212 -0.0777 -0.0621
   38MOL   C71929653   1.767   4.112   4.685  0.3510  1.0042  0.0527
   38MOL   C72029654   1.888   4.149   4.765 -0.5484 -0.5321 -0.1524
   38MOL   O72129655   1.889   4.177   4.887 -0.1808 -0.3338  0.0616
   38MOL   O72229656   1.995   4.155   4.688  0.1772  0.0591  0.0386
   38MOL   C72329657   1.641   4.120   4.742 -0.5658  0.8121 -0.5612
   38MOL   C72429658   1.526   4.093   4.673  0.7044 -0.5737 -0.0948
   38MOL   H72529659   1.137   4.113   4.081  1.9705  0.9947  1.0542
   38MOL   H72629660   1.175   3.981   3.975 -1.7137  0.9816 -1.2937
   38MOL   H72729661   1.179   4.187   3.832  0.7850 -0.9285  0.2448
   38MOL   H72829662   1.285   4.260   3.956  0.9478 -0.1765 -0.1898
   38MOL   H72929663   1.336   4.027   3.781 -1.3927  0.7262 -0.7459
   38MOL   H73029664   1.490   4.156   3.639  0.7237 -0.6295  1.3027
   38MOL   H73129665   1.342   4.242   3.642 -3.1800 -1.0029  2.0542
   38MOL   H73229666   1.568   4.054   3.846 -1.5246 -1.1842 -0.3935
   38MOL   H73329667   1.531   4.190   3.949 -0.4229  0.2173  0.3303
   38MOL   H73429668   1.544   4.015   4.102 -1.9948  1.5024  1.7858
   38MOL   H73529669   1.437   3.901   4.000 -0.0072 -1.5214  1.1184
   38MOL   H73629670   1.342   4.156   4.158 -0.8343  1.5349 -1.8281
   38MOL   H73729671   1.204   4.007   4.280 -0.2255 -1.9597  0.8697
   38MOL   H73829672   1.320   3.872   4.219  5.7434  0.9611 -0.0666
   38MOL   H73929673   1.668   4.036   4.362 -0.8371  0.7711 -0.3994
   38MOL   H74029674   1.871   4.089   4.495  0.5990  2.6978  1.0720
   38MOL   H74129675   1.629   4.157   4.843  0.2544  1.9246 -0.8610
   38MOL   H74229676   1.433   4.095   4.728  0.8964  0.6263  0.1912
   38MOL   C74329677   2.535   4.073   5.007  0.2665  0.1684  0.6398
   38MOL   C74429678   2.433   4.039   4.891 -0.5648  0.4073  0.3163
   38MOL   C74529679   2.301   4.119   4.902 -0.7669 -0.3237 -0.0332
   38MOL   C74629680   2.204   4.081   4.785 -0.3872  0.6235 -0.2610
   38MOL   O74729681   2.117   4.196   4.764 -0.3001  0.2544  0.4159
   38MOL   C74829682   2.239   4.106   5.031 -0.0270  0.4440 -0.3997
   38MOL   C74929683   2.338   4.127   5.152  0.5551 -0.6412 -0.7517
   38MOL   C75029684   2.464   4.043   5.144  0.2034  0.2851  0.5081
   38MOL   C75129685   2.563   4.080   5.255  0.5824 -0.0347  0.5009
   38MOL   O75229686   2.658   3.977   5.263 -0.2048  0.2947 -0.1035
   38MOL   C75329687   2.748   3.968   5.361 -0.3925 -0.4103  0.0759
   38MOL   O75429688   2.760   4.061   5.442 -0.2232 -0.0078  0.3614
   38MOL   C75529689   2.823   3.833   5.366  0.8833  0.4907 -0.3429
   38MOL   C75629690   2.791   3.728   5.276  0.2324 -0.3876 -0.3848
   38MOL   C75729691   2.859   3.607   5.281  0.1278 -0.3229  0.1896
   38MOL   C75829692   2.958   3.586   5.376  0.2568  0.4440 -0.4188
   38MOL   C75929693   3.030   3.456   5.378  0.2187  0.9163  0.2748
   38MOL   O76029694   3.138   3.448   5.432  0.3073 -0.0904  0.6031
   38MOL   O76129695   2.976   3.355   5.299 -0.1350  0.0883 -0.6953
   38MOL   C76229696   3.003   3.695   5.454 -0.3375 -0.3678  0.2668
   38MOL   C76329697   2.927   3.817   5.454 -0.3036 -0.1347  0.4081
   38MOL   H76429698   2.630   4.019   5.004 -0.6455 -1.3984 -0.9441
   38MOL   H76529699   2.566   4.177   5.002  0.9298 -0.0520  0.1144
   38MOL   H76629700   2.478   4.065   4.795  0.3520  2.5226  1.2769
   38MOL   H76729701   2.415   3.932   4.884  2.3929 -0.1073 -0.2231
   38MOL   H76829702   2.328   4.223   4.885  2.5750 -1.1564 -0.1329
   38MOL   H76929703   2.259   4.047   4.696  2.6192  1.2061  1.3035
   38MOL   H77029704   2.147   3.993   4.811  0.6347 -0.6865 -2.2693
   38MOL   H77129705   2.146   4.162   5.046  1.0228  1.7652  1.2568
   38MOL   H77229706   2.213   4.001   5.044 -1.9312  0.9914  0.3537
   38MOL   H77329707   2.294   4.102   5.248  1.7568 -0.4387 -0.1490
   38MOL   H77429708   2.360   4.233   5.161 -0.9223 -0.5098  1.5520
   38MOL   H77529709   2.434   3.938   5.155  1.0819 -0.2703 -1.9465
   38MOL   H77629710   2.607   4.179   5.236  0.8902  0.0634  1.6868
   38MOL   H77729711   2.517   4.094   5.352  1.5739  1.1227  0.8272
   38MOL   H77829712   2.715   3.737   5.199  0.5251 -1.3884 -0.8048
   38MOL   H77929713   2.833   3.531   5.209 -1.1250 -0.6068  0.9304
   38MOL   H78029714   3.082   3.692   5.527 -0.6486 -1.0679  0.5759
   38MOL   H78129715   2.954   3.891   5.528 -2.3228  0.8433  0.1855
   38MOL   H78229716   3.028   3.277   5.289 -0.5010 -0.2626  0.1495
   39MOL     C129717   6.335   6.248   2.365 -0.1846  0.3329 -0.3202
   39MOL     C229718   6.365   6.332   2.491 -0.1081  0.3344  0.7867
   39MOL     C329719   6.492   6.302   2.557 -0.7067  0.5776  0.3649
   39MOL     C429720   6.521   6.380   2.684  0.0852 -0.2371  0.5869
   39MOL     O529721   6.546   6.516   2.648 -0.3283  1.0166  0.1159
   39MOL     C629722   6.515   6.146   2.579  0.7006 -0.2169 -0.2727
   39MOL     C729723   6.499   6.073   2.447  0.0703 -0.7930 -0.1340
   39MOL     C829724   6.360   6.094   2.382  1.4568  0.1600  0.8245
   39MOL     C929725   6.345   6.016   2.250  0.1515  0.3776  0.0289
   39MOL    O1029726   6.211   5.991   2.222  0.2819 -0.1144 -0.1213
   39MOL    C1129727   6.161   5.871   2.198 -0.0403 -0.2274  0.5626
   39MOL    O1229728   6.223   5.769   2.216  0.0246  0.5681 -0.1032
   39MOL    C1329729   6.011   5.876   2.154 -0.0927  0.0322 -0.9108
   39MOL    C1429730   5.952   5.993   2.112  0.8025  0.4119  0.1969
   39MOL    C1529731   5.816   5.995   2.065 -0.3133  0.6383  0.2519
   39MOL    C1629732   5.740   5.880   2.065  0.9606 -0.7665  0.2021
   39MOL    C1729733   5.596   5.888   2.020  0.3010 -0.5334  0.3031
   39MOL    O1829734   5.549   5.994   1.973  0.4277 -0.3662  0.3230
   39MOL    O1929735   5.530   5.773   2.032  0.0213  0.1487 -0.4506
   39MOL    C2029736   5.800   5.761   2.118 -0.5913  0.1306  0.6315
   39MOL    C2129737   5.937   5.758   2.164 -0.1264  0.0008  0.2527
   39MOL    H2229738   6.237   6.269   2.323 -1.0016  1.1177  1.9409
   39MOL    H2329739   6.401   6.294   2.291 -0.8713  0.7058 -0.7009
   39MOL    H2429740   6.356   6.439   2.474  0.1046  0.3714  0.9040
   39MOL    H2529741   6.283   6.314   2.560 -0.3353 -1.6582  0.0514
   39MOL    H2629742   6.573   6.335   2.492 -1.4357 -2.9560 -2.5649
   39MOL    H2729743   6.435   6.372   2.750 -1.1739  1.0357 -0.8453
   39MOL    H2829744   6.612   6.345   2.734  0.2213  1.7317  1.7480
   39MOL    H2929745   6.617   6.122   2.606 -0.3783 -1.9351  2.4892
   39MOL    H3029746   6.452   6.098   2.654  1.3248 -1.5385 -0.5860
   39MOL    H3129747   6.501   5.964   2.440 -1.5720 -0.8966  0.5784
   39MOL    H3229748   6.583   6.093   2.380 -1.2078  0.9437 -1.2624
   39MOL    H3329749   6.280   6.068   2.451  0.2796 -1.0266 -0.9815
   39MOL    H3429750   6.394   6.072   2.171  0.2333  1.7887  1.0569
   39MOL    H3529751   6.399   5.921   2.259  0.1406  0.3101 -0.6281
   39MOL    H3629752   6.012   6.082   2.102 -0.6863  1.3927 -0.0039
   39MOL    H3729753   5.765   6.081   2.025  1.1743  2.3756  1.9806
   39MOL    H3829754   5.749   5.667   2.109 -1.4230  0.5508  0.9599
   39MOL    H3929755   5.984   5.666   2.197 -1.3811 -0.3010  1.1934
   39MOL    H4029756   6.463   6.560   2.638  0.1945  2.1681  0.6611
   39MOL    C4129757   5.428   5.347   1.973 -0.2729  0.1482 -0.2490
   39MOL    C4229758   5.462   5.491   1.944  0.1596  0.7919 -0.7215
   39MOL    C4329759   5.358   5.571   1.864 -0.2174  0.0967 -0.7912
   39MOL    C4429760   5.417   5.711   1.835  0.3876  0.2062 -0.6859
   39MOL    O4529761   5.398   5.787   1.949  0.1507 -0.9361  0.2543
   39MOL    C4629762   5.330   5.496   1.735  0.1867  0.6828  0.1001
   39MOL    C4729763   5.300   5.348   1.756  0.3448  0.3074 -0.0561
   39MOL    C4829764   5.410   5.273   1.836  0.4292 -0.5287 -0.4074
   39MOL    C4929765   5.348   5.133   1.860  0.3863  0.2912 -0.4223
   39MOL    O5029766   5.455   5.047   1.909 -0.0805  0.6947  0.4662
   39MOL    C5129767   5.448   5.003   2.041  0.7402  0.3533 -0.5643
   39MOL    O5229768   5.358   5.036   2.123  0.0100  0.3988  0.2405
   39MOL    C5329769   5.565   4.912   2.070 -0.4347 -0.7362  0.0433
   39MOL    C5429770   5.574   4.862   2.197  0.0900 -0.1293 -0.3920
   39MOL    C5529771   5.693   4.795   2.237  0.0550  0.1286  0.2552
   39MOL    C5629772   5.803   4.770   2.152  0.0399  0.2212  0.0054
   39MOL    C5729773   5.917   4.678   2.195 -0.0270 -0.0056 -0.2846
   39MOL    O5829774   5.911   4.610   2.296 -0.4687  0.6685 -0.1309
   39MOL    O5929775   6.014   4.659   2.107  0.1711 -0.1427  0.0557
   39MOL    C6029776   5.789   4.815   2.021 -0.2172 -0.3150 -0.1377
   39MOL    C6129777   5.683   4.896   1.985 -0.5155 -0.0373 -0.3069
   39MOL    H6229778   5.509   5.300   2.029 -2.0700 -2.1508  0.5036
   39MOL    H6329779   5.335   5.342   2.030 -0.8421 -0.8436 -1.2543
   39MOL    H6429780   5.477   5.524   2.047  0.4942 -4.2945  0.9766
   39MOL    H6529781   5.564   5.504   1.909  0.2509  1.0391 -0.3667
   39MOL    H6629782   5.274   5.577   1.933  0.0852 -0.7837 -0.3357
   39MOL    H6729783   5.522   5.698   1.807  0.8019 -0.6275  1.1902
   39MOL    H6829784   5.362   5.750   1.749 -1.2167 -0.8627 -0.1695
   39MOL    H6929785   5.247   5.550   1.692 -0.8619  0.4778  1.8290
   39MOL    H7029786   5.418   5.504   1.670 -0.6580 -0.1481 -1.1649
   39MOL    H7129787   5.282   5.299   1.660  2.1630  1.3963 -0.9890
   39MOL    H7229788   5.208   5.351   1.814 -1.5664 -0.8871 -2.8897
   39MOL    H7329789   5.508   5.279   1.788 -0.6597  2.1932 -2.3851
   39MOL    H7429790   5.272   5.139   1.938  0.4741  0.0826 -0.3195
   39MOL    H7529791   5.313   5.093   1.764  0.3884  1.7764 -1.0454
   39MOL    H7629792   5.489   4.867   2.264 -0.3812 -0.6263 -0.9478
   39MOL    H7729793   5.697   4.767   2.342  1.7202 -0.5935  0.0210
   39MOL    H7829794   5.868   4.798   1.950 -0.0419  1.6063 -0.4415
   39MOL    H7929795   5.687   4.941   1.886 -1.6339 -0.6840 -0.6492
   39MOL    C8029796   6.212   4.090   2.101 -0.9746  0.4553 -0.7528
   39MOL    C8129797   6.129   4.207   2.041  0.2177  0.2020  0.5513
   39MOL    C8229798   6.116   4.324   2.140  0.0555 -0.6128 -0.2128
   39MOL    C8329799   6.059   4.444   2.067 -0.6515 -0.6201 -0.2223
   39MOL    O8429800   6.113   4.551   2.143  0.2515 -0.8994 -0.5817
   39MOL    C8529801   6.035   4.271   2.254 -0.3936  0.2144 -0.6157
   39MOL    C8629802   6.112   4.159   2.324  0.1030 -0.0516 -0.1029
   39MOL    C8729803   6.150   4.044   2.233  0.4240 -0.0635  0.8291
   39MOL    C8829804   6.243   3.932   2.294  0.0495 -0.0009 -0.3925
   39MOL    O8929805   6.176   3.868   2.403 -0.6772 -0.0462  0.6216
   39MOL    C9029806   6.193   3.909   2.530 -0.0871  0.1282 -0.0985
   39MOL    O9129807   6.274   3.997   2.558 -0.2559 -0.2045 -0.3512
   39MOL    C9229808   6.133   3.820   2.636  0.6754 -1.2731  0.6514
   39MOL    C9329809   6.056   3.703   2.606  0.2869  0.0972 -0.5220
   39MOL    C9429810   6.007   3.621   2.708 -0.3393 -0.0301 -0.3409
   39MOL    C9529811   6.037   3.660   2.847  0.8502 -0.3181 -0.8881
   39MOL    C9629812   5.981   3.558   2.948  0.6544 -0.2611  0.0388
   39MOL    O9729813   5.918   3.455   2.921  0.0405 -0.5613  0.2726
   39MOL    O9829814   6.012   3.591   3.074  0.3507  0.0044  0.2603
   39MOL    C9929815   6.103   3.785   2.878 -0.9034  0.1049 -0.1898
   39MOL   C10029816   6.148   3.863   2.769  0.1136 -0.1780 -0.0165
   39MOL   H10129817   6.229   4.020   2.020 -0.0710  1.3674 -1.3646
   39MOL   H10229818   6.312   4.120   2.133  0.6493 -2.5205 -2.8302
   39MOL   H10329819   6.188   4.244   1.957  1.6080  2.2536  2.3779
   39MOL   H10429820   6.030   4.182   2.003 -0.2896  1.1293  1.2292
   39MOL   H10529821   6.211   4.357   2.181 -0.0360 -1.3258  0.5996
   39MOL   H10629822   6.112   4.455   1.972  2.4345  4.0381  1.8254
   39MOL   H10729823   5.952   4.441   2.044 -0.8030 -0.4446  0.4633
   39MOL   H10829824   6.020   4.358   2.318  0.3165 -0.0253 -0.1049
   39MOL   H10929825   5.937   4.241   2.217  0.0157 -0.0484 -1.5028
   39MOL   H11029826   6.054   4.111   2.404 -0.4835  0.0424 -0.4681
   39MOL   H11129827   6.207   4.193   2.365  0.2016  2.0570 -1.9683
   39MOL   H11229828   6.061   3.991   2.200 -1.2717  2.7932  0.6479
   39MOL   H11329829   6.274   3.849   2.231  2.1090 -0.2119  0.8685
   39MOL   H11429830   6.335   3.979   2.328 -0.0836 -0.8741  1.2499
   39MOL   H11529831   6.040   3.677   2.503 -0.0038  2.2849 -1.0506
   39MOL   H11629832   5.946   3.534   2.687 -1.5721  0.4519  1.1897
   39MOL   H11729833   6.130   3.820   2.976 -3.2573  1.4848 -0.0102
   39MOL   H11829834   6.203   3.955   2.778  0.5473 -0.4033 -0.3898
   39MOL   C11929835   6.350   3.394   3.463  0.2513 -0.5191  0.2591
   39MOL   C12029836   6.274   3.336   3.342 -0.1137 -0.0635 -0.4376
   39MOL   C12129837   6.145   3.418   3.334 -0.1782  0.0612 -0.4194
   39MOL   C12229838   6.067   3.394   3.203 -0.0011  0.0722  0.2119
   39MOL   O12329839   5.964   3.484   3.174  0.0383  0.1726 -0.2947
   39MOL   C12429840   6.066   3.395   3.456 -0.2599 -0.6345 -0.4076
   39MOL   C12529841   6.140   3.450   3.579 -0.1041  0.2048  0.0709
   39MOL   C12629842   6.280   3.378   3.594 -0.0870 -0.1987 -0.2694
   39MOL   C12729843   6.363   3.436   3.714  0.8726 -0.8040 -0.2100
   39MOL   O12829844   6.377   3.581   3.698 -0.9536  0.3796 -0.1537
   39MOL   C12929845   6.286   3.663   3.766  0.3891  0.1146 -0.4718
   39MOL   O13029846   6.196   3.629   3.846 -0.4958 -0.0316  0.3889
   39MOL   C13129847   6.299   3.805   3.725  0.1919  0.4921  0.7679
   39MOL   C13229848   6.182   3.883   3.727 -0.4814 -0.2672  1.0603
   39MOL   C13329849   6.185   4.015   3.668  0.1157 -0.2405 -0.0540
   39MOL   C13429850   6.303   4.074   3.622  0.7817  0.5710 -0.3013
   39MOL   C13529851   6.307   4.207   3.564 -0.0333  0.6475  1.0226
   39MOL   O13629852   6.397   4.250   3.497 -0.6297 -0.8973  0.3458
   39MOL   O13729853   6.203   4.284   3.603 -0.2816 -0.1509 -0.2719
   39MOL   C13829854   6.416   3.988   3.615 -0.8818 -0.0588  0.1809
   39MOL   C13929855   6.418   3.858   3.672  0.1694  0.5076  0.4416
   39MOL   H14029856   6.440   3.332   3.477  0.6252  0.1652  0.9192
   39MOL   H14129857   6.384   3.497   3.454  1.0543 -0.9124 -1.4296
   39MOL   H14229858   6.334   3.339   3.251  0.3736 -2.5476 -0.2289
   39MOL   H14329859   6.265   3.229   3.360 -1.1176  0.0309 -0.3682
   39MOL   H14429860   6.178   3.522   3.329  0.2369 -0.0412  0.2453
   39MOL   H14529861   6.142   3.381   3.125 -1.4745 -4.0185 -0.6303
   39MOL   H14629862   6.035   3.291   3.211  1.3113 -0.2988  0.8438
   39MOL   H14729863   5.970   3.445   3.460  0.0689 -0.0111 -0.2523
   39MOL   H14829864   6.043   3.288   3.460 -0.0090 -0.7712 -2.1011
   39MOL   H14929865   6.081   3.435   3.669  2.1738 -3.0914  1.0806
   39MOL   H15029866   6.152   3.555   3.552 -1.2043  0.3979  0.3111
   39MOL   H15129867   6.262   3.274   3.620 -0.9742  0.1939  0.7344
   39MOL   H15229868   6.304   3.410   3.801  0.1618 -0.8076 -0.6877
   39MOL   H15329869   6.460   3.389   3.731  1.7017  1.3672  1.3000
   39MOL   H15429870   6.085   3.843   3.754 -1.8191  2.0621 -0.1587
   39MOL   H15529871   6.095   4.072   3.656  1.8258  2.5155 -0.3327
   39MOL   H15629872   6.507   4.022   3.567 -0.4967 -1.5772 -0.1856
   39MOL   H15729873   6.505   3.794   3.671  0.2434  0.5817  1.5644
   39MOL   C15829874   6.134   4.830   3.381  0.6883  0.0724  0.8459
   39MOL   C15929875   6.101   4.695   3.442  0.6207 -0.6535 -0.1762
   39MOL   C16029876   6.179   4.584   3.371  0.0112  0.6493  0.5973
   39MOL   C16129877   6.155   4.443   3.424 -0.9358 -0.0356 -0.1151
   39MOL   O16229878   6.204   4.435   3.558 -0.5016  0.9771 -0.2812
   39MOL   C16329879   6.143   4.582   3.218  0.1362 -0.7797 -0.6579
   39MOL   C16429880   6.127   4.719   3.150  0.3595  0.9285 -0.3157
   39MOL   C16529881   6.075   4.834   3.235 -0.1100 -0.4626  0.0349
   39MOL   C16629882   6.123   4.970   3.167  0.4997  0.3661 -0.6626
   39MOL   O16729883   6.268   4.976   3.167  0.4291 -0.0857 -0.4631
   39MOL   C16829884   6.336   5.037   3.269 -0.0620  0.7260  0.1095
   39MOL   O16929885   6.282   5.112   3.354  0.4266  0.0117  0.0997
   39MOL   C17029886   6.486   5.009   3.278  0.6684 -0.3331  0.5736
   39MOL   C17129887   6.575   5.110   3.318 -0.0531  0.0750  0.4163
   39MOL   C17229888   6.709   5.070   3.330 -0.0668  0.1288 -0.1287
   39MOL   C17329889   6.758   4.947   3.312  0.2052  0.0160 -0.3780
   39MOL   C17429890   6.890   4.903   3.366  0.2601 -0.0536 -0.7219
   39MOL   O17529891   6.937   4.798   3.332 -0.6627  0.4264  0.3496
   39MOL   O17629892   6.946   4.984   3.466  0.7331  0.0211  0.4011
   39MOL   C17729893   6.671   4.842   3.264 -0.5845 -0.5956 -0.0859
   39MOL   C17829894   6.532   4.873   3.243  0.1889 -0.0054  0.3966
   39MOL   H17929895   6.080   4.906   3.438 -2.4678 -2.1010  0.8645
   39MOL   H18029896   6.242   4.845   3.373  0.5412  0.8307  0.1956
   39MOL   H18129897   6.130   4.713   3.545  2.0410  0.3408 -0.7243
   39MOL   H18229898   5.994   4.672   3.450  0.2620  0.3847 -1.7338
   39MOL   H18329899   6.283   4.611   3.391  0.0192 -0.1833  1.7032
   39MOL   H18429900   6.051   4.410   3.422 -0.6241 -1.0294 -0.0557
   39MOL   H18529901   6.202   4.371   3.356 -4.2255  0.7915 -3.4815
   39MOL   H18629902   6.213   4.526   3.155 -2.5169 -2.7384 -1.9467
   39MOL   H18729903   6.046   4.533   3.219 -0.4752  0.4073 -0.9800
   39MOL   H18829904   6.066   4.718   3.059 -1.3286 -1.0882  0.7792
   39MOL   H18929905   6.223   4.738   3.102  0.4936 -0.6098 -0.6811
   39MOL   H19029906   5.967   4.832   3.249  0.1220 -4.3624  2.0017
   39MOL   H19129907   6.090   4.975   3.063 -0.4776  1.1432 -0.3226
   39MOL   H19229908   6.088   5.055   3.226 -1.5710 -0.6767 -0.3370
   39MOL   H19329909   6.536   5.210   3.327 -2.5740 -0.7813 -0.5340
   39MOL   H19429910   6.770   5.150   3.368 -3.6670  3.3999 -0.9257
   39MOL   H19529911   6.713   4.743   3.255 -0.0117 -0.4175  0.5551
   39MOL   H19629912   6.464   4.795   3.210  0.1552  0.4187 -0.5527
   39MOL   C19729913   7.526   4.795   3.529 -0.3991 -0.4861  0.4313
   39MOL   C19829914   7.415   4.894   3.485  0.0241 -0.7698  0.5141
   39MOL   C19929915   7.282   4.861   3.547  0.3121 -0.6007 -0.2208
   39MOL   C20029916   7.174   4.958   3.497  0.2862  0.4762  0.2222
   39MOL   O20129917   7.055   4.918   3.548 -0.1496  0.2399 -0.2085
   39MOL   C20229918   7.245   4.717   3.524  0.4178  0.5055 -0.0215
   39MOL   C20329919   7.359   4.620   3.559  0.0659  0.5242  0.4666
   39MOL   C20429920   7.486   4.654   3.484 -0.0608 -0.0266  0.0940
   39MOL   C20529921   7.592   4.548   3.508  0.1337  0.2712  0.0741
   39MOL   O20629922   7.544   4.425   3.462 -0.0737 -0.1806  0.0267
   39MOL   C20729923   7.604   4.305   3.502 -0.1379 -0.3580 -0.0041
   39MOL   O20829924   7.712   4.295   3.566  0.7742 -0.3792 -0.5728
   39MOL   C20929925   7.522   4.194   3.452  0.2650  0.1590  0.1254
   39MOL   C21029926   7.562   4.060   3.477 -0.3735  0.8282  0.6279
   39MOL   C21129927   7.490   3.946   3.425  1.3830  0.4549  0.0936
   39MOL   C21229928   7.373   3.969   3.352  0.4390 -0.8847  0.7844
   39MOL   C21329929   7.306   3.843   3.301 -0.3765 -0.0864 -0.2725
   39MOL   O21429930   7.331   3.731   3.346 -0.2384 -0.2187 -0.0861
   39MOL   O21529931   7.215   3.869   3.203 -0.2098 -0.6855 -0.4630
   39MOL   C21629932   7.334   4.101   3.330 -0.4241 -1.0659 -0.0796
   39MOL   C21729933   7.404   4.212   3.378 -0.2055  1.0992 -0.3174
   39MOL   H21829934   7.623   4.829   3.493 -1.3460 -0.4698 -2.2216
   39MOL   H21929935   7.525   4.793   3.638 -1.1887  3.4742  0.5575
   39MOL   H22029936   7.443   4.995   3.514 -3.5699  0.1972  0.7872
   39MOL   H22129937   7.410   4.879   3.378 -0.2168 -0.2588  0.4505
   39MOL   H22229938   7.287   4.884   3.654  1.7978  1.8161 -0.7736
   39MOL   H22329939   7.206   5.060   3.519 -1.3465  1.3252 -1.2299
   39MOL   H22429940   7.163   4.945   3.390 -0.7400 -0.4891  0.4353
   39MOL   H22529941   7.154   4.694   3.581 -0.0909 -0.4988 -1.2181
   39MOL   H22629942   7.217   4.706   3.420 -0.1097 -0.2952  0.2010
   39MOL   H22729943   7.320   4.520   3.541 -1.0319  1.1498 -0.6724
   39MOL   H22829944   7.381   4.614   3.666  2.0604  1.6792  0.1492
   39MOL   H22929945   7.458   4.645   3.379  1.7590  0.9828 -0.4786
   39MOL   H23029946   7.670   4.586   3.443  0.4694 -0.9855 -0.2786
   39MOL   H23129947   7.636   4.525   3.605 -0.7135 -3.1693 -0.2768
   39MOL   H23229948   7.653   4.042   3.534  0.1158  2.7547  0.4886
   39MOL   H23329949   7.531   3.849   3.452  1.4861  0.4331 -0.1386
   39MOL   H23429950   7.252   4.115   3.261 -0.4351 -1.7477 -0.2151
   39MOL   H23529951   7.352   4.305   3.364 -2.1040 -0.1510 -1.8067
   39MOL   C23629952   6.878   3.443   2.962 -0.3793 -0.7147 -0.7957
   39MOL   C23729953   6.995   3.491   3.047  0.2437  0.9766  0.6248
   39MOL   C23829954   7.057   3.623   2.983 -0.2264  0.2618 -0.6204
   39MOL   C23929955   7.178   3.668   3.083  0.3722  0.1878  0.2850
   39MOL   O24029956   7.122   3.752   3.179  0.4055  0.1300 -0.2399
   39MOL   C24129957   7.102   3.597   2.836 -0.5874  0.1151 -0.0516
   39MOL   C24229958   6.993   3.537   2.752  0.0201 -0.4572 -0.5863
   39MOL   C24329959   6.936   3.409   2.818  0.2677  0.5123 -0.1931
   39MOL   C24429960   6.833   3.344   2.730 -0.5085 -0.4262  0.5398
   39MOL   O24529961   6.904   3.278   2.635 -0.1987 -0.0402 -0.2852
   39MOL   C24629962   6.832   3.230   2.528  0.9574 -0.4793  0.5873
   39MOL   O24729963   6.717   3.271   2.494 -0.4148  0.4454  0.1321
   39MOL   C24829964   6.910   3.133   2.444  0.2525 -0.1576 -0.2090
   39MOL   C24929965   7.045   3.122   2.476 -0.4731  0.1479 -0.0664
   39MOL   C25029966   7.122   3.022   2.421 -0.0920 -0.0090  0.0994
   39MOL   C25129967   7.063   2.937   2.329 -0.0150  0.3815  0.5898
   39MOL   C25229968   7.131   2.821   2.264  0.3555  0.1323  0.0397
   39MOL   O25329969   7.096   2.759   2.162  0.0230 -0.1863  0.1551
   39MOL   O25429970   7.235   2.781   2.344 -0.4061  0.8066 -0.1472
   39MOL   C25529971   6.930   2.959   2.292 -0.0399 -0.2565  0.1809
   39MOL   C25629972   6.849   3.052   2.357  0.4316  0.4536  0.4271
   39MOL   H25729973   6.822   3.360   3.005  0.2277  0.0847  1.6219
   39MOL   H25829974   6.801   3.519   2.969 -1.8954 -2.3260  0.8057
   39MOL   H25929975   6.957   3.506   3.149  1.0182  1.5228  0.8381
   39MOL   H26029976   7.073   3.415   3.046 -0.1585  0.5716 -0.2216
   39MOL   H26129977   6.981   3.701   2.975  0.1031  0.4431 -1.9729
   39MOL   H26229978   7.237   3.589   3.129  1.0650  0.2514 -0.4784
   39MOL   H26329979   7.240   3.728   3.016  0.7032 -1.6410 -1.1161
   39MOL   H26429980   7.118   3.697   2.797  1.9580  0.2383  1.1381
   39MOL   H26529981   7.197   3.544   2.834  0.0185  1.2442 -1.4468
   39MOL   H26629982   7.028   3.519   2.650 -1.4701  2.0287 -1.5703
   39MOL   H26729983   6.907   3.602   2.744 -0.4954 -0.7812  1.8481
   39MOL   H26829984   7.014   3.335   2.836  1.0259  0.9346 -1.7357
   39MOL   H26929985   6.776   3.272   2.788 -0.6386 -0.1694  0.7334
   39MOL   H27029986   6.769   3.412   2.674 -0.3598  0.1380  1.0496
   39MOL   H27129987   7.097   3.187   2.544  2.5060  0.5234 -2.5950
   39MOL   H27229988   7.225   3.005   2.449  0.9415  2.5483 -1.9771
   39MOL   H27329989   6.890   2.893   2.215 -0.3311  2.0567 -1.6982
   39MOL   H27429990   6.743   3.059   2.336  0.3171  2.1146  1.5047
   39MOL   C27529991   7.241   2.154   2.367  0.5703  0.8287  0.1673
   39MOL   C27629992   7.196   2.293   2.398 -0.3732  0.4418  0.1424
   39MOL   C27729993   7.277   2.407   2.331 -0.6158 -0.3281  0.0747
   39MOL   C27829994   7.236   2.543   2.400 -0.5769 -0.1925  0.4197
   39MOL   O27929995   7.291   2.646   2.308 -0.2584  0.2232  0.4249
   39MOL   C28029996   7.433   2.388   2.329 -0.4600  0.2260  0.5801
   39MOL   C28129997   7.454   2.242   2.283  0.2068 -0.4377  0.5348
   39MOL   C28229998   7.391   2.131   2.378  0.6209  0.5121  0.3931
   39MOL   C28329999   7.433   1.991   2.337 -0.4689  0.6535  0.8350
   39MOL   O28430000   7.416   1.878   2.424  1.0294 -0.1142 -0.1166
   39MOL   C28530001   7.453   1.754   2.387 -0.5662 -0.7406  0.0405
   39MOL   O28630002   7.512   1.736   2.280 -0.7285  0.3936 -0.6440
   39MOL   C28730003   7.417   1.647   2.479 -0.2887  0.1572 -0.6393
   39MOL   C28830004   7.342   1.674   2.601  0.7856  0.0244 -0.1891
   39MOL   C28930005   7.318   1.573   2.696 -0.6930 -0.3034  0.6756
   39MOL   C29030006   7.360   1.441   2.667 -0.1656  0.1462 -0.6748
   39MOL   C29130007   7.327   1.336   2.766 -0.2568  0.7451 -0.2460
   39MOL   O29230008   7.294   1.368   2.881  0.2949  0.0215  0.1021
   39MOL   O29330009   7.339   1.208   2.718 -0.0243  0.3567  0.0208
   39MOL   C29430010   7.420   1.412   2.541 -0.1661  0.1317  0.2138
   39MOL   C29530011   7.463   1.512   2.454 -0.3735 -0.4074  0.2172
   39MOL   H29630012   7.179   2.085   2.425 -0.2571  1.7769  0.4281
   39MOL   H29730013   7.208   2.127   2.267 -1.9817  0.0624  1.1859
   39MOL   H29830014   7.096   2.312   2.361 -0.4057  0.2667  0.1415
   39MOL   H29930015   7.185   2.306   2.506 -1.8371 -0.1950  0.0720
   39MOL   H30030016   7.250   2.403   2.225 -0.0648 -1.7345 -0.0224
   39MOL   H30130017   7.127   2.556   2.402 -0.4259  1.3616 -0.6708
   39MOL   H30230018   7.281   2.547   2.499  2.3027  3.9723 -0.9015
   39MOL   H30330019   7.477   2.456   2.256 -1.0323  0.6916  0.6657
   39MOL   H30430020   7.475   2.425   2.423 -0.1945  0.9799  0.1745
   39MOL   H30530021   7.561   2.228   2.267  0.8947  0.7420  3.8240
   39MOL   H30630022   7.411   2.239   2.182 -0.0994  0.1585  0.6415
   39MOL   H30730023   7.429   2.159   2.477 -0.2519  1.5921  0.4331
   39MOL   H30830024   7.384   1.965   2.243 -0.3918  0.1655  0.9300
   39MOL   H30930025   7.538   2.001   2.310 -0.1983 -1.8511  0.9086
   39MOL   H31030026   7.301   1.772   2.621 -2.2815 -1.2388  0.0290
   39MOL   H31130027   7.270   1.597   2.790  1.7122 -0.3488  1.9442
   39MOL   H31230028   7.448   1.311   2.514 -0.8168  0.2316 -0.8558
   39MOL   H31330029   7.514   1.491   2.362 -1.0358 -0.0420 -0.2385
   39MOL   C31430030   7.618   0.894   2.601 -0.3712 -0.3925  1.1045
   39MOL   C31530031   7.502   0.930   2.692 -0.2447 -0.1099 -0.3877
   39MOL   C31630032   7.546   1.041   2.790 -0.1711  0.6925 -0.1925
   39MOL   C31730033   7.415   1.057   2.888  0.2274 -0.4291  0.0201
   39MOL   O31830034   7.305   1.095   2.815  0.3605 -0.0017 -0.1585
   39MOL   C31930035   7.672   0.991   2.869  0.7834  0.3269 -0.3047
   39MOL   C32030036   7.788   0.960   2.776 -0.5270  0.1048  0.2102
   39MOL   C32130037   7.755   0.857   2.662 -0.1833 -0.3705  0.1456
   39MOL   C32230038   7.861   0.861   2.544  0.8953  0.0181  0.2598
   39MOL   O32330039   7.987   0.831   2.599 -0.2340 -0.1588  0.0031
   39MOL   C32430040   0.055   0.845   2.515 -0.4152  0.8496 -0.0104
   39MOL   O32530041   0.049   0.907   2.412  0.2585  0.7525 -0.3538
   39MOL   C32630042   0.182   0.781   2.561 -0.2252 -0.0657  0.0507
   39MOL   C32730043   0.298   0.784   2.484  0.8141 -0.3167  0.1930
   39MOL   C32830044   0.398   0.701   2.534 -0.2929  0.5249  0.4202
   39MOL   C32930045   0.392   0.629   2.657 -0.0720  0.5621  0.0173
   39MOL   C33030046   0.510   0.539   2.695 -0.2483 -0.1632  0.5098
   39MOL   O33130047   0.521   0.464   2.797 -0.4805 -0.5025 -0.1458
   39MOL   O33230048   0.609   0.552   2.600 -0.3589 -0.1181  0.4652
   39MOL   C33330049   0.283   0.651   2.743 -0.4844  0.0131  0.2010
   39MOL   C33430050   0.171   0.714   2.689  0.2837 -0.3170  0.2522
   39MOL   H33530051   7.566   0.840   2.522  2.3374  1.8645 -2.4378
   39MOL   H33630052   7.641   0.992   2.557  0.4292 -0.4645  1.3571
   39MOL   H33730053   7.422   0.970   2.629  1.0303  1.5700 -0.9778
   39MOL   H33830054   7.466   0.839   2.740  2.0569 -0.1774  1.2649
   39MOL   H33930055   7.557   1.135   2.735  0.5395  0.3696 -0.6057
   39MOL   H34030056   7.399   0.963   2.941 -0.1318 -0.6311 -0.4457
   39MOL   H34130057   7.434   1.124   2.972  0.4734 -0.4944  0.0171
   39MOL   H34230058   7.697   1.069   2.941  0.7712 -0.1749  0.2454
   39MOL   H34330059   7.637   0.904   2.925  1.1454  1.2216  1.3370
   39MOL   H34430060   7.874   0.931   2.836 -0.9284  0.6720  1.0836
   39MOL   H34530061   7.821   1.053   2.730  2.0349 -0.5527  0.6467
   39MOL   H34630062   7.751   0.758   2.708  0.3124 -0.0208  0.9438
   39MOL   H34730063   7.845   0.774   2.480  2.1976 -0.8680  1.0977
   39MOL   H34830064   7.856   0.949   2.481 -1.6569 -0.5921 -0.4531
   39MOL   H34930065   0.303   0.841   2.393  0.0033  0.4885  0.6347
   39MOL   H35030066   0.482   0.692   2.467 -1.5698  0.4177 -1.1913
   39MOL   H35130067   0.273   0.602   2.839  0.3520 -0.7076 -0.0654
   39MOL   H35230068   0.076   0.720   2.740  0.9545  2.4342  1.2877
   39MOL   C35330069   0.974   0.222   2.876  0.3672  0.3313  0.3448
   39MOL   C35430070   0.867   0.326   2.823  0.0742  0.7951 -0.8999
   39MOL   C35530071   0.935   0.431   2.731  0.1552 -0.7111  1.3605
   39MOL   C35630072   0.829   0.532   2.683 -0.4095 -0.3304 -0.2254
   39MOL   O35730073   0.731   0.463   2.610  0.4124 -0.2391 -0.0562
   39MOL   C35830074   1.041   0.505   2.814 -0.1015 -0.7353  0.9570
   39MOL   C35930075   1.146   0.404   2.867 -0.7261 -0.2827  0.2981
   39MOL   C36030076   1.097   0.282   2.955 -0.9146 -0.2637  0.0571
   39MOL   C36130077   1.210   0.192   2.983  0.5961 -0.5735 -0.6443
   39MOL   O36230078   1.304   0.248   3.076 -0.2214 -0.5591 -0.0425
   39MOL   C36330079   1.444   0.215   3.076  0.0190 -0.1817  0.7681
   39MOL   O36430080   1.489   0.125   3.014 -0.1949  0.7614  0.3020
   39MOL   C36530081   1.517   0.309   3.164  0.1506  0.4286  0.1230
   39MOL   C36630082   1.656   0.309   3.159  0.3934 -0.0551 -0.1733
   39MOL   C36730083   1.729   0.415   3.225  0.4149  0.0213 -0.3036
   39MOL   C36830084   1.659   0.515   3.302  0.6029  0.0465  0.2747
   39MOL   C36930085   1.731   0.628   3.369  0.0021  0.5773 -0.8119
   39MOL   O37030086   1.673   0.702   3.452  0.3220 -0.7881 -0.4678
   39MOL   O37130087   1.859   0.634   3.343  0.1958 -0.2209 -0.0746
   39MOL   C37230088   1.520   0.507   3.309  0.1949  0.3354  0.5406
   39MOL   C37330089   1.448   0.409   3.234 -0.0883 -0.1248 -0.6231
   39MOL   H37430090   0.924   0.143   2.933  0.7986  0.4368  0.8777
   39MOL   H37530091   1.024   0.175   2.791  1.8011  1.7071  0.4056
   39MOL   H37630092   0.781   0.286   2.769  0.9642 -0.1232 -1.6420
   39MOL   H37730093   0.819   0.368   2.911  2.2951 -1.6201  1.5716
   39MOL   H37830094   0.973   0.381   2.642  1.2920  0.1693  1.3352
   39MOL   H37930095   0.780   0.573   2.771  0.0497  1.0472 -0.5972
   39MOL   H38030096   0.866   0.614   2.622  1.3838 -2.4514 -2.0720
   39MOL   H38130097   1.094   0.577   2.751 -2.8985 -0.0602 -0.7024
   39MOL   H38230098   0.998   0.562   2.896 -0.3840 -3.2608  2.6035
   39MOL   H38330099   1.228   0.464   2.904 -1.3054  2.0899 -2.0838
   39MOL   H38430100   1.200   0.360   2.783  1.5207 -0.5855  1.8495
   39MOL   H38530101   1.057   0.313   3.052 -0.5164 -3.5693  1.3460
   39MOL   H38630102   1.192   0.089   3.013  0.7326 -0.4878 -0.2624
   39MOL   H38730103   1.267   0.176   2.892  2.3865  0.7671  0.2118
   39MOL   H38830104   1.717   0.241   3.101  0.9240  0.4362 -0.2054
   39MOL   H38930105   1.837   0.408   3.221  0.7366  4.3359 -1.5698
   39MOL   H39030106   1.461   0.577   3.366  0.1984  1.2074 -0.5350
   39MOL   H39130107   1.340   0.411   3.246 -0.0553 -0.5069 -0.2473
   39MOL   C39230108   2.315   0.462   3.560  0.4089 -0.5679  0.3725
   39MOL   C39330109   2.201   0.554   3.607 -0.2896  0.6672  0.0854
   39MOL   C39430110   2.113   0.592   3.491 -0.6994 -1.3648 -0.3253
   39MOL   C39530111   1.999   0.693   3.524  0.0739  0.3194 -0.4496
   39MOL   O39630112   1.927   0.750   3.412  0.0607 -0.1079  0.0829
   39MOL   C39730113   2.188   0.652   3.372  0.4642  0.0059  0.5021
   39MOL   C39830114   2.310   0.561   3.331 -0.3959 -0.2482 -0.3189
   39MOL   C39930115   2.404   0.526   3.451 -0.0385 -0.1707  0.4903
   39MOL   C40030116   2.511   0.427   3.407  0.6387  0.4493  0.4149
   39MOL   O40130117   2.536   0.449   3.271 -0.2011  0.3081  0.2408
   39MOL   C40230118   2.634   0.374   3.210  0.3558 -0.2427 -0.6684
   39MOL   O40330119   2.684   0.274   3.254 -0.1788 -0.0599  0.3732
   39MOL   C40430120   2.656   0.414   3.072  0.0112 -0.3512  0.6321
   39MOL   C40530121   2.613   0.535   3.015 -0.2275 -0.5884 -0.2220
   39MOL   C40630122   2.612   0.557   2.875 -0.7708 -0.2164  0.5365
   39MOL   C40730123   2.672   0.464   2.790 -0.8202  0.2670 -0.1838
   39MOL   C40830124   2.665   0.479   2.638 -0.2683 -0.0778  0.5615
   39MOL   O40930125   2.586   0.559   2.587 -0.7039  0.5102  1.0033
   39MOL   O41030126   2.754   0.409   2.572  0.0780 -0.1033  0.0510
   39MOL   C41130127   2.731   0.349   2.846 -0.7035 -0.4558  0.2371
   39MOL   C41230128   2.725   0.328   2.987 -0.0891 -0.1727 -0.1028
   39MOL   H41330129   2.377   0.432   3.645 -0.0139  1.5159  1.4720
   39MOL   H41430130   2.264   0.382   3.507 -1.6685  0.6327  0.5261
   39MOL   H41530131   2.142   0.507   3.686  0.8308 -0.4812  0.2547
   39MOL   H41630132   2.244   0.644   3.651  0.6673  0.1646  0.1734
   39MOL   H41730133   2.071   0.500   3.450 -0.4382 -2.2057  1.2626
   39MOL   H41830134   1.935   0.629   3.584  0.2874  0.0264 -0.5282
   39MOL   H41930135   2.033   0.772   3.592 -0.3796  0.8373 -0.8250
   39MOL   H42030136   2.117   0.652   3.289 -2.4181  0.2528  2.8454
   39MOL   H42130137   2.222   0.755   3.384 -0.4193  0.2611  0.9100
   39MOL   H42230138   2.366   0.618   3.257 -1.2952 -0.3736 -1.1143
   39MOL   H42330139   2.271   0.474   3.278 -1.0649 -0.4766  0.5447
   39MOL   H42430140   2.446   0.621   3.482  1.2746 -0.9508  1.1653
   39MOL   H42530141   2.602   0.431   3.467  1.0646  0.6169 -0.2431
   39MOL   H42630142   2.473   0.325   3.411 -1.2047  1.1422  1.6199
   39MOL   H42730143   2.571   0.606   3.085  0.3274 -0.6649  0.1877
   39MOL   H42830144   2.562   0.640   2.827  0.8095 -0.2780 -1.2961
   39MOL   H42930145   2.790   0.282   2.786 -0.3740  0.8974 -0.9820
   39MOL   H43030146   2.759   0.235   3.028  0.2142 -0.2912 -0.6165
   39MOL   C43130147   2.885   0.755   2.084 -0.2595 -0.4980  0.1812
   39MOL   C43230148   2.916   0.699   2.220 -0.2696  0.1919  1.1823
   39MOL   C43330149   2.813   0.594   2.259 -0.2656  0.1983 -0.3521
   39MOL   C43430150   2.842   0.529   2.389  0.5489  0.0751  0.2323
   39MOL   O43530151   2.747   0.429   2.425 -0.6287  1.1712 -0.3523
   39MOL   C43630152   2.671   0.659   2.265  0.3082 -0.0033  0.3988
   39MOL   C43730153   2.631   0.716   2.125 -0.2388  0.0309 -0.6195
   39MOL   C43830154   2.741   0.820   2.089  0.1190 -0.0582  0.0127
   39MOL   C43930155   2.688   0.875   1.954  0.1744 -0.2839  0.1407
   39MOL   O44030156   2.760   0.988   1.911 -0.0347 -0.5636 -0.6408
   39MOL   C44130157   2.870   0.970   1.833  0.2877 -0.5207  0.0990
   39MOL   O44230158   2.898   0.866   1.772  0.3409  1.0083  0.3832
   39MOL   C44330159   2.946   1.097   1.821  0.2065 -0.5521 -0.5510
   39MOL   C44430160   3.006   1.129   1.696 -0.5474 -0.1025  0.4399
   39MOL   C44530161   3.073   1.253   1.684  0.1261 -0.0925 -0.2941
   39MOL   C44630162   3.094   1.336   1.796  0.2955 -0.0273  0.5086
   39MOL   C44730163   3.176   1.453   1.771  0.0158  0.5750 -0.1948
   39MOL   O44830164   3.180   1.513   1.660 -0.0861 -0.2328 -0.4895
   39MOL   O44930165   3.251   1.485   1.872  0.4471 -0.2640  0.2001
   39MOL   C45030166   3.048   1.298   1.922 -0.2070 -0.4531  0.2873
   39MOL   C45130167   2.967   1.184   1.933  0.2982  0.2827  0.1143
   39MOL   H45230168   2.956   0.835   2.062 -0.8003  0.5346  2.0489
   39MOL   H45330169   2.888   0.681   2.004  0.3135 -0.3635  0.0706
   39MOL   H45430170   3.019   0.664   2.230 -0.1209  0.1195 -0.5936
   39MOL   H45530171   2.911   0.778   2.296  0.7897 -0.1862  1.6609
   39MOL   H45630172   2.816   0.516   2.183  2.3933  0.0223 -0.1287
   39MOL   H45730173   2.944   0.492   2.386  0.1458 -1.2552  1.9556
   39MOL   H45830174   2.842   0.602   2.470 -1.2892  0.8229 -0.3969
   39MOL   H45930175   2.599   0.586   2.301  0.2605 -1.1934 -2.0239
   39MOL   H46030176   2.689   0.733   2.344 -0.6819  0.2416  0.4094
   39MOL   H46130177   2.531   0.758   2.126  0.6914  2.2879 -0.5891
   39MOL   H46230178   2.624   0.640   2.047  1.1381 -2.3200  1.4532
   39MOL   H46330179   2.748   0.899   2.164 -2.4955 -0.0796  0.3297
   39MOL   H46430180   2.688   0.807   1.868  2.0735 -1.7595  1.2680
   39MOL   H46530181   2.586   0.910   1.967  0.9175  1.1599  2.3883
   39MOL   H46630182   2.986   1.072   1.607 -0.9565 -0.6527  0.8787
   39MOL   H46730183   3.115   1.285   1.590  1.9328  1.4625  1.0281
   39MOL   H46830184   3.068   1.356   2.011  0.1495 -1.3599  0.7982
   39MOL   H46930185   2.930   1.150   2.029  0.0885 -0.3406 -0.1828
   39MOL   C47030186   3.564   1.477   2.203 -0.1840  0.9217 -0.7047
   39MOL   C47130187   3.499   1.558   2.085 -0.1019 -0.1365  0.3627
   39MOL   C47230188   3.512   1.480   1.953 -0.1791 -0.4607  0.6499
   39MOL   C47330189   3.462   1.573   1.838  0.1245 -0.1294 -0.1998
   39MOL   O47430190   3.327   1.610   1.855 -0.1694 -0.0396  0.0320
   39MOL   C47530191   3.657   1.442   1.922  0.0013  0.2839  0.0946
   39MOL   C47630192   3.714   1.352   2.035  0.2978  0.2767  0.4070
   39MOL   C47730193   3.705   1.427   2.172 -0.5290 -0.0316 -0.9061
   39MOL   C47830194   3.766   1.339   2.279  0.1067  0.4977  0.0885
   39MOL   O47930195   3.664   1.241   2.318 -0.2060  0.3335  0.5985
   39MOL   C48030196   3.704   1.134   2.391 -0.5280 -0.3935 -0.3010
   39MOL   O48130197   3.822   1.123   2.428 -0.5028 -0.2477 -0.0586
   39MOL   C48230198   3.597   1.034   2.419 -0.4970  0.3998  0.1483
   39MOL   C48330199   3.632   0.907   2.465 -0.3368 -0.5187 -0.4500
   39MOL   C48430200   3.530   0.809   2.482 -0.3386  0.1648 -0.1687
   39MOL   C48530201   3.393   0.841   2.483 -0.4396  0.9866 -1.1775
   39MOL   C48630202   3.294   0.729   2.504 -0.7592  0.3438  0.3050
   39MOL   O48730203   3.313   0.619   2.554  0.5860 -0.2330 -0.2508
   39MOL   O48830204   3.176   0.763   2.451 -0.2840  0.4650 -0.3640
   39MOL   C48930205   3.360   0.976   2.443  0.1521 -0.0178  0.0115
   39MOL   C49030206   3.459   1.072   2.419 -0.1936 -0.3468 -0.1115
   39MOL   H49130207   3.573   1.524   2.300  2.4175 -1.7024  0.3925
   39MOL   H49230208   3.489   1.399   2.219  0.5852  0.4153  0.4635
   39MOL   H49330209   3.394   1.580   2.103 -0.6770 -1.1731 -1.6371
   39MOL   H49430210   3.557   1.649   2.069 -0.4645 -0.3953 -2.6783
   39MOL   H49530211   3.446   1.393   1.962  0.4153 -0.8865  0.9007
   39MOL   H49630212   3.516   1.667   1.833  0.9224 -0.5174  0.9376
   39MOL   H49730213   3.473   1.523   1.742 -1.0743  1.3899 -1.1329
   39MOL   H49830214   3.647   1.376   1.836 -0.9229 -0.3207  0.6660
   39MOL   H49930215   3.725   1.525   1.902  2.3234 -1.6609 -0.2505
   39MOL   H50030216   3.813   1.318   2.005 -0.5871  1.6849 -4.6194
   39MOL   H50130217   3.660   1.257   2.045  1.1447 -0.5784 -2.5328
   39MOL   H50230218   3.763   1.520   2.171 -0.5470 -0.0231 -1.3008
   39MOL   H50330219   3.855   1.290   2.239 -1.6358 -1.4677 -1.5265
   39MOL   H50430220   3.795   1.401   2.364 -1.3026  2.5649 -0.8935
   39MOL   H50530221   3.735   0.876   2.476 -0.5968 -1.3258 -0.2364
   39MOL   H50630222   3.558   0.709   2.513 -0.5287  0.5014  1.1131
   39MOL   H50730223   3.258   1.011   2.448  0.4218  0.7132  0.4930
   39MOL   H50830224   3.436   1.177   2.405 -0.4883 -0.1384  1.8211
   39MOL   C50930225   2.876   1.099   2.487 -0.2316  0.2136 -0.6947
   39MOL   C51030226   2.969   0.984   2.511  0.8822  0.0578  0.1017
   39MOL   C51130227   2.904   0.858   2.573 -0.3614  0.2461 -0.5967
   39MOL   C51230228   3.010   0.749   2.616 -0.0743  0.4425  0.4525
   39MOL   O51330229   3.064   0.688   2.506  0.4954  0.4826  0.2625
   39MOL   C51430230   2.828   0.899   2.707 -0.7869  0.4028  0.3279
   39MOL   C51530231   2.721   0.997   2.673 -0.0411 -0.3578 -0.3375
   39MOL   C51630232   2.780   1.124   2.604  0.8571 -0.0018  0.3729
   39MOL   C51730233   2.660   1.207   2.549  0.2549  0.7799 -0.7756
   39MOL   O51830234   2.721   1.327   2.494  0.4766  0.0221 -0.0346
   39MOL   C51930235   2.669   1.450   2.532  0.5606 -0.3936  0.3012
   39MOL   O52030236   2.569   1.468   2.604 -0.1893 -0.1895  0.1053
   39MOL   C52130237   2.756   1.565   2.483  0.4103  0.3224 -0.5379
   39MOL   C52230238   2.864   1.534   2.402 -0.4435  0.1477  0.3061
   39MOL   C52330239   2.942   1.638   2.348  0.3243 -0.4313  0.6576
   39MOL   C52430240   2.914   1.772   2.377 -0.0874 -0.6413  0.0190
   39MOL   C52530241   2.995   1.880   2.324 -0.3793 -0.4167  0.4986
   39MOL   O52630242   3.074   1.871   2.227 -0.6525  0.5519  0.3609
   39MOL   O52730243   2.971   1.997   2.392  0.3333 -0.1203  0.1706
   39MOL   C52830244   2.800   1.800   2.454 -0.4139 -0.6382  0.4759
   39MOL   C52930245   2.723   1.698   2.506 -0.0072  0.2275  0.2984
   39MOL   H53030246   2.932   1.189   2.463  2.2170 -0.9370  0.5112
   39MOL   H53130247   2.826   1.070   2.395 -0.4143 -2.2818  0.1510
   39MOL   H53230248   3.021   0.962   2.418  0.6558  2.4569 -0.6094
   39MOL   H53330249   3.040   1.023   2.583  0.0775  1.7979 -0.0297
   39MOL   H53430250   2.826   0.809   2.515  1.2509 -3.7486  0.4350
   39MOL   H53530251   3.085   0.797   2.679  0.2711  1.8828 -1.0137
   39MOL   H53630252   2.959   0.672   2.674 -0.8474  1.2783  0.9024
   39MOL   H53730253   2.771   0.813   2.741  0.6844 -0.1609  1.4042
   39MOL   H53830254   2.894   0.928   2.788  1.7234 -0.4698 -1.3170
   39MOL   H53930255   2.674   1.017   2.769  1.5093 -2.3269  0.8646
   39MOL   H54030256   2.644   0.950   2.612 -0.9670 -1.5477  1.7292
   39MOL   H54130257   2.828   1.188   2.679  1.8588 -1.6575  1.1796
   39MOL   H54230258   2.600   1.155   2.474 -0.7799 -0.2952  0.7640
   39MOL   H54330259   2.596   1.240   2.630 -0.8085  1.4371 -1.8672
   39MOL   H54430260   2.889   1.433   2.372  1.0909  0.2982  1.0079
   39MOL   H54530261   3.032   1.624   2.290  0.0806  2.1784 -0.4275
   39MOL   H54630262   2.765   1.898   2.482 -2.7524 -0.8026 -1.7099
   39MOL   H54730263   2.628   1.714   2.554  0.4332  3.1056  0.3441
   39MOL   C54830264   3.480   2.258   2.622 -0.1011  0.0171  0.1473
   39MOL   C54930265   3.355   2.173   2.613 -0.5539 -0.2638 -0.4404
   39MOL   C55030266   3.276   2.190   2.484 -0.3974 -1.0153 -0.1645
   39MOL   C55130267   3.144   2.114   2.499  0.2049  1.0233 -0.5384
   39MOL   O55230268   3.070   2.107   2.374 -0.2208 -0.5092  0.4404
   39MOL   C55330269   3.245   2.344   2.470 -0.6619  0.1396  0.5052
   39MOL   C55430270   3.367   2.433   2.480 -0.4339 -0.4430 -0.0701
   39MOL   C55530271   3.440   2.405   2.614 -0.3548  0.3200  0.0831
   39MOL   C55630272   3.564   2.493   2.625 -0.2392  0.8246 -0.5705
   39MOL   O55730273   3.658   2.459   2.523 -0.4248 -0.5222 -0.5186
   39MOL   C55830274   3.737   2.551   2.473  0.4488  0.3943 -0.0343
   39MOL   O55930275   3.741   2.670   2.501  0.0984  0.1721  0.5722
   39MOL   C56030276   3.818   2.499   2.358 -0.2722 -0.3315 -0.1314
   39MOL   C56130277   3.815   2.359   2.325  0.1379  0.3132  0.0548
   39MOL   C56230278   3.890   2.305   2.220 -1.0473  0.0742  0.0258
   39MOL   C56330279   3.981   2.386   2.151 -0.1333 -0.1681  0.0034
   39MOL   C56430280   4.068   2.323   2.051  1.1969  0.7358 -0.0990
   39MOL   O56530281   4.049   2.207   2.017 -0.3613  0.2220  0.1219
   39MOL   O56630282   4.168   2.404   2.005 -0.0659  0.0592 -0.1428
   39MOL   C56730283   3.976   2.531   2.169 -0.5551 -0.0447  0.3345
   39MOL   C56830284   3.903   2.579   2.279 -0.7045  0.0922  0.1233
   39MOL   H56930285   3.512   2.237   2.724  3.4526  0.9391 -0.6861
   39MOL   H57030286   3.562   2.223   2.559 -0.9846 -4.2140  1.1478
   39MOL   H57130287   3.396   2.072   2.612  1.2337  0.4328 -1.7325
   39MOL   H57230288   3.307   2.193   2.708  0.8501 -2.4410  0.7680
   39MOL   H57330289   3.333   2.149   2.399 -0.5147 -0.2666 -0.6061
   39MOL   H57430290   3.171   2.009   2.515 -2.9627  0.2428  0.0424
   39MOL   H57530291   3.075   2.145   2.576  2.6462  2.3714  1.1799
   39MOL   H57630292   3.202   2.361   2.371 -0.1574 -1.2204  0.0361
   39MOL   H57730293   3.165   2.377   2.536 -0.5131  0.4184  0.5441
   39MOL   H57830294   3.351   2.539   2.461  1.4428 -0.1529 -0.1706
   39MOL   H57930295   3.439   2.405   2.403  0.7287 -1.5540  1.3682
   39MOL   H58030296   3.373   2.436   2.694 -1.5772 -1.1021 -0.3585
   39MOL   H58130297   3.535   2.598   2.617  0.8953  0.9114 -4.0191
   39MOL   H58230298   3.607   2.463   2.721  1.6415  0.0962 -1.6242
   39MOL   H58330299   3.757   2.290   2.385  0.9474 -0.9071 -0.5453
   39MOL   H58430300   3.888   2.199   2.202  2.2558 -0.0925  0.2758
   39MOL   H58530301   4.040   2.607   2.128 -1.6246  0.1360 -1.0189
   39MOL   H58630302   3.904   2.685   2.301 -1.8400  0.3347 -1.0013
   39MOL   C58730303   4.566   2.235   1.628 -1.3029  0.0747  0.0167
   39MOL   C58830304   4.465   2.325   1.703  0.4578  0.0954  0.4128
   39MOL   C58930305   4.330   2.258   1.711  0.4203 -0.0188  0.9728
   39MOL   C59030306   4.229   2.345   1.781 -0.5536  0.1279  0.0249
   39MOL   O59130307   4.268   2.324   1.921 -0.0742 -0.7379  0.0018
   39MOL   C59230308   4.273   2.216   1.574  0.6827 -0.1033 -0.2302
   39MOL   C59330309   4.369   2.134   1.487 -0.0660 -0.2798  0.5423
   39MOL   C59430310   4.514   2.202   1.485 -0.6495 -0.3949 -0.3207
   39MOL   C59530311   4.621   2.113   1.409  0.7830  0.7388  0.0765
   39MOL   O59630312   4.635   2.150   1.276  0.4248  0.0255 -0.0674
   39MOL   C59730313   4.736   2.238   1.242  0.9552 -0.0422  0.6215
   39MOL   O59830314   4.815   2.291   1.323  0.0553 -0.1072  0.1202
   39MOL   C59930315   4.748   2.271   1.096  0.8827 -0.0361 -0.9478
   39MOL   C60030316   4.844   2.366   1.059  0.0949 -0.8183 -0.6737
   39MOL   C60130317   4.857   2.405   0.929 -0.0605 -0.3988  0.2256
   39MOL   C60230318   4.785   2.345   0.822  0.0133 -0.1114 -0.6495
   39MOL   C60330319   4.798   2.389   0.682 -0.0211  0.1035 -0.3269
   39MOL   O60430320   4.765   2.314   0.591  0.0840  0.5873  0.4325
   39MOL   O60530321   4.850   2.517   0.681  0.1828  0.3847 -0.1057
   39MOL   C60630322   4.680   2.255   0.857  0.5232  0.2631 -0.6750
   39MOL   C60730323   4.665   2.208   0.997 -0.0098 -0.4910 -0.1001
   39MOL   H60830324   4.661   2.288   1.621  0.0136 -2.3142 -0.7859
   39MOL   H60930325   4.582   2.140   1.679  1.0309  0.4715  0.0635
   39MOL   H61030326   4.509   2.342   1.801  0.3986  1.7356  0.1686
   39MOL   H61130327   4.464   2.420   1.649  2.5129  0.0865  0.3042
   39MOL   H61230328   4.335   2.167   1.769 -2.1289 -1.1146 -0.4503
   39MOL   H61330329   4.241   2.450   1.752  2.8687  0.4535  2.4093
   39MOL   H61430330   4.127   2.316   1.757 -0.3076 -2.4621  1.9208
   39MOL   H61530331   4.182   2.157   1.584  0.3333  0.9665  3.7888
   39MOL   H61630332   4.239   2.308   1.527 -0.2538  0.0501  0.7113
   39MOL   H61730333   4.320   2.156   1.392 -1.6987  0.5521  1.5550
   39MOL   H61830334   4.353   2.028   1.505 -1.4984 -0.0121  0.8690
   39MOL   H61930335   4.502   2.293   1.426 -1.8573 -0.0256  0.4741
   39MOL   H62030336   4.710   2.127   1.469  0.9480 -1.0836  0.2758
   39MOL   H62130337   4.603   2.007   1.427  0.8232  0.6345 -0.4906
   39MOL   H62230338   4.918   2.408   1.126  0.3963 -0.0067 -1.4945
   39MOL   H62330339   4.940   2.468   0.900  0.2057 -1.1296 -0.6095
   39MOL   H62430340   4.618   2.224   0.775  0.5876 -1.3070 -0.1424
   39MOL   H62530341   4.587   2.139   1.026 -2.8745  2.1719 -1.1850
   39MOL   C62630342   5.111   2.652   0.192 -0.7470  0.0798 -0.6327
   39MOL   C62730343   5.059   2.580   0.315 -0.5839  0.5027  0.1360
   39MOL   C62830344   5.093   2.655   0.441 -0.2593  0.4587  0.2321
   39MOL   C62930345   5.047   2.581   0.563 -0.5583 -0.2607  0.4527
   39MOL   O63030346   4.904   2.568   0.552 -0.2942  0.2954 -0.1517
   39MOL   C63130347   5.245   2.683   0.452  0.3462 -0.2320 -0.0372
   39MOL   C63230348   5.304   2.748   0.320  0.3479  0.3944 -0.1210
   39MOL   C63330349   5.263   2.674   0.186  0.3625  0.4436  0.5979
   39MOL   C63430350   5.307   2.746   0.053  0.6228  0.7221 -0.5121
   39MOL   O63530351   5.291   2.660   7.988  0.5167  0.0667  0.0851
   39MOL   C63630352   5.196   2.692   7.888  0.4207  0.1608 -0.1076
   39MOL   O63730353   5.131   2.800   7.882 -0.2235  0.3282 -0.6789
   39MOL   C63830354   5.178   2.588   7.782  0.3199 -0.3895 -0.7677
   39MOL   C63930355   5.122   2.613   7.656 -0.0887  0.1070  0.1191
   39MOL   C64030356   5.137   2.520   7.553 -0.1277  0.2852 -0.1159
   39MOL   C64130357   5.169   2.383   7.583 -0.5735 -0.4102 -0.0629
   39MOL   C64230358   5.178   2.284   7.468 -0.0891  0.7806 -0.0440
   39MOL   O64330359   5.182   2.324   7.349 -0.2978 -0.1259 -0.2771
   39MOL   O64430360   5.165   2.152   7.508 -0.2751 -0.2392  0.1236
   39MOL   C64530361   5.211   2.351   7.714 -0.0505 -0.6336 -0.7747
   39MOL   C64630362   5.217   2.452   7.814 -0.1590 -0.1985  0.2094
   39MOL   H64730363   5.074   2.601   0.103  1.1545 -0.4114 -1.1603
   39MOL   H64830364   5.059   2.748   0.196 -1.0770 -0.0705 -1.1903
   39MOL   H64930365   4.952   2.567   0.301 -0.8850  2.0869  0.8569
   39MOL   H65030366   5.101   2.481   0.329 -0.7607  0.5161  0.7845
   39MOL   H65130367   5.034   2.747   0.446 -2.3068 -0.8773  1.0520
   39MOL   H65230368   5.096   2.483   0.567  0.0333  0.0316  0.4121
   39MOL   H65330369   5.077   2.636   0.652  0.0307  0.4774 -0.1946
   39MOL   H65430370   5.271   2.747   0.537 -0.0799 -0.4283  0.2405
   39MOL   H65530371   5.298   2.589   0.469  0.6593 -0.4256 -1.9715
   39MOL   H65630372   5.412   2.761   0.329  0.5215  0.1166 -1.6119
   39MOL   H65730373   5.264   2.848   0.306  1.8829  0.9973 -0.3581
   39MOL   H65830374   5.301   2.572   0.177 -0.4075  0.3466 -1.7222
   39MOL   H65930375   5.267   2.847   0.045  1.7036  1.1408 -0.6135
   39MOL   H66030376   5.414   2.766   0.053  1.7458 -4.4426 -1.8392
   39MOL   H66130377   5.086   2.710   7.627  1.2713  0.0036 -1.9880
   39MOL   H66230378   5.109   2.557   7.456 -1.2889  0.1030  0.1425
   39MOL   H66330379   5.246   2.251   7.733 -1.1013  0.0060  5.4341
   39MOL   H66430380   5.252   2.426   7.913 -2.8766 -2.6162  0.5899
   39MOL   C66530381   4.914   1.704   7.508 -0.2096  0.6630  0.1664
   39MOL   C66630382   4.989   1.811   7.429  0.1670  0.4385  0.2340
   39MOL   C66730383   4.964   1.957   7.465  0.5844  0.5852  0.3191
   39MOL   C66830384   5.017   2.048   7.361  0.2874 -0.1840 -0.1562
   39MOL   O66930385   5.161   2.060   7.387 -0.1607 -0.5129 -0.2909
   39MOL   C67030386   4.812   1.976   7.476 -0.2202  0.0647 -0.0303
   39MOL   C67130387   4.740   1.864   7.559  0.0847  0.2655 -0.3141
   39MOL   C67230388   4.767   1.724   7.506  0.7071  0.2232 -0.6615
   39MOL   C67330389   4.692   1.620   7.599  0.6309  0.5604  0.1635
   39MOL   O67430390   4.685   1.492   7.528  0.1039 -0.1798 -0.5090
   39MOL   C67530391   4.608   1.404   7.574 -0.0303  0.9446 -0.1129
   39MOL   O67630392   4.556   1.391   7.687  0.2296 -0.1886  0.0661
   39MOL   C67730393   4.586   1.305   7.464  0.3168  0.3493  0.3285
   39MOL   C67830394   4.490   1.198   7.478 -0.8906 -0.5275 -0.1970
   39MOL   C67930395   4.480   1.098   7.383 -0.0876 -0.5914  0.1944
   39MOL   C68030396   4.559   1.106   7.262 -0.0195  0.1250 -0.2896
   39MOL   C68130397   4.555   1.003   7.152 -0.3289 -0.4600  0.4257
   39MOL   O68230398   4.621   0.998   7.045 -0.0743 -0.7479 -0.0614
   39MOL   O68330399   4.465   0.905   7.182 -0.1404  0.1648 -0.2856
   39MOL   C68430400   4.647   1.213   7.245  0.2953  0.3125 -0.6319
   39MOL   C68530401   4.664   1.304   7.346 -0.0130 -0.8176 -0.5003
   39MOL   H68630402   4.934   1.607   7.462  0.9846  0.9556  0.0538
   39MOL   H68730403   4.951   1.697   7.610  2.0502  0.8391 -0.6259
   39MOL   H68830404   5.093   1.781   7.435 -0.2462 -1.0326  0.1773
   39MOL   H68930405   4.950   1.798   7.328 -0.0106  0.0856  0.3494
   39MOL   H69030406   5.013   1.966   7.562 -1.1273 -0.1506  1.2724
   39MOL   H69130407   5.003   2.003   7.263  1.7340  1.8928 -1.3376
   39MOL   H69230408   4.967   2.144   7.352  2.4511  0.9315 -0.4014
   39MOL   H69330409   4.793   2.069   7.531  2.6249  0.1113  0.9606
   39MOL   H69430410   4.766   1.988   7.378  1.5147  2.4265 -0.6006
   39MOL   H69530411   4.632   1.875   7.562 -0.0304 -0.9076  0.1655
   39MOL   H69630412   4.774   1.871   7.662  0.9317 -2.9334 -0.3284
   39MOL   H69730413   4.727   1.726   7.405  0.2600 -0.0069 -0.4884
   39MOL   H69830414   4.742   1.608   7.695  2.7653  3.7036 -0.4479
   39MOL   H69930415   4.589   1.656   7.606 -0.1360 -0.4929 -4.3367
   39MOL   H70030416   4.426   1.205   7.565 -0.6771 -0.7110 -0.0244
   39MOL   H70130417   4.404   1.022   7.385  0.6504 -1.3541 -0.3935
   39MOL   H70230418   4.695   1.205   7.149 -1.7181  0.3820 -1.6677
   39MOL   H70330419   4.740   1.378   7.324  0.1072 -1.1226 -1.1137
   39MOL   C70430420   4.407   0.473   6.791 -0.9414 -1.0319 -0.1475
   39MOL   C70530421   4.442   0.599   6.865 -0.5558  0.3132  0.3705
   39MOL   C70630422   4.321   0.655   6.936  0.2637 -0.2045 -0.1897
   39MOL   C70730423   4.355   0.781   7.014 -0.2590  0.2305 -0.1457
   39MOL   O70830424   4.473   0.780   7.096  0.1410 -0.1715  0.1922
   39MOL   C70930425   4.204   0.685   6.837 -0.6399 -0.1952  0.0039
   39MOL   C71030426   4.175   0.575   6.730 -0.1938 -0.6616 -0.1561
   39MOL   C71130427   4.306   0.502   6.682 -0.7607 -0.7581  0.3746
   39MOL   C71230428   4.278   0.374   6.598 -0.0155 -0.3664  0.7807
   39MOL   O71330429   4.183   0.391   6.494  0.3906 -0.1021  0.0776
   39MOL   C71430430   4.198   0.335   6.374 -0.5121  0.2947  0.3404
   39MOL   O71530431   4.296   0.266   6.346 -0.4108 -0.0678  0.2103
   39MOL   C71630432   4.096   0.373   6.277 -0.5916  0.4233 -0.2144
   39MOL   C71730433   3.976   0.436   6.317  0.2255  0.3918  0.1177
   39MOL   C71830434   3.879   0.470   6.219 -0.1255 -0.3417 -0.1655
   39MOL   C71930435   3.906   0.445   6.081  0.1550 -0.6142 -0.1986
   39MOL   C72030436   3.818   0.513   5.978 -0.1807  0.3089  0.2957
   39MOL   O72130437   3.728   0.594   6.004 -0.2592 -0.0601  0.4358
   39MOL   O72230438   3.848   0.481   5.850 -0.5095 -0.4467 -0.2443
   39MOL   C72330439   4.012   0.363   6.048  0.2072  0.7950 -0.3732
   39MOL   C72430440   4.112   0.333   6.146 -0.0219 -0.0191  0.2316
   39MOL   H72530441   4.499   0.427   6.757 -0.1883  0.1324  0.3147
   39MOL   H72630442   4.366   0.398   6.859 -2.7588  0.8863  0.9436
   39MOL   H72730443   4.520   0.588   6.940 -2.2531 -0.3067  2.0869
   39MOL   H72830444   4.479   0.662   6.784 -0.6437  2.7138  2.1709
   39MOL   H72930445   4.283   0.586   7.011  0.2533 -0.8740 -0.8048
   39MOL   H73030446   4.368   0.867   6.948 -1.5075  0.7150  0.2394
   39MOL   H73130447   4.270   0.807   7.076 -1.2073 -2.2634 -0.3549
   39MOL   H73230448   4.121   0.729   6.894  1.0356 -0.3607  2.6739
   39MOL   H73330449   4.242   0.766   6.775 -1.4980 -0.2553 -0.6017
   39MOL   H73430450   4.128   0.623   6.645 -1.3120  0.3210  0.9974
   39MOL   H73530451   4.106   0.502   6.773 -1.0097  0.2938  0.1520
   39MOL   H73630452   4.355   0.571   6.613 -0.9653  0.1601  1.1463
   39MOL   H73730453   4.375   0.346   6.559  0.3351 -1.9586  2.6980
   39MOL   H73830454   4.248   0.294   6.665 -5.2744  1.5692  0.9611
   39MOL   H73930455   3.968   0.464   6.421  1.4176 -0.5473  0.4779
   39MOL   H74030456   3.793   0.530   6.245  1.4156  1.6157  0.5519
   39MOL   H74130457   4.038   0.318   5.954 -0.1964 -1.5177  0.5708
   39MOL   H74230458   4.196   0.273   6.117  1.6881  2.2581  0.3736
   39MOL   C74330459   3.533   0.667   5.382  0.2805 -0.3136  0.4252
   39MOL   C74430460   3.627   0.594   5.476  0.0955  0.4643 -0.5490
   39MOL   C74530461   3.568   0.580   5.615  0.0067 -0.7181 -0.2098
   39MOL   C74630462   3.652   0.499   5.720 -0.0943 -0.1519  0.2924
   39MOL   O74730463   3.783   0.561   5.746  0.2869 -0.1231  0.0690
   39MOL   C74830464   3.534   0.718   5.663 -0.6651  0.5106  0.4882
   39MOL   C74930465   3.442   0.792   5.577 -0.2169  0.8123  0.1453
   39MOL   C75030466   3.491   0.803   5.429 -0.0601  0.3051  0.2728
   39MOL   C75130467   3.387   0.858   5.325  0.4080 -0.1556 -1.2000
   39MOL   O75230468   3.443   0.935   5.217  0.1843 -0.0535 -0.9836
   39MOL   C75330469   3.470   1.067   5.228  0.0099  0.4748 -0.1826
   39MOL   O75430470   3.468   1.130   5.333 -0.5029 -0.1984 -0.5638
   39MOL   C75530471   3.481   1.123   5.088 -0.6491 -0.4942 -0.3583
   39MOL   C75630472   3.475   1.265   5.075 -0.6916  0.0855 -0.3065
   39MOL   C75730473   3.469   1.332   4.950 -0.3781 -0.2610 -0.1291
   39MOL   C75830474   3.472   1.260   4.833  0.0223  1.0494 -0.6240
   39MOL   C75930475   3.470   1.327   4.705  0.6024 -0.5423  0.4452
   39MOL   O76030476   3.405   1.277   4.607  0.1239  0.5486 -0.0137
   39MOL   O76130477   3.543   1.440   4.714  0.3135 -0.5532 -0.0471
   39MOL   C76230478   3.473   1.117   4.844 -0.5113  0.3318 -0.3330
   39MOL   C76330479   3.476   1.046   4.971 -0.1251  0.2929  1.1336
   39MOL   H76430480   3.580   0.679   5.285  0.6419  0.3373  0.6814
   39MOL   H76530481   3.448   0.599   5.385  0.0537 -0.1214 -1.5402
   39MOL   H76630482   3.649   0.497   5.431 -2.9009 -0.5460  0.0781
   39MOL   H76730483   3.724   0.645   5.477 -0.7197  2.0247  0.5200
   39MOL   H76830484   3.478   0.519   5.607 -0.4021  0.3184 -4.4060
   39MOL   H76930485   3.601   0.497   5.817 -0.8700 -0.3299 -0.1195
   39MOL   H77030486   3.667   0.398   5.683  0.2199  0.9575 -2.7719
   39MOL   H77130487   3.496   0.717   5.765 -2.0354  0.0935 -0.0130
   39MOL   H77230488   3.621   0.783   5.671  0.0962 -0.4294 -0.1683
   39MOL   H77330489   3.423   0.891   5.619  1.3617  0.7363  1.0701
   39MOL   H77430490   3.354   0.728   5.582  0.2164  0.1955 -0.1644
   39MOL   H77530491   3.576   0.872   5.430  0.0034  0.2108  2.1741
   39MOL   H77630492   3.328   0.771   5.297  1.3863 -1.2927  0.2303
   39MOL   H77730493   3.318   0.924   5.378  2.3009  1.2445 -0.4024
   39MOL   H77830494   3.479   1.329   5.161  1.1347 -0.0105 -0.3036
   39MOL   H77930495   3.468   1.440   4.948 -0.4475 -0.2648 -0.2876
   39MOL   H78030496   3.475   1.053   4.756 -0.2521 -0.0800 -0.0287
   39MOL   H78130497   3.487   0.939   4.964 -0.2347  0.3581 -0.1813
   39MOL   H78230498   3.585   1.457   4.631 -1.4498  0.4527 -0.7605
   40MOL     C130499   5.208   7.585   4.785 -0.3701 -0.3508 -0.0264
   40MOL     C230500   5.284   7.506   4.890 -0.0132 -0.5618  0.6041
   40MOL     C330501   5.210   7.378   4.931  0.2440  0.4490  0.1026
   40MOL     C430502   5.293   7.311   5.042  0.0929 -0.2800 -0.3585
   40MOL     O530503   5.246   7.179   5.072  0.9663 -0.2751 -0.2231
   40MOL     C630504   5.065   7.408   4.971  0.0907 -0.7087  0.8354
   40MOL     C730505   4.997   7.475   4.853  0.5600  0.5169  0.5386
   40MOL     C830506   5.058   7.606   4.818  0.2341  0.1268 -0.1702
   40MOL     C930507   4.986   7.654   4.700 -0.2589 -0.1724  0.7682
   40MOL    O1030508   5.003   7.796   4.693  0.5882 -0.0868 -0.6302
   40MOL    C1130509   4.933   7.861   4.594  0.4975 -0.1810 -0.0847
   40MOL    O1230510   4.866   7.799   4.509 -0.2160 -0.0148  0.1596
   40MOL    C1330511   4.936   8.012   4.605 -0.1733  0.4810  0.0610
   40MOL    C1430512   4.957   0.039   4.727 -0.0441  0.0746  0.5663
   40MOL    C1530513   4.947   0.183   4.738 -1.0780 -1.3380 -0.3199
   40MOL    C1630514   4.942   0.260   4.624  0.1232  0.1848 -0.6172
   40MOL    C1730515   4.965   0.406   4.632 -0.1853 -0.7513  0.5302
   40MOL    O1830516   4.951   0.473   4.736 -0.6200 -0.3035  0.2540
   40MOL    O1930517   4.993   0.457   4.506 -0.5664 -0.5264 -0.0836
   40MOL    C2030518   4.915   0.192   4.498  0.1564  0.2456  0.4525
   40MOL    C2130519   4.912   0.049   4.489  0.2657  0.1364 -0.6192
   40MOL    H2230520   5.249   7.684   4.762 -2.4842  0.5379 -0.1076
   40MOL    H2330521   5.222   7.527   4.694  1.5717  1.3462 -0.8452
   40MOL    H2430522   5.379   7.478   4.843  0.1234  1.6926 -0.5467
   40MOL    H2530523   5.308   7.570   4.975 -1.3590 -0.4959  0.9314
   40MOL    H2630524   5.212   7.301   4.853  0.2099  1.7256 -1.1620
   40MOL    H2730525   5.400   7.304   5.021  0.3202 -0.6115  0.8764
   40MOL    H2830526   5.278   7.369   5.134 -2.9107  1.0229 -1.6100
   40MOL    H2930527   5.003   7.329   5.012 -0.2582 -2.1686 -2.3348
   40MOL    H3030528   5.071   7.489   5.044  1.3508 -1.9113  2.1013
   40MOL    H3130529   4.893   7.483   4.885  0.2731 -0.2106 -0.1946
   40MOL    H3230530   4.995   7.406   4.768  2.2955  1.4572 -0.2904
   40MOL    H3330531   5.031   7.675   4.898 -1.4623 -0.7131 -0.0017
   40MOL    H3430532   5.018   7.586   4.621  2.2949 -0.3650  1.9361
   40MOL    H3530533   4.878   7.642   4.711 -0.7071  0.2022 -2.5529
   40MOL    H3630534   4.946   8.008   4.811  2.0231  0.8167  1.4405
   40MOL    H3730535   4.960   0.229   4.835  0.9265 -2.6271  0.0625
   40MOL    H3830536   4.920   0.246   4.404  1.0301  0.2179  0.4709
   40MOL    H3930537   4.902   8.028   4.397  1.1209 -0.0197 -0.6234
   40MOL    H4030538   5.309   7.116   5.041 -1.1031 -0.8831 -3.5114
   40MOL    C4130539   5.076   0.980   4.306 -0.1242 -0.0366  0.1844
   40MOL    C4230540   5.058   0.827   4.319 -0.3223  0.1677  0.0609
   40MOL    C4330541   4.933   0.811   4.412  0.2569  0.0169 -0.2002
   40MOL    C4430542   4.905   0.666   4.435  0.1701  0.5122 -0.0432
   40MOL    O4530543   5.017   0.608   4.500  0.1460 -0.1533 -0.5551
   40MOL    C4630544   4.961   0.881   4.551  0.1855  0.2624 -0.3085
   40MOL    C4730545   5.002   1.025   4.537 -0.0834 -0.6919  0.7868
   40MOL    C4830546   5.117   1.035   4.443  0.0638 -1.3478 -0.6364
   40MOL    C4930547   5.191   1.173   4.446 -0.0139  0.0388 -0.3171
   40MOL    O5030548   5.121   1.262   4.357 -0.4022 -0.0869  0.0991
   40MOL    C5130549   5.194   1.324   4.258  0.1958  0.2229  0.5393
   40MOL    O5230550   5.307   1.285   4.223  0.1160  0.2925  0.2991
   40MOL    C5330551   5.131   1.445   4.200 -0.1785 -0.3232 -0.0080
   40MOL    C5430552   5.187   1.506   4.083 -1.4639 -0.0886  0.2864
   40MOL    C5530553   5.130   1.617   4.021  0.4814  0.1235 -0.5617
   40MOL    C5630554   5.014   1.676   4.078  0.5226  0.6687 -0.1846
   40MOL    C5730555   4.962   1.800   4.033  0.6507  0.5000  0.2103
   40MOL    O5830556   4.868   1.858   4.086 -0.3027  0.2535 -0.3406
   40MOL    O5930557   5.011   1.852   3.920  0.3426 -0.3999 -0.1255
   40MOL    C6030558   4.963   1.618   4.196 -0.1080  0.4000 -0.3392
   40MOL    C6130559   5.011   1.497   4.252  0.0829 -0.0602 -0.0777
   40MOL    H6230560   5.152   0.996   4.229 -1.0916 -1.5466 -1.1114
   40MOL    H6330561   4.998   1.038   4.256  0.3843 -1.1960 -2.0493
   40MOL    H6430562   5.032   0.792   4.220 -0.8004 -0.5575  0.4376
   40MOL    H6530563   5.146   0.781   4.363 -1.6129 -1.0297  1.4595
   40MOL    H6630564   4.854   0.866   4.360 -0.9419  1.1560  2.7013
   40MOL    H6730565   4.811   0.641   4.484  0.3054  0.5655  0.2443
   40MOL    H6830566   4.892   0.619   4.337 -1.9157  1.6516 -0.3339
   40MOL    H6930567   4.868   0.882   4.607  0.3894 -1.1785  0.0766
   40MOL    H7030568   5.038   0.829   4.608 -0.5622 -0.0464  0.4213
   40MOL    H7130569   5.037   1.062   4.633 -2.5893  1.8414  0.8054
   40MOL    H7230570   4.916   1.079   4.498  1.0478  1.7193  1.5326
   40MOL    H7330571   5.183   0.971   4.502 -0.8674 -1.6788  0.0597
   40MOL    H7430572   5.186   1.222   4.543  0.5841 -2.1325  0.8372
   40MOL    H7530573   5.295   1.162   4.414  0.2957  2.3458 -0.1687
   40MOL    H7630574   5.281   1.472   4.041 -2.4424 -1.9118 -0.4800
   40MOL    H7730575   5.169   1.668   3.934  0.8126  0.1649 -0.3905
   40MOL    H7830576   4.869   1.650   4.238 -0.1253 -1.1621  0.8372
   40MOL    H7930577   4.957   1.462   4.339  0.8160 -0.5090  0.2037
   40MOL    C8030578   5.037   2.354   4.104 -1.1606  0.3199 -0.7492
   40MOL    C8130579   5.017   2.342   3.952 -0.2645  0.4618  0.3417
   40MOL    C8230580   4.940   2.213   3.921 -0.4470  0.2060  0.7455
   40MOL    C8330581   5.021   2.083   3.932  0.4537  0.4128  0.3302
   40MOL    O8430582   4.940   1.978   3.881  0.0643  0.0317 -0.0733
   40MOL    C8530583   4.811   2.212   4.006 -0.0845  0.1466  0.0765
   40MOL    C8630584   4.838   2.225   4.160  0.1752 -0.5559  0.8840
   40MOL    C8730585   4.908   2.356   4.186 -0.1092  0.1111  0.4453
   40MOL    C8830586   4.834   2.486   4.169  0.1355 -0.1280 -0.0901
   40MOL    O8930587   4.903   2.591   4.233  0.0758 -0.0647  0.7402
   40MOL    C9030588   4.846   2.724   4.226 -0.6932  0.5224  0.4325
   40MOL    O9130589   4.741   2.751   4.169 -0.1314 -0.2815  0.0244
   40MOL    C9230590   4.915   2.820   4.313 -0.3296 -0.2733 -0.0036
   40MOL    C9330591   5.042   2.795   4.362 -0.1892 -0.7537  0.9106
   40MOL    C9430592   5.112   2.898   4.436 -0.1857  0.5175 -0.6590
   40MOL    C9530593   5.062   3.025   4.458 -0.0123  0.6124  1.3151
   40MOL    C9630594   5.131   3.124   4.549 -0.5982  0.2307  0.2794
   40MOL    O9730595   5.208   3.099   4.647 -0.0385  0.4434  0.3840
   40MOL    O9830596   5.092   3.253   4.523 -0.1234 -0.3981 -0.1693
   40MOL    C9930597   4.927   3.038   4.414 -0.6437  0.2694 -0.5339
   40MOL   C10030598   4.857   2.945   4.340  0.1653  0.5582  0.4063
   40MOL   H10130599   5.106   2.277   4.137 -0.2372  1.8185  0.9013
   40MOL   H10230600   5.083   2.449   4.131 -0.8076 -0.3837  1.2472
   40MOL   H10330601   4.958   2.427   3.919 -0.9211  0.2028  0.8467
   40MOL   H10430602   5.113   2.326   3.902 -0.0412 -2.8116  1.7064
   40MOL   H10530603   4.900   2.223   3.820  0.3234  0.2940  0.4478
   40MOL   H10630604   5.111   2.088   3.871  0.7260  0.1591  0.7113
   40MOL   H10730605   5.051   2.067   4.035  0.7138 -0.2629  0.1541
   40MOL   H10830606   4.745   2.292   3.972 -1.1453 -0.6936  0.0993
   40MOL   H10930607   4.758   2.117   3.993 -2.3556  1.2538  0.8314
   40MOL   H11030608   4.889   2.139   4.203  0.4700 -1.4895 -1.2861
   40MOL   H11130609   4.753   2.231   4.229  1.8692  1.0550  2.9112
   40MOL   H11230610   4.941   2.350   4.290 -1.3763 -2.4068  0.7485
   40MOL   H11330611   4.824   2.511   4.063  1.7554  2.0332  0.2234
   40MOL   H11430612   4.741   2.474   4.225  1.4232 -0.7475  1.9779
   40MOL   H11530613   5.097   2.702   4.351 -2.0108 -1.7610  0.1637
   40MOL   H11630614   5.210   2.880   4.478 -0.6798  1.5538  1.0005
   40MOL   H11730615   4.877   3.132   4.429  1.3324  1.3102 -0.3621
   40MOL   H11830616   4.756   2.961   4.307 -0.8140 -1.8493  2.1244
   40MOL   C11930617   4.846   3.709   4.752 -0.0080 -0.4803  0.0488
   40MOL   C12030618   4.937   3.592   4.794 -0.3556  0.0978  0.9516
   40MOL   C12130619   5.001   3.526   4.676  0.4106 -0.0173 -0.1756
   40MOL   C12230620   5.097   3.406   4.719  0.2601 -0.7060  0.6991
   40MOL   O12330621   5.171   3.347   4.617 -0.2425  0.2347 -0.4294
   40MOL   C12430622   4.896   3.484   4.571 -0.1540 -0.3990 -0.2607
   40MOL   C12530623   4.785   3.592   4.544  0.0940  0.1729  0.7974
   40MOL   C12630624   4.730   3.662   4.673 -0.4684 -0.2373 -0.3175
   40MOL   C12730625   4.635   3.780   4.635 -0.0095 -0.2759 -0.0295
   40MOL   O12830626   4.527   3.722   4.568  0.7796  0.5507 -0.2030
   40MOL   C12930627   4.411   3.781   4.551  0.7400 -0.3430 -0.4816
   40MOL   O13030628   4.375   3.880   4.614  0.2083 -0.6442 -0.3964
   40MOL   C13130629   4.336   3.717   4.449 -0.8119  0.1245 -0.1034
   40MOL   C13230630   4.372   3.585   4.399  0.2249 -0.0264 -0.0761
   40MOL   C13330631   4.299   3.523   4.298 -0.2966  0.4854 -0.0605
   40MOL   C13430632   4.201   3.602   4.232  0.3647 -0.3073  0.1593
   40MOL   C13530633   4.131   3.540   4.112  0.3737 -0.2693  0.9121
   40MOL   O13630634   4.138   3.421   4.098  0.2140 -0.1047 -0.4293
   40MOL   O13730635   4.066   3.625   4.024 -1.1591  0.1435  0.1623
   40MOL   C13830636   4.173   3.733   4.267  0.2731 -0.3071  0.2797
   40MOL   C13930637   4.233   3.788   4.382  0.5805 -0.1002  0.3656
   40MOL   H14030638   4.815   3.765   4.841  0.5541 -0.1693  0.0506
   40MOL   H14130639   4.901   3.779   4.689 -3.1133  0.6955 -1.4894
   40MOL   H14230640   5.011   3.624   4.867 -1.5301  2.7391  1.0420
   40MOL   H14330641   4.891   3.506   4.845  1.0893 -2.0032 -1.1985
   40MOL   H14430642   5.067   3.602   4.632  0.1873  1.6577  2.2933
   40MOL   H14530643   5.167   3.443   4.793 -0.9287 -0.0034  1.4885
   40MOL   H14630644   5.047   3.327   4.775  1.5616 -1.7987  0.3646
   40MOL   H14730645   4.930   3.451   4.473  0.2697 -1.1816  0.1428
   40MOL   H14830646   4.853   3.395   4.616  0.9766 -0.2944  1.0639
   40MOL   H14930647   4.703   3.557   4.481  0.3598  2.6720 -0.9910
   40MOL   H15030648   4.837   3.663   4.479  0.8441 -0.9639  0.1183
   40MOL   H15130649   4.672   3.598   4.738 -2.5493  1.8620 -0.0472
   40MOL   H15230650   4.602   3.832   4.725 -2.2929 -0.2623 -0.8338
   40MOL   H15330651   4.695   3.843   4.569  0.2503 -0.3063  0.1752
   40MOL   H15430652   4.453   3.527   4.443 -0.4581 -1.5906 -0.8396
   40MOL   H15530653   4.326   3.425   4.260  0.3875  1.6712 -2.7731
   40MOL   H15630654   4.091   3.779   4.213  0.8164  1.3107  0.8003
   40MOL   H15730655   4.216   3.891   4.409  0.3888 -0.3474  1.2004
   40MOL   C15830656   4.142   3.876   3.558 -0.0921  0.6133  0.0306
   40MOL   C15930657   4.091   3.743   3.615  0.2655  0.7885 -0.1725
   40MOL   C16030658   4.164   3.693   3.741  0.4371 -0.5291 -0.3304
   40MOL   C16130659   4.116   3.556   3.798 -0.3750 -0.2299 -0.3698
   40MOL   O16230660   4.016   3.562   3.898  0.4285 -0.1269  0.2587
   40MOL   C16330661   4.319   3.695   3.713 -0.2023  0.1766 -0.7167
   40MOL   C16430662   4.371   3.828   3.665 -0.2809 -0.3825 -0.0292
   40MOL   C16530663   4.293   3.870   3.535 -0.1043  0.3118 -0.1227
   40MOL   C16630664   4.340   4.010   3.476  0.2954  0.1379  0.3585
   40MOL   O16730665   4.473   4.011   3.433 -0.1112  0.0795  0.2460
   40MOL   C16830666   4.530   4.128   3.401 -0.7292  0.2501  0.3910
   40MOL   O16930667   4.477   4.237   3.428  0.1132 -0.1703  0.2562
   40MOL   C17030668   4.665   4.108   3.350 -0.1812 -0.7531 -0.2651
   40MOL   C17130669   4.717   3.979   3.322  0.1280  0.4494 -0.6397
   40MOL   C17230670   4.839   3.971   3.258  0.9320  0.2710  0.0179
   40MOL   C17330671   4.907   4.084   3.220  0.6581 -0.2647 -0.0900
   40MOL   C17430672   5.043   4.059   3.155 -0.9557 -0.4060  0.3908
   40MOL   O17530673   5.092   3.946   3.145  1.2501 -0.0469  0.0188
   40MOL   O17630674   5.104   4.170   3.099 -0.2773  0.0615 -0.0693
   40MOL   C17730675   4.866   4.213   3.259  0.1522  0.2154 -0.6628
   40MOL   C17830676   4.750   4.228   3.329 -0.1053  0.5299 -0.4633
   40MOL   H17930677   4.073   3.906   3.479  1.7737  0.4234 -1.7033
   40MOL   H18030678   4.128   3.951   3.636  3.1725  1.9394 -0.5643
   40MOL   H18130679   3.985   3.750   3.640  0.2143 -0.5725 -0.0069
   40MOL   H18230680   4.110   3.674   3.533  1.0134 -1.0495  1.5076
   40MOL   H18330681   4.146   3.765   3.821  1.7443 -0.7864  0.2047
   40MOL   H18430682   4.077   3.497   3.715  1.3161 -0.3662 -1.0849
   40MOL   H18530683   4.201   3.505   3.842 -1.8523 -2.4257  0.0097
   40MOL   H18630684   4.366   3.667   3.808 -0.8120  3.2891  0.5439
   40MOL   H18730685   4.339   3.617   3.639  0.4774  0.5094 -0.8877
   40MOL   H18830686   4.479   3.821   3.651  0.0712  0.9020  1.8694
   40MOL   H18930687   4.346   3.893   3.749 -1.9099 -1.5610  0.4228
   40MOL   H19030688   4.320   3.795   3.461  3.6854  0.7005  0.7639
   40MOL   H19130689   4.296   4.018   3.376 -1.8781  0.0455  1.2825
   40MOL   H19230690   4.305   4.093   3.537 -2.7972 -1.3961  0.7602
   40MOL   H19330691   4.667   3.889   3.354  0.7741  0.6182  0.9184
   40MOL   H19430692   4.872   3.869   3.243  1.4858  0.3885  0.4196
   40MOL   H19530693   4.920   4.305   3.240 -0.6558  0.8475  0.0130
   40MOL   H19630694   4.725   4.329   3.358 -0.8888  0.7305 -1.8041
   40MOL   C19730695   5.270   4.566   3.048  0.7165 -0.2687 -0.1481
   40MOL   C19830696   5.272   4.418   3.005  0.4546  0.1281 -0.4220
   40MOL   C19930697   5.343   4.336   3.118 -0.2648  0.2017 -0.3447
   40MOL   C20030698   5.341   4.184   3.094  0.3676  0.3131 -0.1705
   40MOL   O20130699   5.236   4.139   3.020  0.0192 -0.0715 -0.1697
   40MOL   C20230700   5.484   4.387   3.156  0.8097  0.6117  0.2382
   40MOL   C20330701   5.480   4.532   3.191 -0.2317  0.1276  0.1585
   40MOL   C20430702   5.409   4.615   3.088 -0.1273  0.3478  0.1284
   40MOL   C20530703   5.405   4.761   3.149  0.4078  0.0875  0.1920
   40MOL   O20630704   5.327   4.848   3.064  0.0487  0.0655  0.1143
   40MOL   C20730705   5.352   4.979   3.075 -1.2089 -0.3603 -0.5014
   40MOL   O20830706   5.459   5.034   3.113 -0.4574 -0.3377  0.4815
   40MOL   C20930707   5.250   5.060   3.011 -0.8905 -0.5366 -0.3938
   40MOL   C21030708   5.120   5.012   2.970 -0.1473 -0.4448 -0.1102
   40MOL   C21130709   5.032   5.106   2.914  0.4670  0.7200 -0.2031
   40MOL   C21230710   5.056   5.241   2.890  0.0270 -0.0470 -0.3843
   40MOL   C21330711   4.956   5.333   2.825  0.8271 -0.2529 -0.0771
   40MOL   O21430712   4.975   5.457   2.823  0.2072  0.3263  0.0824
   40MOL   O21530713   4.841   5.274   2.785 -0.3433 -0.2158 -0.2462
   40MOL   C21630714   5.188   5.279   2.916  0.2069 -0.3952  0.4058
   40MOL   C21730715   5.283   5.197   2.983 -0.2108 -0.0672  0.9433
   40MOL   H21830716   5.234   4.625   2.963  2.1010 -1.8313 -1.8812
   40MOL   H21930717   5.212   4.581   3.138  0.7385  0.0240 -0.1829
   40MOL   H22030718   5.173   4.376   2.983  0.2364  0.1970  0.4052
   40MOL   H22130719   5.327   4.410   2.912  1.2143 -0.0967  0.0452
   40MOL   H22230720   5.284   4.350   3.208 -2.2939 -2.3009 -1.2222
   40MOL   H22330721   5.429   4.147   3.043 -1.1444 -1.7523 -1.3674
   40MOL   H22430722   5.330   4.128   3.187  0.9598  0.0743 -0.2468
   40MOL   H22530723   5.535   4.328   3.232  0.4366 -0.0445 -0.0148
   40MOL   H22630724   5.549   4.371   3.071 -1.9700 -1.8556 -1.5266
   40MOL   H22730725   5.583   4.563   3.212  0.1666  0.2904 -1.9534
   40MOL   H22830726   5.429   4.533   3.288  0.1959  1.4741  0.3855
   40MOL   H22930727   5.468   4.625   2.997  0.4991 -0.7977  0.3938
   40MOL   H23030728   5.366   4.772   3.250  1.5191 -2.2125  0.9095
   40MOL   H23130729   5.508   4.794   3.158  0.8819 -0.5161 -2.4298
   40MOL   H23230730   5.077   4.916   2.993 -1.9972  0.3034 -0.3620
   40MOL   H23330731   4.933   5.067   2.895  1.9128 -2.0448 -2.3618
   40MOL   H23430732   5.221   5.379   2.893 -0.3518  0.0695  1.6277
   40MOL   H23530733   5.378   5.246   2.996 -0.2321 -0.2098  1.6669
   40MOL   C23630734   4.456   5.661   2.557 -0.4705  0.3550 -0.0161
   40MOL   C23730735   4.574   5.593   2.633  0.2794  0.3592  0.1091
   40MOL   C23830736   4.617   5.466   2.561 -0.1349  0.6146  0.1773
   40MOL   C23930737   4.733   5.395   2.619 -0.0870 -0.3669  0.1185
   40MOL   O24030738   4.736   5.374   2.753 -0.3605  0.3258  0.1761
   40MOL   C24130739   4.497   5.362   2.547 -0.0796 -0.9235  0.2008
   40MOL   C24230740   4.374   5.434   2.489  1.4828 -0.5944  0.6762
   40MOL   C24330741   4.332   5.563   2.564 -0.5321 -0.4518 -0.5353
   40MOL   C24430742   4.201   5.640   2.517 -0.2080  0.5412  0.0603
   40MOL   O24530743   4.092   5.547   2.516 -1.1871  0.4204  0.1497
   40MOL   C24630744   3.974   5.562   2.583  0.3926 -0.5355 -0.4290
   40MOL   O24730745   3.958   5.661   2.650 -0.6424 -0.1821 -0.2560
   40MOL   C24830746   3.864   5.458   2.558 -0.0659 -0.7278 -0.3982
   40MOL   C24930747   3.891   5.327   2.524  0.3193 -0.0211  0.0812
   40MOL   C25030748   3.788   5.225   2.510  0.4860 -0.7569  0.5165
   40MOL   C25130749   3.656   5.264   2.532 -0.9574 -0.2976 -0.1690
   40MOL   C25230750   3.551   5.155   2.529 -0.1337 -0.3494 -0.2860
   40MOL   O25330751   3.569   5.044   2.489  0.2470  0.1461 -0.0401
   40MOL   O25430752   3.433   5.178   2.585 -0.3248 -0.2313  0.0594
   40MOL   C25530753   3.629   5.398   2.574 -0.6216 -0.3502  0.1685
   40MOL   C25630754   3.734   5.499   2.582 -0.7319 -0.4614 -0.7401
   40MOL   H25730755   4.424   5.753   2.607 -0.0616 -0.6138  2.1010
   40MOL   H25830756   4.488   5.670   2.453 -0.4012  2.3970  0.1548
   40MOL   H25930757   4.661   5.658   2.638  0.4199  0.2067 -0.3321
   40MOL   H26030758   4.545   5.568   2.735  0.9984 -1.6802 -0.1646
   40MOL   H26130759   4.643   5.494   2.459 -2.3374  1.9206 -0.0348
   40MOL   H26230760   4.738   5.296   2.575 -0.1121 -1.1230  1.7891
   40MOL   H26330761   4.826   5.442   2.586  0.1939 -2.8649 -2.9133
   40MOL   H26430762   4.522   5.276   2.485  0.7992  0.2939 -1.1889
   40MOL   H26530763   4.462   5.322   2.642  2.8675  0.1611  1.7790
   40MOL   H26630764   4.289   5.366   2.487  0.4742  0.6767 -0.5617
   40MOL   H26730765   4.394   5.455   2.383  0.6210  2.8709  1.1438
   40MOL   H26830766   4.316   5.541   2.670  0.0741  0.2383 -0.2997
   40MOL   H26930767   4.192   5.722   2.588  0.8311  1.9628 -1.4243
   40MOL   H27030768   4.206   5.692   2.422 -0.5661  3.1108  1.3950
   40MOL   H27130769   3.994   5.297   2.513  0.1350 -1.3400  1.8172
   40MOL   H27230770   3.819   5.125   2.485  0.8755 -0.8629  1.3983
   40MOL   H27330771   3.528   5.436   2.578 -0.2967  0.3871  1.7562
   40MOL   H27430772   3.710   5.600   2.612  0.1191 -0.0904 -1.2834
   40MOL   C27530773   3.191   4.660   2.856 -0.1148 -0.6322 -0.1617
   40MOL   C27630774   3.248   4.803   2.858 -0.2573  0.1532  0.3168
   40MOL   C27730775   3.262   4.865   2.717 -0.0162  0.0314  0.4764
   40MOL   C27830776   3.343   4.996   2.716 -0.1817 -0.1830 -0.1929
   40MOL   O27930777   3.335   5.063   2.589  0.0843 -0.3206 -0.3334
   40MOL   C28030778   3.342   4.767   2.627 -0.2649  0.4160  0.3692
   40MOL   C28130779   3.276   4.629   2.632 -0.3348  0.1604 -0.3081
   40MOL   C28230780   3.265   4.565   2.763  0.1370  0.0705 -0.3001
   40MOL   C28330781   3.205   4.428   2.751  0.1118  0.2787 -0.3057
   40MOL   O28430782   3.200   4.347   2.870  0.0788 -0.0791  0.4775
   40MOL   C28530783   3.275   4.237   2.895  0.6139 -0.7777 -0.4820
   40MOL   O28630784   3.364   4.192   2.825  0.4807  0.6336  0.0600
   40MOL   C28730785   3.230   4.167   3.018 -0.5573 -0.2969  0.9504
   40MOL   C28830786   3.135   4.233   3.100 -0.9310  0.1830 -0.4087
   40MOL   C28930787   3.102   4.175   3.223  0.4336  0.3161  0.1250
   40MOL   C29030788   3.144   4.049   3.262 -0.1418  0.0474 -0.6712
   40MOL   C29130789   3.092   3.977   3.382  0.2624  0.3114 -0.0337
   40MOL   O29230790   3.131   3.867   3.429 -0.1324 -0.3916  0.1157
   40MOL   O29330791   2.979   4.031   3.435 -0.1214  0.0735  0.1637
   40MOL   C29430792   3.229   3.975   3.173 -0.5465 -0.6091  0.2255
   40MOL   C29530793   3.269   4.034   3.051 -0.4461 -0.3704  0.8115
   40MOL   H29630794   3.201   4.616   2.956  0.1255 -3.2094 -1.2824
   40MOL   H29730795   3.083   4.648   2.843  0.2257 -2.5561 -1.3429
   40MOL   H29830796   3.177   4.866   2.912 -1.4005 -0.0250 -0.9478
   40MOL   H29930797   3.341   4.808   2.916 -0.3937  1.6467  0.4483
   40MOL   H30030798   3.166   4.883   2.668 -0.0620  2.8491  1.5691
   40MOL   H30130799   3.309   5.068   2.790 -1.4130  0.3001 -1.2188
   40MOL   H30230800   3.446   4.988   2.751 -0.5820  0.1369  1.0949
   40MOL   H30330801   3.339   4.801   2.524 -2.2006 -0.3984  0.1281
   40MOL   H30430802   3.444   4.762   2.663 -0.5171  0.8048  1.1496
   40MOL   H30530803   3.346   4.574   2.571  2.0327  1.1160  1.4743
   40MOL   H30630804   3.181   4.630   2.578 -0.5802  0.9207  0.1149
   40MOL   H30730805   3.356   4.547   2.821 -1.4122  1.0636  2.5541
   40MOL   H30830806   3.108   4.430   2.701  1.4992 -1.5102 -3.1893
   40MOL   H30930807   3.266   4.364   2.687 -0.3470 -0.5841  0.1128
   40MOL   H31030808   3.094   4.330   3.078  0.6192  0.9193 -0.1848
   40MOL   H31130809   3.051   4.235   3.297 -1.1253 -1.0088  0.1366
   40MOL   H31230810   3.257   3.874   3.198  0.4400 -1.1363 -2.8243
   40MOL   H31330811   3.345   3.991   2.988 -0.3443 -0.0380  0.7083
   40MOL   C31430812   2.571   3.877   3.825  0.9272 -1.0310  0.1621
   40MOL   C31530813   2.713   3.870   3.768 -0.2108  0.2089  0.4629
   40MOL   C31630814   2.764   4.006   3.730  0.3644 -0.4054 -0.0298
   40MOL   C31730815   2.904   3.995   3.664  0.3356  0.3696  0.2939
   40MOL   O31830816   2.895   3.946   3.530 -0.6950  0.2250 -0.6297
   40MOL   C31930817   2.665   4.076   3.631  0.2067 -0.4999 -0.4302
   40MOL   C32030818   2.527   4.092   3.686  0.6734  0.3324 -0.2243
   40MOL   C32130819   2.475   3.959   3.742  0.4751  0.1838  0.1894
   40MOL   C32230820   2.344   3.993   3.822 -0.1572 -1.0118  0.4206
   40MOL   O32330821   2.369   4.081   3.934  0.7744  0.3050 -0.3390
   40MOL   C32430822   2.281   4.176   3.962  0.3092 -0.0622  0.5597
   40MOL   O32530823   2.163   4.175   3.921  0.0186  0.2729 -0.7203
   40MOL   C32630824   2.339   4.289   4.050  0.0256 -0.4788  0.3643
   40MOL   C32730825   2.269   4.414   4.060 -0.0331  0.3248 -0.5657
   40MOL   C32830826   2.330   4.521   4.131 -0.5000 -0.4305 -0.1421
   40MOL   C32930827   2.463   4.513   4.173 -0.2360 -0.0242 -0.1355
   40MOL   C33030828   2.519   4.625   4.240 -0.1204  0.2534  0.4086
   40MOL   O33130829   2.621   4.619   4.304  0.3279  0.0716  0.3756
   40MOL   O33230830   2.460   4.734   4.227 -0.3108 -0.3208  0.0929
   40MOL   C33330831   2.529   4.388   4.161 -0.0086  0.2659  0.2834
   40MOL   C33430832   2.464   4.278   4.102 -1.0226  1.3931 -0.2800
   40MOL   H33530833   2.536   3.774   3.829 -3.6081  0.3627 -0.4404
   40MOL   H33630834   2.579   3.926   3.922  0.5828  1.1088 -0.8703
   40MOL   H33730835   2.782   3.818   3.835  0.2134 -0.4688 -0.4948
   40MOL   H33830836   2.712   3.810   3.677 -3.6014 -0.9898  1.1856
   40MOL   H33930837   2.768   4.060   3.825 -0.7498  0.2135 -0.3126
   40MOL   H34030838   2.954   4.092   3.666  0.7573  0.1440  0.6166
   40MOL   H34130839   2.970   3.936   3.726  0.9228  0.4150 -0.2781
   40MOL   H34230840   2.704   4.177   3.616  1.4475 -0.8082  0.6287
   40MOL   H34330841   2.657   4.022   3.536 -0.2304 -1.7950  0.3358
   40MOL   H34430842   2.454   4.123   3.611 -1.7919 -0.0741  1.9162
   40MOL   H34530843   2.520   4.176   3.756  1.8275  0.2671 -0.0136
   40MOL   H34630844   2.439   3.896   3.661  1.8933 -0.7575  0.2851
   40MOL   H34730845   2.268   4.029   3.752 -1.5556  0.7267  2.7479
   40MOL   H34830846   2.295   3.902   3.858 -0.8575 -1.3039 -1.2194
   40MOL   H34930847   2.168   4.417   4.024 -0.5589 -0.6593  0.7919
   40MOL   H35030848   2.265   4.606   4.145  0.2699  0.0682  0.3954
   40MOL   H35130849   2.626   4.365   4.203  0.1940 -0.8247 -0.7528
   40MOL   H35230850   2.508   4.180   4.112 -0.2819  1.7822  0.3407
   40MOL   C35330851   2.326   4.565   4.720 -0.3615  0.2769 -0.0142
   40MOL   C35430852   2.309   4.697   4.650 -0.3931 -0.3393 -0.2477
   40MOL   C35530853   2.415   4.718   4.544  0.4130  0.1434 -0.6922
   40MOL   C35630854   2.381   4.833   4.441 -0.7631  0.8778  0.1682
   40MOL   O35730855   2.486   4.837   4.336  0.2145 -0.2501  0.1429
   40MOL   C35830856   2.546   4.741   4.623  0.6887  0.3578  0.4497
   40MOL   C35930857   2.585   4.615   4.704  0.5515 -0.3952 -0.0359
   40MOL   C36030858   2.462   4.573   4.798  0.5198  0.3452  0.6022
   40MOL   C36130859   2.487   4.438   4.867 -0.5277 -0.0060 -0.2569
   40MOL   O36230860   2.614   4.428   4.936  0.0535  0.1330 -0.1484
   40MOL   C36330861   2.622   4.484   5.059  0.3906  0.2022 -0.0648
   40MOL   O36430862   2.536   4.563   5.097 -0.0603  0.2229 -0.2967
   40MOL   C36530863   2.722   4.424   5.148 -0.1109  0.1884  0.0867
   40MOL   C36630864   2.810   4.319   5.101 -0.2048 -0.3545  0.0562
   40MOL   C36730865   2.912   4.274   5.184  0.5428 -0.8868 -0.1591
   40MOL   C36830866   2.909   4.311   5.322  0.4395  0.4047  0.3691
   40MOL   C36930867   3.004   4.241   5.413 -0.1922  0.4365 -0.4412
   40MOL   O37030868   3.062   4.136   5.384  0.2622  0.0390 -0.3072
   40MOL   O37130869   3.016   4.297   5.533 -0.1539  0.0888  0.3083
   40MOL   C37230870   2.823   4.415   5.372  0.6342  0.1945  0.1802
   40MOL   C37330871   2.736   4.475   5.278 -0.1481  0.1884  0.1819
   40MOL   H37430872   2.240   4.536   4.779 -0.6932  1.8887  0.3189
   40MOL   H37530873   2.340   4.484   4.648  1.7357 -0.5536  1.2653
   40MOL   H37630874   2.209   4.701   4.608 -0.6051  0.6031  0.3443
   40MOL   H37730875   2.300   4.785   4.714 -0.9823  2.4898 -4.0197
   40MOL   H37830876   2.416   4.617   4.502 -1.4898 -1.4188  2.7240
   40MOL   H37930877   2.281   4.811   4.404 -0.4935  1.0547 -0.6709
   40MOL   H38030878   2.373   4.926   4.498  1.8328  2.4287 -1.9274
   40MOL   H38130879   2.623   4.768   4.550 -0.4948  2.1436 -0.1540
   40MOL   H38230880   2.529   4.829   4.685 -1.8719 -0.0423  0.3474
   40MOL   H38330881   2.669   4.632   4.770 -0.3260 -1.2685  1.3257
   40MOL   H38430882   2.608   4.526   4.645 -1.7879 -0.8977 -0.2374
   40MOL   H38530883   2.448   4.651   4.873  0.2489  0.8925 -0.0102
   40MOL   H38630884   2.400   4.422   4.931 -0.0837  3.2998  1.3156
   40MOL   H38730885   2.487   4.362   4.789 -0.8697 -1.8430  1.5029
   40MOL   H38830886   2.807   4.274   5.003  1.8232  1.8525 -1.0605
   40MOL   H38930887   2.986   4.205   5.146 -0.2973 -1.2019 -1.2549
   40MOL   H39030888   2.833   4.459   5.470  4.1031  0.0063 -0.0351
   40MOL   H39130889   2.667   4.547   5.318  0.4041 -1.1474  3.7310
   40MOL   C39230890   2.852   4.353   5.985  0.1063 -0.5193 -0.0142
   40MOL   C39330891   2.886   4.321   5.839 -0.1967  0.5936  0.5328
   40MOL   C39430892   2.970   4.192   5.833 -0.4574  0.6417  0.1529
   40MOL   C39530893   3.007   4.129   5.701 -0.0503 -0.2065  0.2581
   40MOL   O39630894   3.100   4.208   5.626  0.1387 -0.2734  0.2640
   40MOL   C39730895   3.103   4.210   5.912  0.2450 -0.0017  0.7149
   40MOL   C39830896   3.071   4.256   6.058  0.3732 -0.3836 -0.2146
   40MOL   C39930897   2.979   4.383   6.071 -0.1601  0.2484 -0.1707
   40MOL   C40030898   2.943   4.430   6.214  0.3064  0.0432 -0.1541
   40MOL   O40130899   3.052   4.501   6.277 -0.2446 -0.1963  0.3737
   40MOL   C40230900   3.036   4.570   6.394  0.7944  0.2439 -0.5261
   40MOL   O40330901   2.937   4.569   6.465 -0.4620  0.4185  0.5741
   40MOL   C40430902   3.149   4.660   6.416 -0.2679 -0.3631  0.8044
   40MOL   C40530903   3.251   4.680   6.312  0.1106 -0.2127 -0.1624
   40MOL   C40630904   3.349   4.774   6.330 -0.0104 -1.0468  0.0806
   40MOL   C40730905   3.359   4.847   6.450  0.5669  0.1032  0.2633
   40MOL   C40830906   3.468   4.946   6.467  0.2082 -0.2015 -0.3007
   40MOL   O40930907   3.464   5.036   6.556 -0.3828 -0.0767 -0.2825
   40MOL   O41030908   3.557   4.938   6.365 -0.3975  0.1875 -0.1303
   40MOL   C41130909   3.269   4.817   6.554  0.2312  0.4082 -0.0213
   40MOL   C41230910   3.165   4.723   6.542  0.2655  0.7802  0.1150
   40MOL   H41330911   2.779   4.434   5.988  0.3541 -0.2868 -0.2455
   40MOL   H41430912   2.803   4.269   6.032 -0.7399 -0.3247 -0.5439
   40MOL   H41530913   2.798   4.284   5.786  1.4216  0.0498 -1.8137
   40MOL   H41630914   2.927   4.402   5.779 -0.7333 -0.0267 -0.6754
   40MOL   H41730915   2.909   4.111   5.873  1.2275 -0.0795  1.3259
   40MOL   H41830916   3.053   4.033   5.724 -0.2225  0.0421  1.6882
   40MOL   H41930917   2.920   4.106   5.638 -0.4142  0.6316  0.4547
   40MOL   H42030918   3.153   4.113   5.909  0.4212  0.1174 -0.2106
   40MOL   H42130919   3.169   4.279   5.861  2.3667 -2.7489 -0.3832
   40MOL   H42230920   3.152   4.281   6.127  0.5083 -2.9338  0.6047
   40MOL   H42330921   3.020   4.169   6.100  1.0634 -1.9362 -2.4500
   40MOL   H42430922   3.031   4.464   6.019  0.5475 -0.2696 -0.2739
   40MOL   H42530923   2.870   4.511   6.213  1.7081  1.4093  2.4105
   40MOL   H42630924   2.919   4.348   6.281  0.4683 -0.1629 -0.3490
   40MOL   H42730925   3.259   4.640   6.212 -0.5586  1.1630 -0.7766
   40MOL   H42830926   3.410   4.799   6.244  0.1363 -3.1974 -0.4723
   40MOL   H42930927   3.288   4.864   6.650  1.0796  2.9091 -1.3808
   40MOL   H43030928   3.091   4.707   6.619  1.0263  1.1646  0.9329
   40MOL   C43130929   3.768   5.471   6.359 -0.0581 -0.0275  0.0337
   40MOL   C43230930   3.733   5.329   6.403  0.3704  0.7603  0.3072
   40MOL   C43330931   3.813   5.224   6.333  0.4714 -0.1093 -0.6580
   40MOL   C43430932   3.749   5.086   6.366 -0.4867 -0.0801  0.0163
   40MOL   O43530933   3.612   5.074   6.322  0.3900 -0.9633 -0.1892
   40MOL   C43630934   3.808   5.252   6.181 -0.1073  0.7244 -0.7104
   40MOL   C43730935   3.819   5.395   6.133  0.0675  0.4427  0.2874
   40MOL   C43830936   3.722   5.487   6.214 -0.1856  0.3797  0.2824
   40MOL   C43930937   3.731   5.633   6.161 -0.8827 -0.4280 -1.0098
   40MOL   O44030938   3.667   5.641   6.035  0.0392  0.6570 -0.2322
   40MOL   C44130939   3.543   5.685   6.034 -0.1851  0.5672 -0.6369
   40MOL   O44230940   3.485   5.730   6.130  0.7501  0.3895  0.0864
   40MOL   C44330941   3.482   5.683   5.897 -0.4777 -0.1748  0.0274
   40MOL   C44430942   3.541   5.611   5.788 -0.0727 -0.8512 -0.3673
   40MOL   C44530943   3.483   5.620   5.660  0.5896 -0.0607 -0.3036
   40MOL   C44630944   3.357   5.685   5.641 -0.1892 -0.5059  0.3222
   40MOL   C44730945   3.303   5.701   5.504 -0.5053  0.2421  0.0418
   40MOL   O44830946   3.202   5.761   5.471  0.0557 -0.0611  0.1943
   40MOL   O44930947   3.371   5.625   5.416  0.3944  0.3563  0.1032
   40MOL   C45030948   3.294   5.756   5.749  0.9407 -0.0003 -1.1924
   40MOL   C45130949   3.361   5.758   5.874  0.8586  1.1738  0.3337
   40MOL   H45230950   3.715   5.538   6.426 -0.7808 -0.2615 -0.2994
   40MOL   H45330951   3.875   5.491   6.372 -0.0461 -0.0082 -0.0910
   40MOL   H45430952   3.729   5.322   6.511  1.8953  0.7916  0.3697
   40MOL   H45530953   3.626   5.315   6.387  0.6766 -1.6541  0.1760
   40MOL   H45630954   3.913   5.232   6.377  0.3566  2.2383 -0.7448
   40MOL   H45730955   3.807   5.006   6.321  1.1520  1.6314 -1.0053
   40MOL   H45830956   3.753   5.069   6.474 -1.2467  0.7089  0.1789
   40MOL   H45930957   3.888   5.203   6.126  1.6619  0.4251  2.0468
   40MOL   H46030958   3.722   5.201   6.137  0.9603 -0.7552 -1.1003
   40MOL   H46130959   3.784   5.404   6.030 -3.2775  0.9230  1.3942
   40MOL   H46230960   3.921   5.433   6.145 -0.5654  1.7563  1.7385
   40MOL   H46330961   3.615   5.466   6.205 -0.1512 -0.8789  2.4456
   40MOL   H46430962   3.692   5.712   6.225 -1.5135  0.6785 -2.7518
   40MOL   H46530963   3.837   5.655   6.151 -0.9544  1.7082  2.1301
   40MOL   H46630964   3.634   5.557   5.785  1.0508  0.9552  0.8707
   40MOL   H46730965   3.527   5.564   5.579 -0.0623 -0.3175 -0.4833
   40MOL   H46830966   3.194   5.797   5.747 -0.5957 -3.4395  0.8820
   40MOL   H46930967   3.311   5.805   5.957  1.1090  2.1179 -0.0444
   40MOL   C47030968   3.286   5.418   4.888 -0.1145  0.4813 -0.3622
   40MOL   C47130969   3.329   5.466   5.036 -0.0573  0.5035  0.7415
   40MOL   C47230970   3.284   5.609   5.060  0.6214  0.1315  0.2625
   40MOL   C47330971   3.337   5.656   5.195  0.4709 -0.0426 -0.6202
   40MOL   O47430972   3.290   5.583   5.301  0.8713  0.0709  0.2736
   40MOL   C47530973   3.328   5.704   4.949 -0.3694  0.3362 -0.3248
   40MOL   C47630974   3.276   5.659   4.813 -0.1317  0.3123 -0.3473
   40MOL   C47730975   3.318   5.518   4.778 -0.0023  0.2499 -0.2580
   40MOL   C47830976   3.265   5.468   4.636  0.2358 -0.7221  0.3018
   40MOL   O47930977   3.124   5.485   4.635 -0.1713 -0.1106 -0.6056
   40MOL   C48030978   3.064   5.468   4.514  0.1609 -0.2432  0.3514
   40MOL   O48130979   3.122   5.439   4.412  0.2133  0.0257  0.2947
   40MOL   C48230980   2.910   5.500   4.515 -0.4483 -0.8977  0.0647
   40MOL   C48330981   2.846   5.555   4.631 -0.3475 -0.2977  0.4065
   40MOL   C48430982   2.715   5.597   4.632  0.4758 -0.6504 -0.1020
   40MOL   C48530983   2.641   5.588   4.517 -0.2641 -0.3729  0.3424
   40MOL   C48630984   2.502   5.635   4.512 -0.1439 -0.1521  0.2181
   40MOL   O48730985   2.424   5.611   4.423 -0.0009  0.3559 -0.2160
   40MOL   O48830986   2.482   5.707   4.619 -0.2074 -0.4447  0.5559
   40MOL   C48930987   2.696   5.527   4.404  0.1013 -0.0900 -0.3708
   40MOL   C49030988   2.830   5.495   4.398 -0.3987  0.2496 -0.2860
   40MOL   H49130989   3.350   5.334   4.863  1.2056  1.7230 -1.1776
   40MOL   H49230990   3.185   5.377   4.887 -0.4749  1.3692 -1.1894
   40MOL   H49330991   3.298   5.392   5.110  0.1063 -1.1218 -0.7812
   40MOL   H49430992   3.437   5.459   5.044 -0.0979 -0.0798  0.8193
   40MOL   H49530993   3.176   5.616   5.079  0.8652 -1.3075  2.3693
   40MOL   H49630994   3.446   5.654   5.204  0.2874 -1.6817  1.6472
   40MOL   H49730995   3.305   5.759   5.213  0.2502 -0.1510 -0.3931
   40MOL   H49830996   3.288   5.802   4.972 -1.5746  0.1345 -1.5166
   40MOL   H49930997   3.437   5.702   4.946 -0.3929  0.7610 -1.7531
   40MOL   H50030998   3.327   5.724   4.741 -1.6087  0.7119 -1.0425
   40MOL   H50130999   3.169   5.672   4.796 -0.5724 -2.3169  0.1443
   40MOL   H50231000   3.426   5.514   4.762  0.2823 -3.8696  1.8175
   40MOL   H50331001   3.299   5.542   4.564 -1.8627  1.0600  1.0614
   40MOL   H50431002   3.282   5.362   4.619 -1.0721 -0.8954 -0.0199
   40MOL   H50531003   2.899   5.546   4.724  2.3291 -0.0587 -1.0550
   40MOL   H50631004   2.683   5.625   4.731  2.5039 -1.3110  0.7621
   40MOL   H50731005   2.633   5.517   4.316  0.1033  0.2060 -0.4067
   40MOL   H50831006   2.871   5.452   4.308  0.7263 -1.0101  0.7977
   40MOL   C50931007   2.335   5.540   5.096 -0.1078 -0.0481 -0.6741
   40MOL   C51031008   2.264   5.556   4.962  0.0805 -0.2195 -0.3074
   40MOL   C51131009   2.337   5.653   4.868  0.1599  0.0253  0.1355
   40MOL   C51231010   2.274   5.671   4.730  0.1442  0.6534 -0.8058
   40MOL   O51331011   2.346   5.760   4.639 -0.0978 -0.2102 -0.2624
   40MOL   C51431012   2.379   5.782   4.936 -0.6026 -0.3507 -0.0323
   40MOL   C51531013   2.458   5.750   5.060  0.6020 -0.2695  0.4564
   40MOL   C51631014   2.381   5.670   5.162  0.2657 -0.8188 -0.6156
   40MOL   C51731015   2.469   5.637   5.277  0.2370 -0.0688 -0.4817
   40MOL   O51831016   2.412   5.627   5.409  0.0054  0.5031 -0.0813
   40MOL   C51931017   2.376   5.503   5.454 -0.2799  0.8260  0.3881
   40MOL   O52031018   2.394   5.405   5.382 -0.7063 -0.5058  0.2658
   40MOL   C52131019   2.321   5.497   5.589  0.3291  0.0335 -0.3593
   40MOL   C52231020   2.305   5.611   5.666 -0.2264  0.2073 -0.5957
   40MOL   C52331021   2.244   5.601   5.795 -0.7046 -0.0755  0.0991
   40MOL   C52431022   2.198   5.481   5.844  0.3034  0.2988 -0.6155
   40MOL   C52531023   2.130   5.459   5.977  0.4438  0.0909  0.3962
   40MOL   O52631024   2.105   5.342   6.020 -0.6014  0.5472  0.0042
   40MOL   O52731025   2.106   5.567   6.047 -0.2216 -0.2249  0.2840
   40MOL   C52831026   2.212   5.366   5.759  0.1729 -0.5276  0.3021
   40MOL   C52931027   2.278   5.373   5.636  0.5785 -0.8386  0.4418
   40MOL   H53031028   2.259   5.487   5.153 -0.4574 -1.2884 -2.2408
   40MOL   H53131029   2.415   5.469   5.075 -0.6309 -1.0389  0.6561
   40MOL   H53231030   2.253   5.458   4.915  1.6462 -0.8037  0.5118
   40MOL   H53331031   2.165   5.594   4.987 -0.5965 -1.0856 -1.6428
   40MOL   H53431032   2.437   5.613   4.854  0.6488  1.9853 -2.3090
   40MOL   H53531033   2.267   5.572   4.684 -2.0702  0.5291 -0.2603
   40MOL   H53631034   2.179   5.722   4.744  0.5222  1.0059  0.5267
   40MOL   H53731035   2.427   5.857   4.872 -1.3126  0.6385  0.5831
   40MOL   H53831036   2.297   5.846   4.968  0.9698  0.0595  3.3656
   40MOL   H53931037   2.493   5.841   5.108 -1.6586 -0.7884  3.1713
   40MOL   H54031038   2.553   5.703   5.035 -0.0206 -1.9426  1.1800
   40MOL   H54131039   2.284   5.718   5.180  0.9391  0.9560 -1.6414
   40MOL   H54231040   2.522   5.552   5.235 -1.8697 -1.8939  0.4245
   40MOL   H54331041   2.540   5.717   5.293 -0.1666  1.0848 -4.1220
   40MOL   H54431042   2.342   5.700   5.616 -0.4822 -1.1852 -3.3389
   40MOL   H54531043   2.229   5.686   5.861  0.6468 -0.1989  0.5655
   40MOL   H54631044   2.180   5.267   5.787 -2.0250 -0.0230 -0.3618
   40MOL   H54731045   2.285   5.289   5.568 -0.7508 -1.0238  0.5004
   40MOL   C54831046   1.840   5.535   6.559  0.2911  0.2651  0.7475
   40MOL   C54931047   1.923   5.583   6.436  0.0532 -0.1368 -1.0349
   40MOL   C55031048   2.056   5.499   6.419 -0.1088  0.7606  0.8074
   40MOL   C55131049   2.123   5.537   6.286 -0.2613 -0.6214  0.5280
   40MOL   O55231050   2.033   5.527   6.175  0.0508 -0.5659  0.3062
   40MOL   C55331051   2.143   5.506   6.538  0.4087 -0.4466 -0.3985
   40MOL   C55431052   2.063   5.462   6.666 -0.6933 -0.1761  0.1179
   40MOL   C55531053   1.925   5.526   6.688 -0.1363  0.0394  0.1707
   40MOL   C55631054   1.848   5.455   6.804 -0.0132  0.1464  0.8974
   40MOL   O55731055   1.907   5.461   6.929  0.0610 -0.3456 -0.2111
   40MOL   C55831056   1.993   5.366   6.982  0.8703 -0.6355  0.2661
   40MOL   O55931057   2.027   5.271   6.915  0.2950  0.0869  0.6951
   40MOL   C56031058   2.021   5.385   7.127 -0.2910 -0.1492 -0.6011
   40MOL   C56131059   1.955   5.479   7.208  0.2647  0.3284 -0.2824
   40MOL   C56231060   1.984   5.492   7.343  0.1874 -0.0351 -0.5666
   40MOL   C56331061   2.077   5.395   7.404  0.5376  0.5988  0.3526
   40MOL   C56431062   2.092   5.403   7.556 -0.1058  0.0791 -0.3098
   40MOL   O56531063   2.038   5.501   7.616 -0.0521  0.5627 -0.0073
   40MOL   O56631064   2.145   5.290   7.617 -0.3815  0.0610 -0.4885
   40MOL   C56731065   2.147   5.306   7.325  0.4301 -0.0960 -0.2071
   40MOL   C56831066   2.118   5.296   7.184  0.0021  0.5740 -0.3276
   40MOL   H56931067   1.754   5.601   6.561 -0.2100 -0.3466 -0.3765
   40MOL   H57031068   1.809   5.433   6.536  0.1588  0.7483 -1.2525
   40MOL   H57131069   1.866   5.589   6.343 -0.6697 -0.5318 -0.6209
   40MOL   H57231070   1.942   5.689   6.454  0.7515 -0.4379  0.0948
   40MOL   H57331071   2.022   5.396   6.414 -0.4287  0.8953  0.1615
   40MOL   H57431072   2.163   5.639   6.287  0.4493 -0.9049  0.9385
   40MOL   H57531073   2.209   5.476   6.258 -2.5431 -2.7927 -2.0294
   40MOL   H57631074   2.237   5.452   6.525  0.9753  1.4258 -5.1336
   40MOL   H57731075   2.176   5.609   6.555  2.3747 -0.7928 -1.9894
   40MOL   H57831076   2.122   5.486   6.755  0.4513  2.3580 -1.2628
   40MOL   H57931077   2.043   5.355   6.660  0.8642 -0.4303 -0.6221
   40MOL   H58031078   1.930   5.630   6.722 -2.9730  0.6254 -1.0072
   40MOL   H58131079   1.756   5.513   6.804 -0.5150 -0.5509 -2.1741
   40MOL   H58231080   1.827   5.349   6.789  1.5915 -0.5904  3.6604
   40MOL   H58331081   1.881   5.548   7.169  0.8480  1.3822  0.4216
   40MOL   H58431082   1.935   5.572   7.397  0.7230 -0.1005  0.0160
   40MOL   H58531083   2.218   5.240   7.372  0.7137 -0.7552 -1.5130
   40MOL   H58631084   2.158   5.214   7.126 -0.8546  1.6086 -2.4321
   40MOL   C58731085   2.130   5.041   0.070 -0.0110 -0.5223  0.4983
   40MOL   C58831086   2.121   5.083   7.957  0.7225 -0.4435 -0.7669
   40MOL   C58931087   2.015   5.201   7.943 -0.7604  0.0978 -0.9586
   40MOL   C59031088   2.004   5.247   7.796 -0.0508  0.4909 -0.3722
   40MOL   O59131089   2.133   5.293   7.763 -0.0227 -0.8229  0.2524
   40MOL   C59231090   1.874   5.161   7.995 -1.0631 -0.2297 -0.0067
   40MOL   C59331091   1.878   5.099   0.103 -0.5860  0.2644  0.1331
   40MOL   C59431092   1.985   4.981   0.112 -0.7112  0.3569 -0.2580
   40MOL   C59531093   1.991   4.926   0.255  0.6974  0.3312 -0.2185
   40MOL   O59631094   1.865   4.867   0.288 -0.1345  0.2885 -0.4911
   40MOL   C59731095   1.850   4.731   0.317  0.4016  0.1883 -0.5754
   40MOL   O59831096   1.943   4.650   0.327 -0.0116 -0.4000  0.0334
   40MOL   C59931097   1.711   4.677   0.324  1.0447  0.3471 -0.2778
   40MOL   C60031098   1.608   4.743   0.259 -0.7017  0.1097  0.3537
   40MOL   C60131099   1.473   4.709   0.283 -0.5341  0.1520 -0.2678
   40MOL   C60231100   1.447   4.590   0.356 -0.6595 -0.2869  0.5801
   40MOL   C60331101   1.307   4.540   0.381  0.2197  0.4416  0.2701
   40MOL   O60431102   1.208   4.606   0.355 -0.1588 -0.4649  0.5676
   40MOL   O60531103   1.290   4.425   0.440  0.2654  0.8334 -0.2553
   40MOL   C60631104   1.559   4.519   0.411 -0.0890  0.7309 -0.1969
   40MOL   C60731105   1.692   4.558   0.396  0.1418 -0.4024 -0.1834
   40MOL   H60831106   2.202   4.960   0.083  0.2220 -0.4942 -0.5995
   40MOL   H60931107   2.162   5.122   0.136  2.9885 -0.7792 -0.5795
   40MOL   H61031108   2.221   5.118   7.930  1.5122 -1.0536  1.2670
   40MOL   H61131109   2.087   5.002   7.893 -1.4000 -0.9775  1.0180
   40MOL   H61231110   2.053   5.282   8.005 -1.0334 -0.1377 -0.4815
   40MOL   H61331111   1.982   5.168   7.725 -0.2519 -0.0788  0.3232
   40MOL   H61431112   1.932   5.328   7.786 -2.2249 -0.9511  2.9564
   40MOL   H61531113   1.804   5.245   7.998 -0.3743  0.3619 -0.4577
   40MOL   H61631114   1.832   5.085   7.929 -2.0079 -1.1509  1.6224
   40MOL   H61731115   1.781   5.052   0.117  0.7777 -3.0497 -0.8715
   40MOL   H61831116   1.888   5.173   0.182  3.3038 -1.4330  1.3942
   40MOL   H61931117   1.954   4.901   0.045  1.2201  0.1406 -0.9364
   40MOL   H62031118   2.076   4.859   0.271 -0.2672 -0.8883 -0.1641
   40MOL   H62131119   2.016   5.010   0.320 -0.0634  2.0118 -2.0490
   40MOL   H62231120   1.627   4.839   0.214 -0.9801  0.7885  1.6427
   40MOL   H62331121   1.397   4.765   0.230  0.0326  1.6874  0.5066
   40MOL   H62431122   1.545   4.425   0.464 -1.0007  0.4618 -0.9142
   40MOL   H62531123   1.773   4.520   0.457  1.3802  2.4350  0.0447
   40MOL   C62631124   0.865   4.020   0.308  0.4804  0.1884  0.4673
   40MOL   C62731125   0.971   4.127   0.272 -0.3509  0.1054 -0.9942
   40MOL   C62831126   0.987   4.217   0.390 -0.9099 -0.5259 -0.2209
   40MOL   C62931127   1.094   4.324   0.356 -0.3997 -0.2750 -0.3997
   40MOL   O63031128   1.148   4.389   0.468  0.2272  0.5519  0.0549
   40MOL   C63131129   0.856   4.281   0.426  0.0423  0.0451  0.3875
   40MOL   C63231130   0.743   4.187   0.454 -0.7463  0.0523 -0.2096
   40MOL   C63331131   0.730   4.081   0.343 -0.1348  0.6252  0.4503
   40MOL   C63431132   0.630   3.965   0.373  0.1458  0.8278  0.1277
   40MOL   O63531133   0.491   4.019   0.375  0.2277  0.6901  0.4962
   40MOL   C63631134   0.419   3.981   0.271  0.6680  0.7607  0.6875
   40MOL   O63731135   0.449   3.882   0.195 -0.0613  0.0851 -0.1749
   40MOL   C63831136   0.287   4.044   0.264  0.3782 -0.3355 -0.5943
   40MOL   C63931137   0.274   4.179   0.296 -0.7780  1.2503 -0.0350
   40MOL   C64031138   0.149   4.245   0.293  1.2551 -0.7378  0.2186
   40MOL   C64131139   0.033   4.178   0.260 -0.5378  0.0474 -0.5138
   40MOL   C64231140   7.942   4.253   0.232  0.1812 -0.3403 -0.0713
   40MOL   O64331141   7.834   4.201   0.215 -0.3939 -0.1340  0.3381
   40MOL   O64431142   7.959   4.384   0.226 -0.0934  0.0335 -0.0076
   40MOL   C64531143   0.046   4.039   0.224  0.9677 -0.8589 -0.2724
   40MOL   C64631144   0.171   3.981   0.226 -0.0998  0.4595 -0.0041
   40MOL   H64731145   0.855   3.956   0.220 -2.6923 -0.6463  1.3858
   40MOL   H64831146   0.896   3.956   0.390 -2.1190  0.3433  1.6079
   40MOL   H64931147   1.068   4.078   0.260  0.9605  2.0396  1.2266
   40MOL   H65031148   0.952   4.171   0.174  1.8727  1.5324 -0.8403
   40MOL   H65131149   1.027   4.160   0.474  0.7878  0.5674 -0.2782
   40MOL   H65231150   1.178   4.268   0.315 -0.7170  0.3790 -1.9817
   40MOL   H65331151   1.070   4.398   0.279  1.5551  1.4474  0.5628
   40MOL   H65431152   0.869   4.346   0.512 -2.7020  1.1477  0.0199
   40MOL   H65531153   0.823   4.342   0.342 -0.3701 -0.3315  0.2734
   40MOL   H65631154   0.649   4.234   0.481 -1.1673 -1.0365  0.2258
   40MOL   H65731155   0.774   4.145   0.549 -1.5901 -1.8886 -0.7506
   40MOL   H65831156   0.687   4.138   0.260 -0.8195 -0.7398 -0.1460
   40MOL   H65931157   0.643   3.880   0.306 -0.0351  2.2544 -1.7602
   40MOL   H66031158   0.649   3.919   0.470  1.2308  2.0214  0.5001
   40MOL   H66131159   0.366   4.230   0.318 -0.5575  1.4024 -1.2667
   40MOL   H66231160   0.154   4.350   0.316 -0.0011 -0.6612  0.1977
   40MOL   H66331161   7.991   3.985   0.200 -0.5881  0.4437  2.4914
   40MOL   H66431162   0.177   3.879   0.190  0.8196  1.2799 -2.2599
   40MOL   C66531163   0.154   4.698   8.007 -0.2389 -0.2130  0.6865
   40MOL   C66631164   0.053   4.585   8.017 -0.4743  0.3914  0.3261
   40MOL   C66731165   7.953   4.621   0.037 -0.4147  0.4559  0.1331
   40MOL   C66831166   7.858   4.504   0.050  0.2117 -0.0383 -0.6584
   40MOL   O66931167   7.838   4.458   0.185  0.0925  0.5859  0.3403
   40MOL   C67031168   7.978   4.699   0.172  0.0213 -1.3514 -0.3020
   40MOL   C67131169   0.053   4.807   0.165  0.1564 -0.3886 -0.1026
   40MOL   C67231170   0.178   4.749   0.112 -1.0175 -1.3386  0.5190
   40MOL   C67331171   0.297   4.848   0.127 -0.0504 -0.3397  0.5218
   40MOL   O67431172   0.281   4.962   0.041  0.7274 -0.3535 -0.9128
   40MOL   C67531173   0.367   4.971   7.977  0.5290 -0.0923  0.0169
   40MOL   O67631174   0.423   4.874   7.926  0.2939  0.1296 -0.0729
   40MOL   C67731175   0.375   5.104   7.921 -0.3297 -0.1275  0.3750
   40MOL   C67831176   0.484   5.123   7.826  0.3447 -0.0626  0.6421
   40MOL   C67931177   0.526   5.250   7.784 -0.5335  0.4940 -0.5492
   40MOL   C68031178   0.457   5.364   7.828 -0.7181 -0.3012 -0.1365
   40MOL   C68131179   0.515   5.495   7.798 -0.3567 -0.0081  0.5727
   40MOL   O68231180   0.609   5.510   7.717 -0.3798  0.0987  0.4118
   40MOL   O68331181   0.464   5.593   7.871 -0.4322 -0.1193 -0.1340
   40MOL   C68431182   0.346   5.347   7.918 -0.7907 -0.6555  0.4662
   40MOL   C68531183   0.303   5.219   7.959 -0.5151 -0.2629 -0.0111
   40MOL   H68631184   0.248   4.654   7.973  0.5432  2.7789 -1.1070
   40MOL   H68731185   0.117   4.779   7.945 -2.8900 -0.3058  2.0426
   40MOL   H68831186   0.039   4.541   7.919 -3.2154  1.1256  0.3514
   40MOL   H68931187   0.108   4.510   0.038  0.2369 -0.4991 -1.5207
   40MOL   H69031188   7.913   4.692   8.000  0.4222  1.0673  0.2722
   40MOL   H69131189   7.759   4.548   0.038  0.0170  0.6444  2.8971
   40MOL   H69231190   7.866   4.427   8.009 -0.9246 -1.1405  0.3184
   40MOL   H69331191   7.886   4.752   0.195  0.2388 -1.1228  0.0536
   40MOL   H69431192   8.011   4.633   0.252  1.3173 -0.1615  0.1788
   40MOL   H69531193   0.068   4.861   0.258  1.4252  0.1739 -0.6227
   40MOL   H69631194   0.027   4.891   0.100  0.0591 -0.3945 -0.0711
   40MOL   H69731195   0.200   4.665   0.178 -1.9535 -1.0995  1.1523
   40MOL   H69831196   0.326   4.872   0.230 -0.4218  1.0387  0.3122
   40MOL   H69931197   0.392   4.798   0.109 -0.0670  0.3235 -1.5481
   40MOL   H70031198   0.547   5.042   7.793  2.0996  2.1337 -1.6279
   40MOL   H70131199   0.613   5.271   7.725  0.2388 -1.4597 -0.1630
   40MOL   H70231200   0.288   5.430   7.954  1.0987  0.9362 -0.0526
   40MOL   H70331201   0.229   5.200   8.034  0.4527 -1.2102  0.7210
   40MOL   C70431202   0.902   6.030   7.931 -0.1864 -0.2334 -0.1813
   40MOL   C70531203   0.821   5.912   7.989  0.1689 -0.3508 -0.4765
   40MOL   C70631204   0.688   5.883   7.914 -0.0579  0.2919  0.2562
   40MOL   C70731205   0.608   5.756   7.951 -0.2104 -0.1772  0.4216
   40MOL   O70831206   0.519   5.729   7.841  0.0710  0.2330  0.0575
   40MOL   C70931207   0.594   6.009   7.912 -0.2598 -0.1566 -0.7801
   40MOL   C71031208   0.680   6.123   7.851 -0.5553 -0.2398  0.4399
   40MOL   C71131209   0.812   6.158   7.926 -0.1122  0.6034  0.6020
   40MOL   C71231210   0.894   6.270   7.866  0.4334  0.4127 -0.3713
   40MOL   O71331211   0.831   6.390   7.889 -0.6333  0.1955  0.4229
   40MOL   C71431212   0.884   6.503   7.828 -0.1019 -0.0297  0.1214
   40MOL   O71531213   0.990   6.497   7.773 -0.0788 -0.4393  0.4820
   40MOL   C71631214   0.804   6.624   7.862 -0.2857 -0.4380 -0.1205
   40MOL   C71731215   0.676   6.617   7.927  0.1921 -0.3849 -0.1240
   40MOL   C71831216   0.605   6.736   7.953 -0.1375  0.3037  0.0721
   40MOL   C71931217   0.664   6.863   7.925 -0.2971  0.3224 -0.3578
   40MOL   C72031218   0.595   6.989   7.957  0.1791 -0.5949  0.2848
   40MOL   O72131219   0.468   6.999   7.965  0.0910 -0.4076  0.0830
   40MOL   O72231220   0.683   7.096   7.966  0.1611 -0.0564 -0.2567
   40MOL   C72331221   0.792   6.869   7.876 -0.0381 -0.0052  0.0698
   40MOL   C72431222   0.860   6.749   7.836 -0.2547 -0.7175  0.3640
   40MOL   H72531223   0.993   6.031   7.991 -0.7526 -1.3846  0.6981
   40MOL   H72631224   0.936   5.994   7.834 -1.0573 -2.2021  0.2269
   40MOL   H72731225   0.877   5.819   7.987 -1.1811 -1.1642 -0.5694
   40MOL   H72831226   0.805   5.942   0.057  2.8378  1.0183 -0.4068
   40MOL   H72931227   0.713   5.870   7.809 -2.5310  3.1638 -0.7769
   40MOL   H73031228   0.679   5.675   7.960 -1.2339 -1.0857  0.3663
   40MOL   H73131229   0.550   5.755   0.008 -2.0272  2.1356 -0.6321
   40MOL   H73231230   0.499   5.986   7.864 -0.4469 -0.8048 -0.1098
   40MOL   H73331231   0.567   6.041   8.012  1.8816  1.7434 -0.7541
   40MOL   H73431232   0.635   6.221   7.838 -1.2607 -0.6094  0.1079
   40MOL   H73531233   0.708   6.101   7.748 -0.4119  1.2292  0.1483
   40MOL   H73631234   0.777   6.176   8.028  0.2741 -1.4014  1.1146
   40MOL   H73731235   0.993   6.272   7.910 -0.0242 -0.2885  0.6941
   40MOL   H73831236   0.908   6.262   7.758 -1.0063  2.1681 -0.7201
   40MOL   H73931237   0.644   6.527   7.977 -1.2993  0.1744 -0.0244
   40MOL   H74031238   0.512   6.723   8.006  0.3942 -0.4172  0.8439
   40MOL   H74131239   0.841   6.963   7.858  0.6110 -0.4229 -0.3823
   40MOL   H74231240   0.960   6.755   7.795 -1.0573  2.1110 -1.3117
   40MOL   C74331241   0.515   7.516   0.352  0.2146 -0.8200 -0.6682
   40MOL   C74431242   0.559   7.379   0.311  0.1442 -0.0994 -0.4536
   40MOL   C74531243   0.548   7.367   0.159  1.0223 -0.6583  0.1856
   40MOL   C74631244   0.608   7.235   0.112  0.1036  0.1689  0.3236
   40MOL   O74731245   0.628   7.233   8.005  0.4464  0.4882  0.1808
   40MOL   C74831246   0.408   7.389   0.110  0.5700  0.7090  0.5044
   40MOL   C74931247   0.356   7.533   0.156  0.2321  0.2072 -0.2657
   40MOL   C75031248   0.364   7.533   0.314  0.6357  0.0599 -0.3111
   40MOL   C75131249   0.303   7.667   0.374  0.4701 -0.0665  0.0383
   40MOL   O75231250   0.284   7.661   0.519  0.1227  0.2935  0.2769
   40MOL   C75331251   0.170   7.614   0.567 -0.7351  0.1135 -0.0141
   40MOL   O75431252   0.065   7.593   0.505 -0.2727  0.4314 -0.0009
   40MOL   C75531253   0.173   7.575   0.706  0.2161  0.2816 -0.3293
   40MOL   C75631254   0.299   7.549   0.774  1.0271  0.3077  0.0195
   40MOL   C75731255   0.297   7.517   0.910 -0.0397 -0.5497  0.8170
   40MOL   C75831256   0.172   7.503   0.983  1.0688 -0.6068  0.2369
   40MOL   C75931257   0.165   7.472   1.129 -0.7893 -0.2507 -0.1131
   40MOL   O76031258   0.054   7.450   1.182  0.0301  0.5927  0.2886
   40MOL   O76131259   0.282   7.450   1.191  0.6968  0.0652  0.7222
   40MOL   C76231260   0.049   7.520   0.913 -0.4601  0.3422  0.0230
   40MOL   C76331261   0.053   7.553   0.777 -0.7637 -0.2912 -0.6341
   40MOL   H76431262   0.518   7.523   0.460 -1.6121 -1.6658 -0.5336
   40MOL   H76531263   0.566   7.607   0.319 -1.9189  0.5227 -0.3571
   40MOL   H76631264   0.658   7.361   0.350 -0.5385  0.2303  1.4659
   40MOL   H76731265   0.503   7.299   0.360 -0.8037  0.6139 -0.3548
   40MOL   H76831266   0.602   7.446   0.108 -1.5373  0.2210 -1.2764
   40MOL   H76931267   0.709   7.228   0.154  0.3417 -0.5714 -0.3618
   40MOL   H77031268   0.549   7.150   0.145  1.5190 -1.1754 -0.5877
   40MOL   H77131269   0.412   7.391   0.001  0.8311  1.4826  0.5227
   40MOL   H77231270   0.343   7.309   0.145 -0.6920  0.9875 -1.1700
   40MOL   H77331271   0.252   7.540   0.124 -0.4903 -1.2342  1.6575
   40MOL   H77431272   0.413   7.622   0.131  0.6167 -0.6464 -2.5640
   40MOL   H77531273   0.311   7.446   0.352 -0.0529  1.9525  3.3244
   40MOL   H77631274   0.379   7.741   0.351  0.5294  0.1626  0.9559
   40MOL   H77731275   0.208   7.688   0.326 -1.4068 -1.1346  3.1307
   40MOL   H77831276   0.390   7.573   0.721 -0.6713 -0.0610 -3.1737
   40MOL   H77931277   0.388   7.502   0.965  0.1549 -0.1511  0.6020
   40MOL   H78031278   7.987   7.517   0.959  0.3880  2.7364  2.0411
   40MOL   H78131279   8.000   7.578   0.721 -0.7242  1.5043  0.0863
   40MOL   H78231280   0.266   7.395   1.266  0.6229 -1.5770 -0.4823
   41MOL     C131281   3.612   0.056   7.607  0.5645  0.3863  0.5874
   41MOL     C231282   3.500   0.131   7.535 -0.1323 -0.3525 -0.3987
   41MOL     C331283   3.558   0.265   7.490 -0.4335  0.3210 -0.5459
   41MOL     C431284   3.463   0.332   7.398 -0.4923 -0.2894 -0.3337
   41MOL     O531285   3.514   0.450   7.337  0.3195  0.0392  0.4040
   41MOL     C631286   3.598   0.351   7.607 -0.0635 -0.2699 -0.2297
   41MOL     C731287   3.695   0.278   7.699 -0.2808 -0.1459 -0.6791
   41MOL     C831288   3.651   0.136   7.738  0.9318  0.3767  0.6146
   41MOL     C931289   3.757   0.053   7.822 -0.1578  0.0161  0.9943
   41MOL    O1031290   3.884   0.045   7.758  0.4480 -0.5353  0.6698
   41MOL    C1131291   3.990   0.120   7.787  0.2945 -0.1262 -0.0904
   41MOL    O1231292   4.010   0.170   7.892  0.6521  0.3947  0.4296
   41MOL    C1331293   4.086   0.120   7.673  0.1128 -0.0563  0.8817
   41MOL    C1431294   4.100   0.015   7.576  0.4302  0.5682  0.0028
   41MOL    C1531295   4.209   0.027   7.480  0.1685 -0.0701 -0.2775
   41MOL    C1631296   4.295   0.139   7.484  0.2225  0.2621  0.9646
   41MOL    C1731297   4.402   0.146   7.381 -0.6848  0.4654 -0.3095
   41MOL    O1831298   4.426   0.046   7.306 -0.2961  0.3003 -0.5079
   41MOL    O1931299   4.463   0.271   7.374 -0.4255 -0.4559 -0.5314
   41MOL    C2031300   4.275   0.241   7.575 -0.4228 -0.2355 -0.3304
   41MOL    C2131301   4.172   0.227   7.670  0.2682 -0.1689 -0.0120
   41MOL    H2231302   3.571   7.997   7.641 -1.8514  1.3796  0.5230
   41MOL    H2331303   3.698   0.038   7.543 -0.4138 -0.5706 -0.4774
   41MOL    H2431304   3.491   0.069   7.447  4.5389 -1.5373 -0.1884
   41MOL    H2531305   3.405   0.130   7.589 -0.1902  0.6894 -0.4672
   41MOL    H2631306   3.650   0.243   7.436 -0.2051 -1.4560  0.4961
   41MOL    H2731307   3.424   0.276   7.313 -0.3039  1.1938 -1.4216
   41MOL    H2831308   3.372   0.352   7.455 -1.5074  0.1367 -2.0605
   41MOL    H2931309   3.646   0.440   7.565 -0.7043  0.8460  1.3865
   41MOL    H3031310   3.514   0.375   7.672  0.3672  0.6454 -0.0034
   41MOL    H3131311   3.717   0.331   7.791  1.7328 -1.0324 -0.6318
   41MOL    H3231312   3.785   0.262   7.639 -0.6716 -3.0154 -0.6053
   41MOL    H3331313   3.563   0.152   7.800  0.1221 -0.0023 -0.4210
   41MOL    H3431314   3.771   0.094   7.922  0.6972 -0.9359  1.2627
   41MOL    H3531315   3.717   7.988   7.829 -1.2284  0.1145 -2.6276
   41MOL    H3631316   4.042   7.960   7.583  3.6392 -1.7167 -1.3706
   41MOL    H3731317   4.222   7.981   7.410 -0.5265  0.3151 -0.8669
   41MOL    H3831318   4.349   0.319   7.586 -1.3545  0.5417  0.5775
   41MOL    H3931319   4.149   0.311   7.734 -0.9428 -0.8697  0.4958
   41MOL    H4031320   3.594   0.477   7.379 -0.1807 -1.1136  2.1316
   41MOL    C4131321   4.999   0.257   7.091 -0.4253  0.3143  0.5519
   41MOL    C4231322   4.910   0.254   7.214 -0.3572 -0.3303  0.4539
   41MOL    C4331323   4.763   0.287   7.178 -0.8187  0.2542  0.4748
   41MOL    C4431324   4.685   0.294   7.308 -0.0011  0.6588 -0.0339
   41MOL    O4531325   4.554   0.294   7.257 -0.3335 -0.1797 -0.0693
   41MOL    C4631326   4.757   0.427   7.105 -0.7085  0.1246 -0.0984
   41MOL    C4731327   4.834   0.413   6.974  0.9451  0.4175 -0.0997
   41MOL    C4831328   4.985   0.387   7.007  0.0696 -0.6183  0.2631
   41MOL    C4931329   5.062   0.384   6.866  0.3774 -0.7723  0.5546
   41MOL    O5031330   5.202   0.427   6.879  0.0042  0.0925 -0.5371
   41MOL    C5131331   5.300   0.346   6.898 -0.0831 -0.3171 -0.3893
   41MOL    O5231332   5.278   0.223   6.916  0.6457 -0.1836 -0.2194
   41MOL    C5331333   5.432   0.411   6.915 -1.2603  1.1824  0.7269
   41MOL    C5431334   5.534   0.356   6.993  0.3345 -0.2105  0.6014
   41MOL    C5531335   5.658   0.413   6.994 -0.4395  0.2283  0.0477
   41MOL    C5631336   5.690   0.532   6.920  0.1450 -0.0228  0.3471
   41MOL    C5731337   5.824   0.593   6.915  0.8785  0.1160  0.0579
   41MOL    O5831338   5.851   0.704   6.859  0.3318 -0.0319  0.5790
   41MOL    O5931339   5.920   0.518   6.966  0.8316 -0.3741  0.2690
   41MOL    C6031340   5.586   0.589   6.842 -0.8551 -0.3675 -0.9075
   41MOL    C6131341   5.459   0.531   6.840 -0.2052 -0.2635 -0.1010
   41MOL    H6231342   5.103   0.257   7.124 -0.2744 -0.5043  0.0867
   41MOL    H6331343   4.986   0.180   7.015  1.2547  1.8109 -1.3262
   41MOL    H6431344   4.904   0.150   7.247 -0.6644 -0.8329 -1.1342
   41MOL    H6531345   4.945   0.304   7.304  0.5409 -1.5240  0.7755
   41MOL    H6631346   4.727   0.207   7.114  2.5943 -0.1661 -1.0540
   41MOL    H6731347   4.702   0.207   7.371 -0.4772  0.9592  0.5060
   41MOL    H6831348   4.698   0.391   7.356 -0.2617  1.6655 -1.9404
   41MOL    H6931349   4.656   0.454   7.074 -0.5201  0.5176 -0.3789
   41MOL    H7031350   4.795   0.515   7.158 -1.3028  0.3137  0.0148
   41MOL    H7131351   4.826   0.499   6.908  2.2158 -0.5205 -1.5219
   41MOL    H7231352   4.787   0.333   6.915 -2.0314  2.1790 -0.2172
   41MOL    H7331353   5.011   0.480   7.058 -2.0513  0.8972 -1.3004
   41MOL    H7431354   5.062   0.282   6.827  0.4069 -0.5834  0.0611
   41MOL    H7531355   5.021   0.450   6.790 -1.6348 -1.0483  1.3695
   41MOL    H7631356   5.509   0.265   7.046 -0.0125 -0.8474 -0.6338
   41MOL    H7731357   5.730   0.369   7.061 -1.5017 -2.0881 -0.2700
   41MOL    H7831358   5.601   0.677   6.782  1.0657  0.7162  1.0988
   41MOL    H7931359   5.382   0.573   6.778 -0.0511 -0.5506 -0.4866
   41MOL    C8031360   6.464   0.531   6.659 -0.2039  0.1465 -0.6680
   41MOL    C8131361   6.322   0.472   6.674  0.2364 -0.1348 -0.2227
   41MOL    C8231362   6.257   0.517   6.806 -0.3479  0.3910  0.1828
   41MOL    C8331363   6.108   0.473   6.831  1.4655  0.0748  0.3838
   41MOL    O8431364   6.058   0.567   6.930  0.5393 -0.1272 -0.2500
   41MOL    C8531365   6.343   0.459   6.914  0.0303 -0.0888  0.0072
   41MOL    C8631366   6.492   0.509   6.900 -0.0240 -0.1400  0.4737
   41MOL    C8731367   6.563   0.488   6.762  0.1635  0.0892  0.2949
   41MOL    C8831368   6.694   0.567   6.742  0.1811  0.0518 -0.5326
   41MOL    O8931369   6.804   0.520   6.824  0.0635  0.0682 -0.6194
   41MOL    C9031370   6.829   0.575   6.946  0.0140 -0.3413 -0.4665
   41MOL    O9131371   6.766   0.671   7.001 -0.3403 -0.5321 -0.0184
   41MOL    C9231372   6.938   0.509   7.010  1.2534 -0.6373 -0.5634
   41MOL    C9331373   6.984   0.382   6.970 -0.5202  1.0371  0.3374
   41MOL    C9431374   7.092   0.321   7.040 -0.1107  0.2332 -0.1667
   41MOL    C9531375   7.160   0.386   7.150 -0.3582 -0.2582 -0.0465
   41MOL    C9631376   7.272   0.322   7.214  0.5430 -0.1805 -0.4208
   41MOL    O9731377   7.319   0.219   7.168 -0.1704  0.0995  0.0462
   41MOL    O9831378   7.314   0.385   7.334 -0.6311  0.0391  0.3900
   41MOL    C9931379   7.110   0.512   7.188 -1.2326 -0.5067  0.2229
   41MOL   C10031380   6.996   0.565   7.123  0.5558 -0.3178 -0.7133
   41MOL   H10131381   6.506   0.516   6.560  2.6589  0.1898  0.4928
   41MOL   H10231382   6.442   0.637   6.676  1.8739  0.0023  3.4865
   41MOL   H10331383   6.260   0.518   6.597  2.8228  1.8936 -1.1836
   41MOL   H10431384   6.321   0.364   6.667  0.2915 -0.1888  0.6569
   41MOL   H10531385   6.257   0.626   6.810  3.3683  0.4095  0.8943
   41MOL   H10631386   6.054   0.469   6.736 -0.2111  0.7897  1.2794
   41MOL   H10731387   6.097   0.367   6.856  1.9544 -0.4184 -1.4581
   41MOL   H10831388   6.317   0.491   7.015 -0.3315  2.4807 -0.8457
   41MOL   H10931389   6.331   0.351   6.913  0.3991 -0.1280 -0.0012
   41MOL   H11031390   6.553   0.458   6.974  0.1691  1.5968  1.5385
   41MOL   H11131391   6.488   0.617   6.916  1.4604 -0.1861  1.2048
   41MOL   H11231392   6.577   0.381   6.747  2.8596  0.2668  1.2361
   41MOL   H11331393   6.724   0.546   6.640 -1.6709  1.8205 -1.4825
   41MOL   H11431394   6.683   0.670   6.775 -1.0886 -1.1912  3.2363
   41MOL   H11531395   6.949   0.321   6.888  1.1101  0.1203  0.3058
   41MOL   H11631396   7.126   0.221   7.020  0.8468  0.8556 -1.7199
   41MOL   H11731397   7.161   0.569   7.264 -1.1164 -0.4153  0.0767
   41MOL   H11831398   6.970   0.667   7.147 -0.0519 -0.2439 -1.6668
   41MOL   C11931399   7.428   0.112   7.870 -0.1161 -0.1828 -0.3105
   41MOL   C12031400   7.351   0.146   7.743  0.5569  0.2079 -0.1548
   41MOL   C12131401   7.435   0.205   7.631  0.1872 -0.9580 -0.1002
   41MOL   C12231402   7.349   0.270   7.527 -0.0104 -0.3143 -0.0657
   41MOL   O12331403   7.413   0.311   7.407  0.4391 -0.3612 -0.4175
   41MOL   C12431404   7.553   0.295   7.671  0.8468 -0.0155  0.4799
   41MOL   C12531405   7.619   0.263   7.813 -0.2866 -0.5711  0.3044
   41MOL   C12631406   7.512   0.233   7.924 -0.0086 -0.3973  0.0322
   41MOL   C12731407   7.588   0.206   0.025 -0.1754  0.1905 -0.6045
   41MOL   O12831408   7.496   0.190   0.136 -0.6096 -0.0345  0.0320
   41MOL   C12931409   7.551   0.154   0.258  0.5083 -0.1030  0.2484
   41MOL   O13031410   7.668   0.124   0.280 -0.9310 -0.2033 -1.2181
   41MOL   C13131411   7.446   0.143   0.367  0.1249 -0.1512  0.2206
   41MOL   C13231412   7.310   0.196   0.346  0.1693  0.1706 -0.7686
   41MOL   C13331413   7.223   0.178   0.456  0.5197  0.4146  0.3410
   41MOL   C13431414   7.256   0.120   0.578 -0.0968  0.4436  0.0326
   41MOL   C13531415   7.155   0.099   0.680 -0.1336 -0.3116  0.1203
   41MOL   O13631416   7.176   0.060   0.793  0.2676 -0.4997  0.5154
   41MOL   O13731417   7.026   0.110   0.645  0.0651  0.1371 -0.0135
   41MOL   C13831418   7.384   0.075   0.596  0.0448  0.0295  0.3420
   41MOL   C13931419   7.475   0.085   0.490  0.5160 -0.0883 -0.5179
   41MOL   H14031420   7.342   0.083   7.930 -0.0137 -2.5026 -1.2537
   41MOL   H14131421   7.485   0.019   7.859 -0.0758 -0.2202  0.1981
   41MOL   H14231422   7.287   0.064   7.711  0.1071  0.1093  0.9482
   41MOL   H14331423   7.280   0.228   7.756 -0.8468 -1.1135  0.8040
   41MOL   H14431424   7.478   0.120   7.578  0.9532 -0.6776  0.0660
   41MOL   H14531425   7.272   0.207   7.481 -2.0734  2.6535 -0.8510
   41MOL   H14631426   7.305   0.355   7.580 -0.9473 -0.6008 -0.3665
   41MOL   H14731427   7.633   0.304   7.597 -0.2357 -0.9112 -0.8128
   41MOL   H14831428   7.513   0.397   7.670 -2.7315 -1.3463  0.0813
   41MOL   H14931429   7.688   0.344   7.836  1.2103 -1.7694  0.1334
   41MOL   H15031430   7.687   0.179   7.801 -0.8024 -0.8594 -0.6319
   41MOL   H15131431   7.454   0.325   7.928  0.2401 -0.2846  1.1459
   41MOL   H15231432   7.653   0.118   0.025  0.8964  0.9150  2.4264
   41MOL   H15331433   7.655   0.290   0.043 -1.6486  0.7676  2.6276
   41MOL   H15431434   7.292   0.265   0.266  0.3086 -1.5991 -2.3673
   41MOL   H15531435   7.125   0.223   0.450  0.4780  0.2719 -0.0908
   41MOL   H15631436   7.412   0.030   0.690 -1.6836 -0.7785  0.4949
   41MOL   H15731437   7.575   0.050   0.509  0.1290 -0.3026  1.2696
   41MOL   C15831438   6.658   7.856   0.988  0.1110 -0.4488 -0.1540
   41MOL   C15931439   6.783   7.913   0.912  0.7478 -0.1778 -0.5738
   41MOL   C16031440   6.813   7.869   0.771 -0.5172 -0.2149 -0.1476
   41MOL   C16131441   6.933   7.936   0.704  0.3072  0.5095  0.0786
   41MOL   O16231442   6.937   0.041   0.738  0.4560 -0.2754  0.4667
   41MOL   C16331443   6.815   7.716   0.773  0.3262 -0.2484 -0.1473
   41MOL   C16431444   6.693   7.654   0.843 -0.1785 -0.3810  0.3570
   41MOL   C16531445   6.675   7.707   0.988 -0.3200  0.3341 -0.1468
   41MOL   C16631446   6.545   7.646   1.043  0.5030  0.1602 -0.2759
   41MOL   O16731447   6.524   7.669   1.184  0.2251 -0.1251  0.3996
   41MOL   C16831448   6.425   7.596   1.250 -0.0730  0.9412  1.0649
   41MOL   O16931449   6.383   7.491   1.201 -0.6571  0.2189 -0.0248
   41MOL   C17031450   6.403   7.636   1.384  0.5527 -0.8031 -0.1310
   41MOL   C17131451   6.280   7.595   1.439 -0.3241 -0.2377  1.4428
   41MOL   C17231452   6.255   7.625   1.573  0.0300 -0.3467  0.4306
   41MOL   C17331453   6.352   7.698   1.648 -0.4568 -0.6461  0.1874
   41MOL   C17431454   6.320   7.717   1.795 -0.2030 -0.1347  0.2909
   41MOL   O17531455   6.203   7.722   1.832 -0.3497 -0.2939 -0.3369
   41MOL   O17631456   6.437   7.732   1.874  0.4396 -0.0844  0.4906
   41MOL   C17731457   6.470   7.756   1.590 -0.2210 -1.0306  0.0497
   41MOL   C17831458   6.495   7.724   1.456 -0.1207 -0.1188  0.2018
   41MOL   H17931459   6.662   7.879   1.094 -0.2494 -0.2536 -0.1823
   41MOL   H18031460   6.564   7.884   0.942 -0.3489 -0.9036  0.4974
   41MOL   H18131461   6.788   8.022   0.913  0.6844 -0.1423 -2.1700
   41MOL   H18231462   6.868   7.893   0.977  1.7207 -0.1350 -1.8211
   41MOL   H18331463   6.727   7.896   0.710  0.2553  3.6140  0.3042
   41MOL   H18431464   7.022   7.883   0.738 -1.0606 -1.9562 -0.0788
   41MOL   H18531465   6.926   7.916   0.597 -4.0565  0.0217  0.3693
   41MOL   H18631466   6.814   7.682   0.670 -3.2674 -1.1689  0.1428
   41MOL   H18731467   6.905   7.674   0.818  0.3809  0.2676  0.2323
   41MOL   H18831468   6.704   7.546   0.854  1.1318 -0.4883 -1.6889
   41MOL   H18931469   6.605   7.668   0.781 -0.1993 -1.0785  0.2219
   41MOL   H19031470   6.761   7.682   1.049  0.6271  2.6474 -0.4673
   41MOL   H19131471   6.453   7.662   0.988 -0.5295 -0.7712  1.1215
   41MOL   H19231472   6.550   7.538   1.025 -1.2959  0.2755 -1.6256
   41MOL   H19331473   6.203   7.549   1.379  0.2857 -0.7103  1.0245
   41MOL   H19431474   6.172   7.578   1.623 -0.3583  1.1520  1.2334
   41MOL   H19531475   6.547   7.813   1.640 -2.4656  0.1825  2.2224
   41MOL   H19631476   6.591   7.749   1.413 -0.5148 -0.5433 -0.9515
   41MOL   C19731477   6.641   7.630   2.391 -0.1117  0.0353  0.1004
   41MOL   C19831478   6.607   7.642   2.240 -0.2014 -0.3662 -0.4678
   41MOL   C19931479   6.461   7.598   2.216  0.1270 -1.0864 -0.5950
   41MOL   C20031480   6.426   7.605   2.072  0.0553  0.3953 -0.1747
   41MOL   O20131481   6.412   7.731   2.019  0.0978 -0.1072 -0.0130
   41MOL   C20231482   6.443   7.451   2.263 -0.5752  0.6249  0.5954
   41MOL   C20331483   6.469   7.448   2.410  0.8486 -0.2339 -0.2890
   41MOL   C20431484   6.610   7.492   2.444  0.5796 -0.2533  0.0267
   41MOL   C20531485   6.635   7.494   2.600  0.4062  0.4412 -0.2259
   41MOL   O20631486   6.770   7.532   2.633  0.0043  0.1199  0.0412
   41MOL   C20731487   6.829   7.466   2.728 -0.3771 -0.3747  0.1316
   41MOL   O20831488   6.791   7.379   2.810  0.3133  0.2042  0.0012
   41MOL   C20931489   6.966   7.517   2.734  0.3873 -0.1909 -0.4704
   41MOL   C21031490   7.062   7.469   2.828  0.2273  0.1092 -0.0023
   41MOL   C21131491   7.197   7.504   2.825  0.3159  0.4877 -0.4569
   41MOL   C21231492   7.246   7.594   2.729 -0.3665 -0.2321 -0.8434
   41MOL   C21331493   7.390   7.634   2.737 -0.8241 -0.0608  0.4227
   41MOL   O21431494   7.459   7.656   2.838  0.6488 -0.2605 -1.0372
   41MOL   O21531495   7.434   7.648   2.618  0.6597 -0.1851 -0.4307
   41MOL   C21631496   7.152   7.660   2.639 -0.4227 -0.5107 -0.4240
   41MOL   C21731497   7.013   7.620   2.646 -0.4075  0.0159  0.2575
   41MOL   H21831498   6.747   7.654   2.401  0.4311 -0.8810 -2.9316
   41MOL   H21931499   6.587   7.706   2.448 -3.4452 -1.5624 -0.7855
   41MOL   H22031500   6.632   7.742   2.207  1.1934 -0.5528  0.0082
   41MOL   H22131501   6.671   7.584   2.174 -0.9446 -2.7980  0.8511
   41MOL   H22231502   6.379   7.653   2.262  2.1291  0.3633  1.3396
   41MOL   H22331503   6.504   7.550   2.019  0.2866 -2.3062  2.8561
   41MOL   H22431504   6.333   7.554   2.047  0.1742 -1.0069  2.1119
   41MOL   H22531505   6.342   7.419   2.239 -0.9269  1.0324  1.5260
   41MOL   H22631506   6.524   7.395   2.215 -0.0405  1.9603 -0.0968
   41MOL   H22731507   6.454   7.352   2.460  0.6790  0.0475  0.2085
   41MOL   H22831508   6.406   7.520   2.462  0.4509 -2.9617  3.2302
   41MOL   H22931509   6.687   7.424   2.407  0.7108  0.5397 -1.1895
   41MOL   H23031510   6.561   7.564   2.640 -0.0456  0.4557 -1.0809
   41MOL   H23131511   6.621   7.393   2.639 -0.7187  0.2948 -0.9767
   41MOL   H23231512   7.025   7.408   2.908  0.1863  1.3676  0.9564
   41MOL   H23331513   7.261   7.468   2.904  0.6122  2.4281  0.2362
   41MOL   H23431514   7.188   7.723   2.559  3.3798  0.4062  1.8903
   41MOL   H23531515   6.949   7.667   2.572  1.0696  0.1663 -0.9416
   41MOL   C23631516   7.560   7.733   2.178 -0.2717  0.0243 -0.0875
   41MOL   C23731517   7.558   7.759   2.325 -0.2054  0.9067 -0.0253
   41MOL   C23831518   7.447   7.840   2.389  0.2864 -0.1268  0.1995
   41MOL   C23931519   7.482   7.862   2.544  0.3598  0.2510  0.0807
   41MOL   O24031520   7.543   7.748   2.603  0.1981  0.9753  0.1826
   41MOL   C24131521   7.424   7.971   2.307  0.4161 -0.7717  0.0974
   41MOL   C24231522   7.433   7.950   2.155  0.0681  0.0860 -0.7884
   41MOL   C24331523   7.549   7.864   2.098  0.1176  0.0209  0.2427
   41MOL   C24431524   7.542   7.847   1.942 -0.0412  0.2785 -1.3611
   41MOL   O24531525   7.427   7.773   1.907  0.0492 -0.9464  0.0236
   41MOL   C24631526   7.350   7.836   1.816  0.3379  0.2447 -0.0301
   41MOL   O24731527   7.377   7.943   1.768  0.3582  0.0137  0.4765
   41MOL   C24831528   7.215   7.772   1.797 -0.5081  0.5445  0.2063
   41MOL   C24931529   7.127   7.798   1.687  0.1969  0.3606 -0.0469
   41MOL   C25031530   7.000   7.741   1.683  0.5208 -0.2349  0.3091
   41MOL   C25131531   6.954   7.650   1.779 -0.3746 -0.0423  0.2452
   41MOL   C25231532   6.825   7.577   1.762 -0.0560  0.0669  0.1495
   41MOL   O25331533   6.763   7.564   1.653  0.1534  0.2106  0.0825
   41MOL   O25431534   6.777   7.528   1.880 -0.1493 -0.5626 -0.3859
   41MOL   C25531535   7.032   7.632   1.894 -0.2708  0.0998 -1.0494
   41MOL   C25631536   7.161   7.694   1.901 -0.1811 -0.4566  0.7575
   41MOL   H25731537   7.652   7.681   2.152 -0.7279 -1.2860  0.9391
   41MOL   H25831538   7.483   7.663   2.147 -0.2722  0.2317 -0.5713
   41MOL   H25931539   7.572   7.663   2.374 -2.4141  0.9926  0.8402
   41MOL   H26031540   7.653   7.811   2.333  0.7614 -0.9627  0.9032
   41MOL   H26131541   7.358   7.777   2.386  0.5010 -0.3978 -0.6345
   41MOL   H26231542   7.547   7.947   2.560  0.6210  0.4924 -2.1332
   41MOL   H26331543   7.392   7.876   2.604 -1.0240 -1.1595 -1.6082
   41MOL   H26431544   7.325   8.010   2.331  0.5898 -0.9516  1.1485
   41MOL   H26531545   7.500   0.007   2.339 -0.7861 -0.2425  1.8407
   41MOL   H26631546   7.436   0.016   2.113  1.1812  0.7226  0.7790
   41MOL   H26731547   7.342   7.909   2.113  1.4242 -0.6659 -3.0973
   41MOL   H26831548   7.637   7.925   2.116 -0.3707  0.7403  0.2125
   41MOL   H26931549   7.547   7.949   1.904 -0.1694 -0.1060 -2.4273
   41MOL   H27031550   7.629   7.792   1.906  0.9452  0.9682 -0.0749
   41MOL   H27131551   7.158   7.860   1.604 -2.0647 -3.4131 -3.8697
   41MOL   H27231552   6.924   7.776   1.615  0.6612 -0.0132  0.2681
   41MOL   H27331553   7.008   7.556   1.967 -0.0666  0.7751 -0.2669
   41MOL   H27431554   7.218   7.668   1.989  0.9823  0.1410  0.1820
   41MOL   C27531555   6.358   7.119   1.757  0.0293 -0.9679 -0.2368
   41MOL   C27631556   6.463   7.203   1.850  0.5946  0.1689  0.0516
   41MOL   C27731557   6.591   7.216   1.773 -0.4329 -0.1668 -0.8238
   41MOL   C27831558   6.700   7.301   1.851 -0.5900 -0.5627  0.3580
   41MOL   O27931559   6.652   7.435   1.857 -0.6796  0.2693  0.0559
   41MOL   C28031560   6.652   7.084   1.742  0.1654  0.5304 -0.2732
   41MOL   C28131561   6.558   6.993   1.661 -0.6814  0.1273  0.0456
   41MOL   C28231562   6.420   6.980   1.734  0.2704 -0.6098 -0.0516
   41MOL   C28331563   6.325   6.884   1.648 -0.6502 -0.5266 -0.3669
   41MOL   O28431564   6.266   6.965   1.556 -0.5575  0.2761  0.4020
   41MOL   C28531565   6.206   6.913   1.441 -1.0865 -0.0135 -0.1998
   41MOL   O28631566   6.189   6.791   1.426 -0.1668  0.0107  0.5605
   41MOL   C28731567   6.172   7.020   1.340  0.1408 -0.1910 -0.7661
   41MOL   C28831568   6.116   6.975   1.220  0.1925  0.2096 -0.3947
   41MOL   C28931569   6.060   7.068   1.134 -0.0380 -0.0816  0.0196
   41MOL   C29031570   6.078   7.205   1.161 -0.6341 -0.2602 -0.3021
   41MOL   C29131571   6.027   7.306   1.059 -0.1197 -0.2118  1.2425
   41MOL   O29231572   5.965   7.267   0.950 -0.5477  0.0788 -0.2956
   41MOL   O29331573   6.049   7.443   1.089 -0.7274 -0.2864  0.0893
   41MOL   C29431574   6.137   7.251   1.280  0.2008  0.1577 -0.1835
   41MOL   C29531575   6.181   7.158   1.369  0.4789 -0.3372 -0.2447
   41MOL   H29631576   6.267   7.109   1.817 -0.4632  0.4781 -0.7317
   41MOL   H29731577   6.343   7.175   1.665 -2.1031  0.0402  0.6782
   41MOL   H29831578   6.423   7.303   1.863 -0.9498 -0.8523  3.9864
   41MOL   H29931579   6.475   7.169   1.953  2.8774 -0.8161 -0.5129
   41MOL   H30031580   6.573   7.274   1.682  0.4921  0.2435 -0.7464
   41MOL   H30131581   6.727   7.266   1.951  2.1568 -0.2711 -0.2348
   41MOL   H30231582   6.797   7.294   1.802 -0.0650  0.6812  1.1965
   41MOL   H30331583   6.750   7.094   1.697  0.8194  0.2421  1.0523
   41MOL   H30431584   6.669   7.040   1.841 -0.8953  3.0223  1.0776
   41MOL   H30531585   6.604   6.895   1.672  0.6440  0.7941  0.5686
   41MOL   H30631586   6.567   7.022   1.557 -3.1788 -0.9185 -0.4885
   41MOL   H30731587   6.426   6.929   1.830 -3.6383 -1.4442 -0.1686
   41MOL   H30831588   6.390   6.807   1.607  2.3965  1.0879  1.1830
   41MOL   H30931589   6.251   6.824   1.701 -0.0737 -0.2187  0.8243
   41MOL   H31031590   6.107   6.870   1.197  2.4125  0.2138 -1.4101
   41MOL   H31131591   6.025   7.031   1.039  1.2106 -0.2751 -0.3802
   41MOL   H31231592   6.142   7.355   1.309 -0.1427  0.2225 -0.3515
   41MOL   H31331593   6.234   7.188   1.459 -1.0917 -0.3392  0.6915
   41MOL   C31431594   6.067   7.806   0.631 -0.1203 -0.7528  0.4400
   41MOL   C31531595   6.083   7.680   0.722  0.5081  0.2245 -1.2397
   41MOL   C31631596   6.136   7.721   0.859  0.2749  0.0997 -0.4627
   41MOL   C31731597   6.159   7.597   0.949  0.5238 -0.0400  0.1142
   41MOL   O31831598   6.033   7.543   0.981 -0.0357 -0.4533 -0.1313
   41MOL   C31931599   6.259   7.814   0.859 -0.3269 -0.3694  0.1169
   41MOL   C32031600   6.243   7.938   0.769  0.5713 -0.8404 -0.3835
   41MOL   C32131601   6.196   7.895   0.625 -0.3022  0.0700 -0.2320
   41MOL   C32231602   6.174   8.007   0.518 -0.0814  0.7489 -0.6263
   41MOL   O32331603   6.294   0.046   0.516 -0.6957 -0.1564  0.4843
   41MOL   C32431604   6.291   0.167   0.467 -0.1618 -0.8488 -0.2678
   41MOL   O32531605   6.195   0.219   0.412  0.2625  0.2538 -0.5393
   41MOL   C32631606   6.426   0.236   0.477 -0.1168 -0.0878 -0.3940
   41MOL   C32731607   6.435   0.372   0.438 -0.5245 -1.2260 -0.0079
   41MOL   C32831608   6.555   0.440   0.457  0.8076  0.5321  0.0608
   41MOL   C32931609   6.670   0.375   0.508  0.4976 -0.1853  0.0293
   41MOL   C33031610   6.796   0.448   0.531 -0.0407 -1.3179  0.1537
   41MOL   O33131611   6.903   0.394   0.560 -0.5095  0.3455 -0.2328
   41MOL   O33231612   6.794   0.578   0.494 -0.2596 -0.3661  0.4014
   41MOL   C33331613   6.657   0.242   0.543  0.4582 -0.1055 -0.3777
   41MOL   C33431614   6.538   0.168   0.527  0.1556 -0.0071  0.6602
   41MOL   H33531615   6.051   7.777   0.528  1.1553  0.8485 -0.2329
   41MOL   H33631616   5.990   7.877   0.661  1.5449  0.5478  1.7286
   41MOL   H33731617   5.993   7.619   0.724  2.4094 -2.6212  1.6315
   41MOL   H33831618   6.161   7.624   0.670  1.6237 -1.1781  1.8720
   41MOL   H33931619   6.056   7.786   0.894 -0.4215 -2.5747  3.1876
   41MOL   H34031620   6.209   7.525   0.885  0.5544 -0.5029  0.6552
   41MOL   H34131621   6.206   7.633   1.040 -2.4570  0.7853  1.4095
   41MOL   H34231622   6.277   7.845   0.962  0.7066 -1.5997  0.3218
   41MOL   H34331623   6.333   7.745   0.819  2.0510  1.2519  1.6205
   41MOL   H34431624   6.337   7.993   0.772  0.7942 -1.2061 -0.7509
   41MOL   H34531625   6.164   7.994   0.820  1.2043 -0.0756 -0.2350
   41MOL   H34631626   6.275   7.831   0.585  0.3164 -0.5625  1.8907
   41MOL   H34731627   6.147   7.970   0.419 -2.6058  1.8972 -0.4237
   41MOL   H34831628   6.087   0.036   0.534 -0.5373  0.0542 -0.2789
   41MOL   H34931629   6.342   0.414   0.402 -0.0809 -1.4396 -1.4401
   41MOL   H35031630   6.548   0.545   0.432 -0.8045  0.7718  1.4027
   41MOL   H35131631   6.746   0.197   0.586  0.4289  0.2453  0.0458
   41MOL   H35231632   6.534   0.064   0.555  1.6609 -0.3777 -0.4506
   41MOL   C35331633   6.597   0.973   0.470 -0.5300 -0.0012 -0.2546
   41MOL   C35431634   6.669   0.845   0.508 -0.4396 -0.0493 -0.7126
   41MOL   C35531635   6.818   0.873   0.551 -0.1624 -0.1556 -0.2032
   41MOL   C35631636   6.901   0.754   0.607  1.3200  0.1176  0.1414
   41MOL   O35731637   6.922   0.656   0.513  0.0961  0.2199  0.6256
   41MOL   C35831638   6.892   0.932   0.439  0.2714  0.3308  0.1410
   41MOL   C35931639   6.825   1.066   0.386 -0.0883  0.4657  0.0783
   41MOL   C36031640   6.678   1.046   0.357  0.0264  0.1481 -0.0834
   41MOL   C36131641   6.613   1.175   0.307 -0.0666  0.7822 -0.4019
   41MOL   O36231642   6.592   1.262   0.418  0.2222  0.0170 -0.0274
   41MOL   C36331643   6.675   1.358   0.443  0.8768 -0.3868 -0.0501
   41MOL   O36431644   6.768   1.389   0.372  0.0424  0.5688  0.0027
   41MOL   C36531645   6.658   1.423   0.573  0.4111  0.3714  0.4997
   41MOL   C36631646   6.739   1.532   0.602 -0.7777  0.2690 -0.0631
   41MOL   C36731647   6.739   1.589   0.734 -0.1619  0.1981 -0.5592
   41MOL   C36831648   6.638   1.552   0.825 -0.0303  0.8563 -0.3330
   41MOL   C36931649   6.630   1.615   0.960  0.0054 -0.7711  0.0052
   41MOL   O37031650   6.688   1.715   0.995 -0.6165  0.2663 -0.1350
   41MOL   O37131651   6.542   1.555   1.041 -0.8745  0.0197 -0.1203
   41MOL   C37231652   6.552   1.446   0.796  0.6068  0.1902 -0.1382
   41MOL   C37331653   6.564   1.379   0.672 -0.0592  0.0915  0.1621
   41MOL   H37431654   6.495   0.951   0.438  0.1424 -0.9236 -1.8018
   41MOL   H37531655   6.588   1.042   0.554  2.5930 -0.6106  0.6445
   41MOL   H37631656   6.617   0.800   0.593  0.3703  0.5258  0.0981
   41MOL   H37731657   6.672   0.778   0.422 -0.7992 -0.3237 -0.5094
   41MOL   H37831658   6.818   0.943   0.635 -2.1571  0.7176 -0.8868
   41MOL   H37931659   6.998   0.787   0.645  2.1661 -2.1677  0.0486
   41MOL   H38031660   6.846   0.713   0.691  0.6559  1.6793  0.4790
   41MOL   H38131661   6.998   0.935   0.464  0.2003 -0.3400  0.5188
   41MOL   H38231662   6.886   0.862   0.356  1.2403  0.2776  0.1127
   41MOL   H38331663   6.874   1.090   0.292  1.2197 -1.0486  0.3453
   41MOL   H38431664   6.843   1.140   0.464 -3.1585  2.1265 -0.7240
   41MOL   H38531665   6.683   0.981   0.270 -0.8113 -3.9211  2.8033
   41MOL   H38631666   6.677   1.224   0.233 -2.3064  1.8495 -1.6936
   41MOL   H38731667   6.518   1.154   0.258  0.6224 -1.8267 -0.6527
   41MOL   H38831668   6.809   1.573   0.531 -0.1633  0.4310  0.6189
   41MOL   H38931669   6.814   1.664   0.758 -1.2807  1.5505 -1.2245
   41MOL   H39031670   6.479   1.407   0.865 -1.1463  1.1456 -1.3961
   41MOL   H39131671   6.506   1.295   0.637  1.9177 -0.7023 -1.2893
   41MOL   C39231672   6.549   1.522   1.658  0.0157  0.1460 -0.0609
   41MOL   C39331673   6.610   1.491   1.523 -0.2841 -0.1257 -0.1653
   41MOL   C39431674   6.531   1.572   1.412  0.3551  0.1584 -0.7143
   41MOL   C39531675   6.595   1.547   1.277 -0.0540  0.1687 -0.7409
   41MOL   O39631676   6.536   1.623   1.178 -0.1962  0.4816  0.6666
   41MOL   C39731677   6.383   1.543   1.413  0.4181 -0.6303 -0.1798
   41MOL   C39831678   6.327   1.576   1.550 -0.1805 -0.1653  0.4868
   41MOL   C39931679   6.400   1.497   1.657 -0.0681  0.2978 -0.1744
   41MOL   C40031680   6.343   1.517   1.800  0.2145 -1.2534 -1.1985
   41MOL   O40131681   6.386   1.394   1.871  0.0035 -0.0131  0.0101
   41MOL   C40231682   6.344   1.367   1.997 -0.2862 -0.5171  0.0269
   41MOL   O40331683   6.294   1.457   2.065 -0.0778 -0.5399 -0.4791
   41MOL   C40431684   6.362   1.224   2.041 -0.0083  0.4727  0.3380
   41MOL   C40531685   6.308   1.180   2.165  0.5284 -0.2252  0.4018
   41MOL   C40631686   6.325   1.051   2.211  0.1018  0.5104 -0.3457
   41MOL   C40731687   6.400   0.961   2.133  0.3844 -1.3792  0.2676
   41MOL   C40831688   6.422   0.831   2.179 -0.6805  0.4620  0.3231
   41MOL   O40931689   6.412   0.803   2.300 -0.1999  0.5678 -0.4713
   41MOL   O41031690   6.468   0.743   2.085 -0.0534 -0.1625 -0.2612
   41MOL   C41131691   6.454   1.004   2.009  0.5964  0.9596 -0.3148
   41MOL   C41231692   6.436   1.135   1.960  0.0756  0.2422  0.2548
   41MOL   H41331693   6.598   1.459   1.732 -1.3810 -2.9846 -1.7222
   41MOL   H41431694   6.559   1.628   1.680 -0.1607  0.6411 -2.2729
   41MOL   H41531695   6.713   1.523   1.513 -0.7824  1.8989  0.9438
   41MOL   H41631696   6.609   1.382   1.510  1.3986 -0.3018  1.0361
   41MOL   H41731697   6.538   1.678   1.440 -3.7307  0.3979 -0.2120
   41MOL   H41831698   6.704   1.554   1.279 -0.0018 -0.6414 -0.5886
   41MOL   H41931699   6.589   1.447   1.235 -1.5952 -0.4895  0.9885
   41MOL   H42031700   6.333   1.592   1.329 -0.9026 -4.6151 -1.8263
   41MOL   H42131701   6.368   1.437   1.394  1.4616 -0.5583 -1.4687
   41MOL   H42231702   6.223   1.546   1.554 -0.4911  0.8962  0.6119
   41MOL   H42331703   6.337   1.682   1.576 -1.9644  0.2356 -0.4326
   41MOL   H42431704   6.385   1.394   1.627  4.1834 -0.3864 -0.2199
   41MOL   H42531705   6.398   1.587   1.863 -1.6715 -1.0220  0.2401
   41MOL   H42631706   6.235   1.526   1.808  0.4308 -0.8201  2.1502
   41MOL   H42731707   6.248   1.244   2.228  1.3185 -0.5323  1.4668
   41MOL   H42831708   6.291   1.019   2.309 -0.8664 -1.2880 -1.2484
   41MOL   H42931709   6.512   0.941   1.943 -0.2989  0.8284 -0.9896
   41MOL   H43031710   6.474   1.166   1.864 -0.7434  0.6099  0.0465
   41MOL   C43131711   6.518   0.269   1.881 -0.1216 -0.1803 -0.1486
   41MOL   C43231712   6.491   0.401   1.950  0.3621  0.1726 -0.2139
   41MOL   C43331713   6.402   0.383   2.079 -0.7304  0.2331  0.3464
   41MOL   C43431714   6.382   0.522   2.146  0.0454  0.1473 -0.1982
   41MOL   O43531715   6.498   0.601   2.132 -0.1867 -0.5976  0.0098
   41MOL   C43631716   6.269   0.319   2.031  0.7967 -0.0122  0.8128
   41MOL   C43731717   6.300   0.179   1.979  0.2822  0.1788  0.2364
   41MOL   C43831718   6.397   0.170   1.856 -0.1633  0.6102  0.2648
   41MOL   C43931719   6.455   0.028   1.832  0.4849  0.2687  0.5214
   41MOL   O44031720   6.535   8.021   1.943 -0.5618 -0.5134 -0.2576
   41MOL   C44131721   6.647   7.950   1.934 -0.9517 -0.2013 -0.3474
   41MOL   O44231722   6.687   7.900   1.826  0.2741 -0.7111  0.3214
   41MOL   C44331723   6.722   7.953   2.065 -0.1994  0.8277  0.7108
   41MOL   C44431724   6.680   8.027   2.177  0.5274 -0.2255 -0.2287
   41MOL   C44531725   6.773   8.033   2.286  0.8707  0.2940  0.1660
   41MOL   C44631726   6.888   7.956   2.297 -0.7411  0.3652 -0.2132
   41MOL   C44731727   6.980   7.962   2.416 -0.0615  0.4221 -0.2455
   41MOL   O44831728   7.083   7.895   2.425 -0.8052 -0.5147  0.3050
   41MOL   O44931729   6.949   0.027   2.507 -0.8960  0.5296 -0.2916
   41MOL   C45031730   6.928   7.878   2.189 -0.3101  0.1004  0.7249
   41MOL   C45131731   6.844   7.877   2.077 -0.3211  0.7644  0.2400
   41MOL   H45231732   6.568   0.280   1.785 -0.9797  1.9566 -0.3865
   41MOL   H45331733   6.588   0.213   1.943  0.1754 -1.0219 -1.2340
   41MOL   H45431734   6.588   0.444   1.974 -0.7794  0.6548  3.8172
   41MOL   H45531735   6.448   0.476   1.883  0.9760 -0.5687 -1.4758
   41MOL   H45631736   6.437   0.311   2.154  0.1217 -0.6659 -0.8792
   41MOL   H45731737   6.289   0.558   2.103  0.7538  0.2144 -1.7011
   41MOL   H45831738   6.369   0.516   2.254  1.1482  1.2744  0.0003
   41MOL   H45931739   6.196   0.308   2.111 -1.5929 -0.3233 -1.3421
   41MOL   H46031740   6.225   0.382   1.954 -0.9779 -0.6703  1.2732
   41MOL   H46131741   6.212   0.131   1.937 -0.9131  0.9165  1.8605
   41MOL   H46231742   6.347   0.120   2.058  1.5102 -0.0103 -0.6080
   41MOL   H46331743   6.335   0.203   1.773  0.5378  0.0147 -0.4991
   41MOL   H46431744   6.375   7.992   1.810  1.6005 -1.1750  1.0918
   41MOL   H46531745   6.504   0.028   1.734 -0.9275  0.9666 -0.2036
   41MOL   H46631746   6.591   0.052   2.182  0.7245  0.0113  0.5883
   41MOL   H46731747   6.741   0.060   2.367 -1.7982 -0.5008 -0.2400
   41MOL   H46831748   7.015   7.817   2.206 -1.6060 -1.8681  0.4095
   41MOL   H46931749   6.889   7.819   1.998  0.3336  2.0665 -0.3652
   41MOL   C47031750   7.016   7.816   3.074 -0.0889  0.4889  0.0068
   41MOL   C47131751   6.947   7.870   2.952  0.3560  0.0979  0.1250
   41MOL   C47231752   7.034   7.954   2.853  0.3423 -0.0265 -0.0234
   41MOL   C47331753   6.945   7.985   2.727  0.1954 -0.0694  0.5999
   41MOL   O47431754   7.027   0.014   2.635 -0.1482  0.1338  0.0310
   41MOL   C47531755   7.120   0.023   2.926 -0.3307  0.7185  0.3797
   41MOL   C47631756   7.207   7.976   3.029  0.3591  0.3660 -0.3289
   41MOL   C47731757   7.111   7.924   3.136 -0.0532 -0.8308 -0.2002
   41MOL   C47831758   7.187   7.880   3.260  0.1352  0.3233 -0.8274
   41MOL   O47931759   7.269   7.769   3.235  0.0826  0.2948  0.0025
   41MOL   C48031760   7.230   7.641   3.259  0.0073  0.0657  0.0310
   41MOL   O48131761   7.121   7.618   3.314  0.1757  0.0201  1.1637
   41MOL   C48231762   7.343   7.548   3.232  0.1011 -0.1278 -0.6520
   41MOL   C48331763   7.345   7.419   3.283  0.5233 -0.0989  0.3008
   41MOL   C48431764   7.449   7.330   3.252 -0.0541  0.2544 -0.0511
   41MOL   C48531765   7.555   7.375   3.171  0.6620 -0.8188  0.1603
   41MOL   C48631766   7.682   7.301   3.159  0.3086 -0.4079  0.0406
   41MOL   O48731767   7.758   7.322   3.063  0.0597 -0.1682  0.0318
   41MOL   O48831768   7.701   7.199   3.248 -0.0739 -0.5209  0.2881
   41MOL   C48931769   7.547   7.501   3.108  0.0958  0.0119 -0.0374
   41MOL   C49031770   7.444   7.582   3.140  0.3183 -0.1489 -0.4417
   41MOL   H49131771   6.938   7.796   3.147 -0.0121  3.3515  0.9211
   41MOL   H49231772   7.073   7.724   3.059 -1.9786 -1.1076  2.2600
   41MOL   H49331773   6.905   7.788   2.893 -0.1151  0.7445 -0.4335
   41MOL   H49431774   6.873   7.943   2.984  0.2005 -0.8340  1.9523
   41MOL   H49531775   7.107   7.884   2.813  3.4016  2.0687  1.7472
   41MOL   H49631776   6.909   7.899   2.671 -0.7208 -0.1099  1.2238
   41MOL   H49731777   6.860   0.013   2.754 -0.9065 -0.6768 -1.3360
   41MOL   H49831778   7.193   0.079   2.868  0.0744  1.6755  1.7806
   41MOL   H49931779   7.065   0.096   2.986 -0.1567  1.7569 -0.7182
   41MOL   H50031780   7.286   8.034   3.076 -0.9570  1.6151  0.3571
   41MOL   H50131781   7.258   7.896   2.975 -0.1087  0.1702 -0.4853
   41MOL   H50231782   7.040   8.001   3.167  1.1876  0.9524 -1.6501
   41MOL   H50331783   7.252   7.962   3.288 -0.4421  0.1537  1.0789
   41MOL   H50431784   7.122   7.864   3.346 -0.9118 -2.2997 -2.0441
   41MOL   H50531785   7.272   7.396   3.358  0.5038 -1.1308 -0.0226
   41MOL   H50631786   7.448   7.229   3.290  0.9605  0.1645 -0.2489
   41MOL   H50731787   7.630   7.533   3.047 -0.7283  0.8018 -0.7428
   41MOL   H50831788   7.443   7.679   3.091  0.7522  1.1836  2.0779
   41MOL   C50931789   0.136   6.840   3.194  0.4605 -0.3678 -0.5718
   41MOL   C51031790   0.004   6.904   3.237  0.6745 -0.4833 -0.1912
   41MOL   C51131791   0.009   7.059   3.225  0.2766 -0.5325 -0.2260
   41MOL   C51231792   7.914   7.125   3.284  0.5798  0.1450 -0.3631
   41MOL   O51331793   7.801   7.100   3.216  0.3528 -0.0362  0.5957
   41MOL   C51431794   0.130   7.118   3.304 -0.2314  0.1929  0.0829
   41MOL   C51531795   0.264   7.056   3.244 -0.8440 -0.1748  0.1643
   41MOL   C51631796   0.267   6.903   3.243  0.2768 -0.0780  0.3185
   41MOL   C51731797   0.386   6.829   3.187 -0.2664  0.0433 -0.0698
   41MOL   O51831798   0.441   6.903   3.077  0.3435  0.8175  0.2502
   41MOL   C51931799   0.549   6.862   3.007  0.0413 -0.6713 -0.3803
   41MOL   O52031800   0.618   6.764   3.031 -0.0412 -0.4977  0.5859
   41MOL   C52131801   0.596   6.960   2.903 -0.8412 -0.9981  0.2357
   41MOL   C52231802   0.543   7.090   2.892  0.2912 -0.9364  0.1856
   41MOL   C52331803   0.596   7.174   2.796  0.6606 -0.3790 -0.1495
   41MOL   C52431804   0.702   7.138   2.716 -0.5909 -0.1231 -0.6482
   41MOL   C52531805   0.773   7.239   2.629  0.7294 -0.4225  0.7557
   41MOL   O52631806   0.730   7.351   2.609  0.6310 -0.2576 -0.4658
   41MOL   O52731807   0.885   7.197   2.582  0.2804 -0.5329  0.4959
   41MOL   C52831808   0.755   7.009   2.723 -0.0968  0.3657 -0.9684
   41MOL   C52931809   0.702   6.923   2.818 -0.1034  0.6681  0.5094
   41MOL   H53031810   0.120   6.742   3.238  1.6247 -0.3529 -0.0824
   41MOL   H53131811   0.143   6.834   3.085  0.8842 -1.5628 -0.4906
   41MOL   H53231812   7.953   6.868   3.182  0.3151  0.2203 -0.0954
   41MOL   H53331813   8.029   6.882   3.343  0.9889 -0.5860 -0.1803
   41MOL   H53431814   0.021   7.085   3.120 -0.1265 -1.6325 -0.5544
   41MOL   H53531815   7.894   7.086   3.383 -1.1283 -0.3503 -0.8923
   41MOL   H53631816   7.938   7.231   3.295  2.0616 -0.4560  2.7755
   41MOL   H53731817   0.131   7.227   3.318 -2.0418  0.0923  1.0902
   41MOL   H53831818   0.129   7.079   3.405  2.4381 -0.5947 -0.1541
   41MOL   H53931819   0.344   7.095   3.308  1.1540 -0.7041 -1.9461
   41MOL   H54031820   0.290   7.090   3.144 -1.7033  0.6348  0.2152
   41MOL   H54131821   0.277   6.885   3.350  1.4100  1.5152  0.4943
   41MOL   H54231822   0.462   6.836   3.264  0.3017  0.3208 -0.6487
   41MOL   H54331823   0.371   6.721   3.176 -0.6920  0.1743 -0.8450
   41MOL   H54431824   0.471   7.122   2.965  0.7637  1.3042 -0.2952
   41MOL   H54531825   0.562   7.276   2.781 -1.8145 -0.8769  1.8267
   41MOL   H54631826   0.837   6.975   2.662 -0.1734  0.7344 -1.2791
   41MOL   H54731827   0.752   6.827   2.825 -0.1413  0.6384  0.3907
   41MOL   C54831828   1.314   7.081   2.702 -0.1176 -0.4278  0.2417
   41MOL   C54931829   1.177   7.145   2.681 -0.3330 -0.0640 -0.4788
   41MOL   C55031830   1.192   7.288   2.612 -0.5660  0.7499  0.6487
   41MOL   C55131831   1.058   7.365   2.573 -0.0527  0.6051 -0.1634
   41MOL   O55231832   0.968   7.291   2.495  0.4469 -0.8801  0.2491
   41MOL   C55331833   1.293   7.374   2.697 -0.2728 -0.1860 -0.1905
   41MOL   C55431834   1.426   7.305   2.721 -0.1347  0.3738  0.3422
   41MOL   C55531835   1.422   7.162   2.779  0.1875 -0.2704  0.1736
   41MOL   C55631836   1.566   7.096   2.779 -0.2495  0.7353  0.2215
   41MOL   O55731837   1.659   7.157   2.866 -1.3610 -1.0828  0.0348
   41MOL   C55831838   1.688   7.106   2.989 -0.5682 -0.5448  0.4736
   41MOL   O55931839   1.640   7.002   3.031 -0.0350  0.5812  0.3078
   41MOL   C56031840   1.786   7.194   3.061  0.2929 -0.6871 -0.1597
   41MOL   C56131841   1.848   7.316   3.012 -0.8456  0.3056 -0.2502
   41MOL   C56231842   1.931   7.394   3.094 -0.5250  0.3009 -0.5316
   41MOL   C56331843   1.965   7.358   3.222 -0.1472  0.0902 -0.3294
   41MOL   C56431844   2.061   7.437   3.301 -0.4226 -0.0663 -0.2214
   41MOL   O56531845   2.136   7.520   3.253  0.1048  0.2149  0.0613
   41MOL   O56631846   2.049   7.410   3.429 -0.0253 -0.4767  0.0575
   41MOL   C56731847   1.902   7.238   3.273  0.6422  0.3841  0.3107
   41MOL   C56831848   1.811   7.152   3.193  0.2502  0.5759  0.0031
   41MOL   H56931849   1.309   6.985   2.753  0.6778  0.3441  1.8081
   41MOL   H57031850   1.362   7.050   2.608 -3.3556  1.6702 -2.2078
   41MOL   H57131851   1.124   7.076   2.615  0.4440 -0.4394 -0.7212
   41MOL   H57231852   1.123   7.151   2.776 -1.8011  2.5182 -1.4233
   41MOL   H57331853   1.237   7.282   2.512 -1.4782  0.5758  0.2470
   41MOL   H57431854   1.010   7.420   2.653  1.5332 -0.6014  1.6536
   41MOL   H57531855   1.096   7.441   2.504  0.1433  1.5056  0.9158
   41MOL   H57631856   1.297   7.475   2.656  2.5119  0.8975  2.5360
   41MOL   H57731857   1.236   7.382   2.790 -1.7613  0.3443 -1.1210
   41MOL   H57831858   1.478   7.384   2.775 -1.4627  1.3003  0.2892
   41MOL   H57931859   1.470   7.304   2.621 -0.8895 -2.8223 -0.0241
   41MOL   H58031860   1.383   7.161   2.880 -0.9241 -0.9856 -0.2518
   41MOL   H58131861   1.555   6.990   2.804  1.6289 -0.0844 -2.2173
   41MOL   H58231862   1.603   7.105   2.677  0.0987  2.2151  0.4708
   41MOL   H58331863   1.843   7.357   2.912  0.3448  0.5787 -0.2085
   41MOL   H58431864   1.969   7.490   3.064 -3.1599  1.7428  0.5824
   41MOL   H58531865   1.915   7.218   3.378  0.0888  1.8933  0.6816
   41MOL   H58631866   1.767   7.067   3.243  2.9485  0.2541  1.8934
   41MOL   C58731867   1.945   7.363   3.882  0.5839  0.2081  0.2261
   41MOL   C58831868   2.019   7.430   3.771 -0.1986  0.1300 -0.2588
   41MOL   C58931869   1.922   7.512   3.676  0.8104  0.8079  0.5461
   41MOL   C59031870   2.004   7.589   3.567  0.1906  0.0402 -0.0264
   41MOL   O59131871   2.109   7.515   3.521  0.2374 -0.2628  0.1254
   41MOL   C59231872   1.819   7.412   3.623  0.9012 -0.3551  0.2922
   41MOL   C59331873   1.752   7.317   3.730 -0.1979  0.0904 -0.5772
   41MOL   C59431874   1.854   7.252   3.826 -0.3936  0.1897 -0.7380
   41MOL   C59531875   1.787   7.160   3.923 -0.3500  0.2787 -0.7718
   41MOL   O59631876   1.719   7.052   3.850  0.3206  0.1528  0.6428
   41MOL   C59731877   1.579   7.048   3.834 -0.0917  0.7231  0.6557
   41MOL   O59831878   1.504   7.124   3.896 -0.0931 -0.3272  0.7611
   41MOL   C59931879   1.539   6.930   3.754 -0.7184  0.1082 -0.3042
   41MOL   C60031880   1.633   6.856   3.667  0.2765 -0.2751 -0.3651
   41MOL   C60131881   1.595   6.734   3.605  0.7904  0.6408  0.3885
   41MOL   C60231882   1.463   6.691   3.610  0.7744  0.1705 -0.3145
   41MOL   C60331883   1.420   6.570   3.539  0.2227 -0.3999 -0.0788
   41MOL   O60431884   1.303   6.533   3.544 -0.1662  0.1832  0.3164
   41MOL   O60531885   1.511   6.515   3.465 -0.2239  0.5406  0.6927
   41MOL   C60631886   1.370   6.769   3.676 -0.6862  0.5788 -0.1255
   41MOL   C60731887   1.406   6.882   3.752  0.6054  0.0436  0.2096
   41MOL   H60831888   2.019   7.323   3.952  0.5498  1.6298  1.0854
   41MOL   H60931889   1.883   7.430   3.941  0.5497 -0.1963  0.6531
   41MOL   H61031890   2.080   7.513   3.807  1.6251 -0.3041 -2.2563
   41MOL   H61131891   2.078   7.355   3.718 -0.0730  1.7465 -2.5221
   41MOL   H61231892   1.867   7.586   3.735 -1.1266  0.2814 -0.5444
   41MOL   H61331893   1.946   7.627   3.483  0.1654  0.7877  0.3229
   41MOL   H61431894   2.041   7.682   3.609 -2.1102  1.1576 -0.4033
   41MOL   H61531895   1.746   7.463   3.561  1.4193 -0.7508 -0.6568
   41MOL   H61631896   1.864   7.339   3.555  2.3004  0.8589 -0.1087
   41MOL   H61731897   1.707   7.237   3.672 -0.3062  0.1091 -0.5216
   41MOL   H61831898   1.683   7.363   3.801  0.5272 -2.8113  2.1101
   41MOL   H61931899   1.930   7.194   3.772 -0.3732 -2.3663  1.9134
   41MOL   H62031900   1.867   7.108   3.976 -1.0699  1.2588  1.2932
   41MOL   H62131901   1.722   7.220   3.986  0.3947  1.3444 -1.0055
   41MOL   H62231902   1.735   6.890   3.651  0.2589 -0.6219 -1.2607
   41MOL   H62331903   1.672   6.684   3.548  1.0897 -0.0566  1.3837
   41MOL   H62431904   1.264   6.748   3.676 -0.6827  0.4326 -2.2381
   41MOL   H62531905   1.328   6.935   3.804 -1.9328 -2.0026 -1.3448
   41MOL   C62631906   1.540   6.087   3.094  0.0949 -0.3475 -0.0984
   41MOL   C62731907   1.552   6.225   3.161  0.0722 -0.0111  0.2116
   41MOL   C62831908   1.416   6.286   3.187 -0.0486 -0.6871  0.0804
   41MOL   C62931909   1.432   6.422   3.261 -0.5007 -0.1062 -0.2981
   41MOL   O63031910   1.464   6.391   3.398 -0.1393 -0.0986  0.2434
   41MOL   C63131911   1.329   6.292   3.060 -0.1941  0.0833 -0.0791
   41MOL   C63231912   1.309   6.149   3.005 -0.1663 -0.2933 -0.0671
   41MOL   C63331913   1.443   6.084   2.971  0.5317 -0.6089  0.3884
   41MOL   C63431914   1.433   5.935   2.918 -0.0601 -0.2034 -0.7392
   41MOL   O63531915   1.343   5.859   2.996  0.2774  0.2591  0.1491
   41MOL   C63631916   1.236   5.789   2.950  0.1937 -0.5485 -0.7053
   41MOL   O63731917   1.205   5.784   2.827 -0.0445  0.0769  0.0961
   41MOL   C63831918   1.167   5.712   3.053  0.4000 -0.0491 -0.3438
   41MOL   C63931919   1.099   5.594   3.004  0.0435  0.3701  0.0431
   41MOL   C64031920   1.029   5.507   3.097  0.4085  0.0439  0.4284
   41MOL   C64131921   1.021   5.538   3.232 -0.2444  0.5560  0.3222
   41MOL   C64231922   0.947   5.439   3.327  0.3873 -0.0156 -0.1946
   41MOL   O64331923   0.921   5.460   3.444  0.3299  0.4764 -0.2092
   41MOL   O64431924   0.902   5.336   3.254  0.3690  0.5778 -0.0627
   41MOL   C64531925   1.079   5.658   3.284 -0.4838  0.4120 -0.4261
   41MOL   C64631926   1.152   5.746   3.194 -0.8255  1.0992 -0.2043
   41MOL   H64731927   1.635   6.043   3.063  0.8566 -0.4613  2.2518
   41MOL   H64831928   1.495   6.016   3.163 -2.7913  1.1559 -0.3761
   41MOL   H64931929   1.598   6.213   3.259  2.1358  0.9261 -0.6146
   41MOL   H65031930   1.613   6.291   3.100 -0.1310  1.9885  2.1101
   41MOL   H65131931   1.365   6.220   3.258  0.2061 -0.7942  0.1659
   41MOL   H65231932   1.512   6.488   3.228  0.5652  0.1079  2.5881
   41MOL   H65331933   1.335   6.471   3.265 -0.8425 -0.7634 -0.4416
   41MOL   H65431934   1.231   6.323   3.097 -0.0137 -0.6763  1.0558
   41MOL   H65531935   1.378   6.353   2.984  1.1053 -0.8049  0.0403
   41MOL   H65631936   1.253   6.156   2.912  1.2460 -0.3776 -0.9543
   41MOL   H65731937   1.237   6.098   3.069 -1.7105  0.7573 -0.9457
   41MOL   H65831938   1.478   6.144   2.887 -0.9112 -1.1208 -0.5897
   41MOL   H65931939   1.398   5.928   2.815 -0.0167  3.0886 -1.0168
   41MOL   H66031940   1.522   5.872   2.911 -0.7868 -1.4919  1.1586
   41MOL   H66131941   1.092   5.567   2.899  1.3305  1.1625 -0.2587
   41MOL   H66231942   0.992   5.411   3.062 -1.0927  1.5637 -2.3505
   41MOL   H66331943   1.074   5.684   3.389  2.1430  0.0329 -0.1655
   41MOL   H66431944   1.200   5.833   3.235  0.5815 -0.3639  1.3735
   41MOL   C66531945   0.718   4.947   3.654  0.2183 -0.5640  0.0960
   41MOL   C66631946   0.814   5.036   3.571  0.7353 -0.9748 -0.3280
   41MOL   C66731947   0.834   5.008   3.424  0.4481 -0.5177  0.7241
   41MOL   C66831948   0.919   5.112   3.345 -0.3078 -0.9184 -0.3012
   41MOL   O66931949   0.842   5.231   3.334  0.3275  0.0536 -0.1692
   41MOL   C67031950   0.893   4.865   3.424  0.1967  0.1808  0.1610
   41MOL   C67131951   0.801   4.763   3.498 -0.6431  0.0703 -0.6488
   41MOL   C67231952   0.768   4.798   3.649  0.0681 -0.3497  1.2101
   41MOL   C67331953   0.667   4.699   3.717  0.2463  0.3062  0.0910
   41MOL   O67431954   0.655   4.725   3.854  0.0847  0.5479  0.0941
   41MOL   C67531955   0.540   4.784   3.904  0.1831  0.1897 -0.3247
   41MOL   O67631956   0.460   4.841   3.835  0.0014  0.0228 -0.0562
   41MOL   C67731957   0.525   4.774   4.051 -0.5067  0.2596  0.0982
   41MOL   C67831958   0.453   4.873   4.122  0.4295 -0.2705 -0.0762
   41MOL   C67931959   0.454   4.865   4.264  0.2133  0.4078  0.7387
   41MOL   C68031960   0.509   4.766   4.342  0.2421 -0.1919  0.3601
   41MOL   C68131961   0.509   4.772   4.490  0.1880  0.5246 -0.2017
   41MOL   O68231962   0.452   4.857   4.555  0.2672  0.7740  0.2435
   41MOL   O68331963   0.593   4.683   4.547  0.3185  0.1487  0.1679
   41MOL   C68431964   0.571   4.659   4.270 -0.3433 -0.1552  0.6604
   41MOL   C68531965   0.585   4.669   4.127  0.1687 -0.9142 -0.1445
   41MOL   H68631966   0.710   4.990   3.754  0.7002 -1.0014  0.3257
   41MOL   H68731967   0.618   4.967   3.615 -0.6451 -1.4737  1.7503
   41MOL   H68831968   0.780   5.140   3.569  0.8701 -0.8760  1.3528
   41MOL   H68931969   0.913   5.046   3.618  0.7383  0.5928 -0.6409
   41MOL   H69031970   0.737   4.996   3.377 -0.1310 -1.0003  2.0199
   41MOL   H69131971   1.006   5.137   3.405  0.7995  0.4324 -2.4436
   41MOL   H69231972   0.946   5.063   3.252  3.0709 -0.3718  0.3527
   41MOL   H69331973   0.922   4.832   3.325 -0.4375 -2.3334  0.7902
   41MOL   H69431974   0.990   4.867   3.474 -0.5168  0.0100  1.5645
   41MOL   H69531975   0.829   4.658   3.492 -0.9604  0.0992 -3.0418
   41MOL   H69631976   0.703   4.771   3.450 -0.0191 -0.1836 -1.9901
   41MOL   H69731977   0.859   4.793   3.709  0.4615 -0.1462  0.6308
   41MOL   H69831978   0.574   4.700   3.660 -0.4815 -0.2280  1.2526
   41MOL   H69931979   0.697   4.594   3.707 -0.0040  0.1662  0.8027
   41MOL   H70031980   0.408   4.950   4.062 -1.1863 -1.3064 -0.2174
   41MOL   H70131981   0.401   4.945   4.314 -1.2754 -0.5858  0.7874
   41MOL   H70231982   0.626   4.581   4.321  2.5723  0.0466 -2.0349
   41MOL   H70331983   0.636   4.591   4.073  0.0443 -1.7954  0.9886
   41MOL   C70431984   0.837   4.901   5.083 -0.1790  0.3027  0.0682
   41MOL   C70531985   0.836   4.875   4.935  0.3407  0.1111 -0.2627
   41MOL   C70631986   0.712   4.802   4.886 -0.3503  0.3343 -0.1042
   41MOL   C70731987   0.710   4.789   4.731  0.1310 -0.6813  0.5147
   41MOL   O70831988   0.604   4.707   4.693  0.1124  0.5396  0.6211
   41MOL   C70931989   0.707   4.662   4.961 -0.1771 -0.0294  0.9877
   41MOL   C71031990   0.702   4.690   5.110  0.3553 -0.6423 -0.1498
   41MOL   C71131991   0.818   4.766   5.171 -0.6823 -0.0557 -0.3483
   41MOL   C71231992   0.807   4.794   5.323  0.7588 -0.4024 -0.2916
   41MOL   O71331993   0.782   4.677   5.398 -0.4505  0.0328 -0.0991
   41MOL   C71431994   0.893   4.597   5.426 -0.2341  0.5863 -0.7119
   41MOL   O71531995   1.006   4.622   5.387 -0.0801  0.1693  0.2157
   41MOL   C71631996   0.866   4.480   5.512  0.2649  0.0910 -0.1505
   41MOL   C71731997   0.978   4.411   5.563 -0.1365  0.3078  0.4596
   41MOL   C71831998   0.961   4.297   5.645 -0.4989  0.4768  0.6732
   41MOL   C71931999   0.833   4.245   5.679 -0.0351 -0.7155  0.4915
   41MOL   C72032000   0.821   4.117   5.756 -1.2225 -0.3235 -0.4855
   41MOL   O72132001   0.918   4.046   5.779 -0.2895 -0.2235 -0.1763
   41MOL   O72232002   0.702   4.076   5.798  0.8822 -0.7225 -0.0929
   41MOL   C72332003   0.720   4.321   5.627  0.2984  0.1571  0.1106
   41MOL   C72432004   0.733   4.431   5.538 -0.3175 -0.1616 -0.4973
   41MOL   H72532005   0.922   4.960   5.117  0.9847 -1.4241  0.2392
   41MOL   H72632006   0.749   4.963   5.095 -0.3366  0.0306  0.3383
   41MOL   H72732007   0.846   4.975   4.893  2.0702 -0.7918 -2.0933
   41MOL   H72832008   0.921   4.812   4.910 -0.0396 -0.6697  0.3814
   41MOL   H72932009   0.627   4.866   4.911  0.2159  1.3195 -0.6508
   41MOL   H73032010   0.698   4.892   4.699 -2.1485 -0.8861  0.6537
   41MOL   H73132011   0.806   4.754   4.693  1.1151  0.0683  2.2171
   41MOL   H73232012   0.613   4.616   4.933  0.6749 -0.9071 -0.4893
   41MOL   H73332013   0.795   4.606   4.930  0.5658  1.6131  0.0485
   41MOL   H73432014   0.685   4.595   5.160  1.1498 -0.9838 -0.5277
   41MOL   H73532015   0.609   4.740   5.135  0.4104 -2.0481  3.0143
   41MOL   H73632016   0.907   4.704   5.165 -0.1094  0.6799  0.3908
   41MOL   H73732017   0.902   4.839   5.354  0.0402  0.8708  0.0876
   41MOL   H73832018   0.736   4.867   5.361  1.7293 -0.0041  0.7906
   41MOL   H73932019   1.079   4.446   5.554  0.1958 -0.9942 -1.0034
   41MOL   H74032020   1.050   4.249   5.683  0.4341  1.4680 -0.2498
   41MOL   H74132021   0.618   4.289   5.641  0.8639 -1.1975  1.2303
   41MOL   H74232022   0.643   4.476   5.501 -1.5209 -3.2634 -1.5166
   41MOL   C74332023   0.510   3.604   6.037  0.5216 -0.1345  0.0428
   41MOL   C74432024   0.539   3.740   5.964  0.5586  0.0217 -0.0355
   41MOL   C74532025   0.638   3.722   5.853 -0.8195  0.4356  0.6216
   41MOL   C74632026   0.658   3.848   5.776 -0.0676 -0.0997 -0.6388
   41MOL   O74732027   0.705   3.944   5.866 -0.5098 -0.7928 -1.0284
   41MOL   C74832028   0.767   3.660   5.906  0.2040  0.3323  0.6329
   41MOL   C74932029   0.743   3.522   5.978 -0.5509  0.4752  0.2045
   41MOL   C75032030   0.635   3.526   6.084  0.5617  0.2661  0.0629
   41MOL   C75132031   0.608   3.385   6.143 -0.4667 -0.5840  0.1295
   41MOL   O75232032   0.721   3.333   6.214 -0.0080  0.0950 -0.8668
   41MOL   C75332033   0.803   3.253   6.145 -0.0002 -0.1389 -0.0471
   41MOL   O75432034   0.788   3.229   6.026  0.3400  0.5194  0.7278
   41MOL   C75532035   0.920   3.195   6.226 -0.5190  0.7462 -0.3570
   41MOL   C75632036   1.003   3.095   6.167  0.6060  0.0538 -1.0254
   41MOL   C75732037   1.112   3.039   6.236 -0.0419 -0.7147 -0.0377
   41MOL   C75832038   1.159   3.099   6.354  0.1643  0.8912  1.3024
   41MOL   C75932039   1.271   3.041   6.432 -0.5085 -0.5341 -0.7124
   41MOL   O76032040   1.352   2.969   6.380  0.0897  0.0396 -0.4881
   41MOL   O76132041   1.296   3.101   6.551 -0.6383 -0.2109 -0.3228
   41MOL   C76232042   1.086   3.207   6.407  0.4395 -0.6526 -0.7457
   41MOL   C76332043   0.961   3.249   6.348 -0.0882 -0.5843  0.7526
   41MOL   H76432044   0.453   3.629   6.126  0.7220 -0.0644  0.1515
   41MOL   H76532045   0.447   3.533   5.983 -0.6230 -0.8957  2.3053
   41MOL   H76632046   0.445   3.783   5.930  0.3617  0.7996  1.4786
   41MOL   H76732047   0.572   3.814   6.037 -1.9656 -0.5896  1.7929
   41MOL   H76832048   0.602   3.648   5.781 -1.8914  4.0438 -2.7314
   41MOL   H76932049   0.736   3.832   5.702  2.5027 -0.5205  2.0673
   41MOL   H77032050   0.561   3.878   5.736  0.0346 -0.6318 -1.2917
   41MOL   H77132051   0.836   3.644   5.823 -1.5573 -1.8775 -0.4660
   41MOL   H77232052   0.812   3.735   5.971  1.1082 -1.1482  1.7442
   41MOL   H77332053   0.835   3.481   6.022 -0.4407 -1.5910 -1.8352
   41MOL   H77432054   0.708   3.457   5.898  0.5825  3.2828 -2.6957
   41MOL   H77532055   0.674   3.592   6.161  1.3309  0.1728 -0.2386
   41MOL   H77632056   0.535   3.392   6.224  1.4158 -0.2121  1.8389
   41MOL   H77732057   0.572   3.314   6.067  1.2753 -1.3193 -0.0311
   41MOL   H77832058   0.976   3.050   6.073 -0.1839 -1.9984  0.1616
   41MOL   H77932059   1.164   2.954   6.193  0.0295  0.0435 -1.4571
   41MOL   H78032060   1.128   3.255   6.495 -1.7135  0.5553 -0.3246
   41MOL   H78132061   0.896   3.320   6.398 -1.9284 -1.1411 -0.7810
   41MOL   H78232062   1.380   3.070   6.582  0.5882  2.1270 -1.2566
   42MOL     C132063   2.279   7.750   5.666 -0.5438 -0.0584  0.2860
   42MOL     C232064   2.356   7.663   5.573 -0.6929  0.1461  0.6015
   42MOL     C332065   2.388   7.519   5.634  1.2780 -0.0068 -0.2442
   42MOL     C432066   2.487   7.433   5.545  0.9084  0.4573  0.4652
   42MOL     O532067   2.428   7.393   5.426 -0.4944  0.4027 -0.0110
   42MOL     C632068   2.434   7.525   5.776  0.7761 -0.8143 -0.7700
   42MOL     C732069   2.348   7.611   5.863  0.2185 -0.2565 -0.3852
   42MOL     C832070   2.336   7.752   5.811  0.0021 -0.5128 -0.2242
   42MOL     C932071   2.259   7.850   5.904  0.2875  0.1541  0.1163
   42MOL    O1032072   2.330   7.973   5.899 -0.2006 -0.8246 -0.4125
   42MOL    C1132073   2.288   0.044   5.833  0.0981  0.0949 -0.1909
   42MOL    O1232074   2.184   0.050   5.769  0.3925  0.3873  0.3003
   42MOL    C1332075   2.382   0.157   5.852  0.0354  1.1641  0.2294
   42MOL    C1432076   2.517   0.135   5.895  0.1262  0.7606  0.0847
   42MOL    C1532077   2.598   0.245   5.938  0.2017  0.3492  0.3176
   42MOL    C1632078   2.539   0.375   5.950  0.3499 -0.4081 -0.5305
   42MOL    C1732079   2.617   0.489   6.007  1.2488  0.0982 -0.4802
   42MOL    O1832080   2.729   0.486   6.047  0.3197 -0.0551 -0.6377
   42MOL    O1932081   2.552   0.610   5.986  0.0502 -0.6804  0.0163
   42MOL    C2032082   2.404   0.395   5.897 -0.1417  0.6410  0.1190
   42MOL    C2132083   2.330   0.285   5.845  0.0461  0.6901  0.8803
   42MOL    H2232084   2.257   7.845   5.617  0.5496 -0.8843 -1.8891
   42MOL    H2332085   2.178   7.711   5.666 -0.9345  0.9482  0.2929
   42MOL    H2432086   2.311   7.660   5.473 -1.4233  0.5781  0.9121
   42MOL    H2532087   2.454   7.711   5.571 -0.8429  0.4470  0.2013
   42MOL    H2632088   2.291   7.471   5.634  1.4419 -0.3484  0.5416
   42MOL    H2732089   2.580   7.485   5.521 -0.1524  1.3409 -1.8752
   42MOL    H2832090   2.515   7.341   5.597  2.0400  0.5791  0.0968
   42MOL    H2932091   2.423   7.427   5.823 -0.6119  0.4411  1.6557
   42MOL    H3032092   2.541   7.546   5.782  0.3769  0.9839  1.0070
   42MOL    H3132093   2.382   7.605   5.966  1.4699  2.6827 -0.5818
   42MOL    H3232094   2.244   7.579   5.875  0.2782 -0.2925  0.0420
   42MOL    H3332095   2.438   7.785   5.793  0.1071 -0.1618  0.9785
   42MOL    H3432096   2.150   7.856   5.895  0.1569 -2.9855 -0.9815
   42MOL    H3532097   2.259   7.817   6.008 -2.1403  0.1655  0.1528
   42MOL    H3632098   2.563   0.038   5.896  1.4061  1.3619  0.3753
   42MOL    H3732099   2.700   0.225   5.968  1.5608 -0.2194 -4.3407
   42MOL    H3832100   2.357   0.490   5.920 -0.9174  0.5777 -1.1811
   42MOL    H3932101   2.224   0.300   5.830  0.3029  0.3037 -1.3589
   42MOL    H4032102   2.503   7.346   5.391 -0.4366  1.1992 -0.9860
   42MOL    C4132103   2.559   1.155   6.018  0.8340  0.2265 -0.4555
   42MOL    C4232104   2.542   1.007   6.020 -0.2823  0.1266  0.1960
   42MOL    C4332105   2.642   0.941   6.117  0.3437  0.1879 -0.2203
   42MOL    C4432106   2.612   0.790   6.135  0.4516  0.6391 -0.0630
   42MOL    O4532107   2.637   0.730   6.003  0.4896  0.5841  0.5197
   42MOL    C4632108   2.788   0.984   6.083 -0.3359 -0.6510 -0.2454
   42MOL    C4732109   2.802   1.134   6.065  0.1655 -0.6121  0.0668
   42MOL    C4832110   2.697   1.201   5.978  0.0393 -0.2865  0.6561
   42MOL    C4932111   2.697   1.354   5.966 -0.6206 -0.0191  0.4146
   42MOL    O5032112   2.705   1.423   6.093 -0.1255 -0.6304  0.1964
   42MOL    C5132113   2.703   1.553   6.089  0.3217 -0.2336  0.4369
   42MOL    O5232114   2.679   1.627   5.994 -0.0022 -0.1476  0.0746
   42MOL    C5332115   2.736   1.603   6.225 -0.0645 -0.4293  0.3929
   42MOL    C5432116   2.766   1.518   6.338  0.2447  0.5997  0.2045
   42MOL    C5532117   2.757   1.564   6.470 -0.4267 -0.1408  0.2787
   42MOL    C5632118   2.737   1.700   6.496  0.5286 -0.3068 -0.7802
   42MOL    C5732119   2.733   1.759   6.636 -0.8340  0.4429  0.2285
   42MOL    O5832120   2.719   1.875   6.670  0.7476 -0.1219 -0.0969
   42MOL    O5932121   2.754   1.666   6.727 -0.2664 -0.0399  0.3668
   42MOL    C6032122   2.716   1.787   6.385  0.3691  0.4856 -0.9259
   42MOL    C6132123   2.716   1.739   6.253  0.5683  0.1593 -0.0243
   42MOL    H6232124   2.484   1.192   5.949  0.2812 -1.6179 -0.8714
   42MOL    H6332125   2.535   1.195   6.117  0.2590  3.2176 -1.7611
   42MOL    H6432126   2.438   0.986   6.045 -1.2164  1.7658 -2.1088
   42MOL    H6532127   2.560   0.969   5.920  2.0818 -0.5730  0.8802
   42MOL    H6632128   2.614   0.977   6.216 -0.8583 -2.0039  0.2805
   42MOL    H6732129   2.675   0.746   6.212 -1.9781 -1.3592  0.8492
   42MOL    H6832130   2.513   0.773   6.178  0.8385  1.5816  1.2056
   42MOL    H6932131   2.863   0.954   6.157 -1.8188 -3.8056  0.0767
   42MOL    H7032132   2.819   0.933   5.992 -0.6289  0.0737 -0.7471
   42MOL    H7132133   2.892   1.142   6.005 -0.3221 -1.5302 -0.8084
   42MOL    H7232134   2.821   1.185   6.159 -1.4827  0.4320 -0.1457
   42MOL    H7332135   2.717   1.160   5.879 -1.5032  1.1419 -0.2760
   42MOL    H7432136   2.783   1.386   5.908 -0.9933  0.3723  0.0829
   42MOL    H7532137   2.612   1.392   5.910 -0.4791 -2.5882 -1.6432
   42MOL    H7632138   2.774   1.413   6.312 -1.5355  0.2412  1.0520
   42MOL    H7732139   2.758   1.487   6.546 -1.6839  0.4488  0.8989
   42MOL    H7832140   2.699   1.892   6.405 -1.2421  0.3078 -1.3460
   42MOL    H7932141   2.687   1.807   6.175 -2.6414 -0.7679  0.2575
   42MOL    C8032142   2.874   1.407   7.161 -0.1357  0.4911 -0.2571
   42MOL    C8132143   2.836   1.541   7.101  0.0604  0.3067  1.0180
   42MOL    C8232144   2.923   1.575   6.984  0.2517  0.2632 -0.2779
   42MOL    C8332145   2.887   1.715   6.924  0.0940  0.4152 -0.4954
   42MOL    O8432146   2.758   1.716   6.877 -0.4179  0.0481 -0.3217
   42MOL    C8532147   3.068   1.580   7.038 -0.1245 -0.3777  0.4575
   42MOL    C8632148   3.119   1.454   7.093 -0.2636 -0.1953  0.0203
   42MOL    C8732149   3.017   1.400   7.204  0.4342  0.2015  0.1412
   42MOL    C8832150   3.058   1.259   7.243 -0.3395 -0.7257 -0.8872
   42MOL    O8932151   2.960   1.188   7.322 -0.1683  0.4111 -0.3563
   42MOL    C9032152   2.951   1.224   7.454  0.1333  0.5144  0.6839
   42MOL    O9132153   3.029   1.299   7.508 -0.3581  0.0705  0.4727
   42MOL    C9232154   2.857   1.139   7.530  0.1036 -1.0504  0.1199
   42MOL    C9332155   2.785   1.035   7.469 -0.1044 -0.1440  0.5937
   42MOL    C9432156   2.703   0.944   7.539  0.1978 -0.0383  0.5226
   42MOL    C9532157   2.683   0.959   7.676 -0.0924 -0.2505 -0.5548
   42MOL    C9632158   2.598   0.867   7.747  0.4578  0.1414  0.3769
   42MOL    O9732159   2.497   0.813   7.698 -0.0961  0.3405  0.4415
   42MOL    O9832160   2.639   0.849   7.874  0.0320 -0.2889  0.6481
   42MOL    C9932161   2.743   1.071   7.736 -0.7041  0.3449  0.3952
   42MOL   C10032162   2.826   1.161   7.668  0.3718  0.5071  0.3595
   42MOL   H10132163   2.798   1.376   7.232 -0.4018 -0.6540 -1.0171
   42MOL   H10232164   2.871   1.326   7.087 -1.1868  1.5033 -1.3425
   42MOL   H10332165   2.733   1.542   7.066  0.9126 -0.7698 -1.6844
   42MOL   H10432166   2.842   1.626   7.168  1.8221  0.6644  0.4374
   42MOL   H10532167   2.912   1.499   6.907 -0.3260  1.3042 -1.2452
   42MOL   H10632168   2.904   1.789   7.002  0.8708 -0.6666  0.3911
   42MOL   H10732169   2.956   1.742   6.844  0.0694 -1.3036 -1.1307
   42MOL   H10832170   3.131   1.603   6.952  0.4276 -0.4404  0.8367
   42MOL   H10932171   3.091   1.655   7.114  1.9224  0.7293 -1.1925
   42MOL   H11032172   3.221   1.472   7.124 -0.6317  2.3521 -0.1267
   42MOL   H11132173   3.125   1.384   7.010 -0.8079 -1.1036  0.7283
   42MOL   H11232174   3.017   1.468   7.289  1.7323  0.4979 -0.0850
   42MOL   H11332175   3.082   1.201   7.154  0.5167  0.8420 -1.6898
   42MOL   H11432176   3.148   1.272   7.302 -0.9272 -1.2560  0.1421
   42MOL   H11532177   2.804   1.001   7.369  2.8636  0.4929  0.9033
   42MOL   H11632178   2.647   0.867   7.487  0.6099 -0.5483  0.8377
   42MOL   H11732179   2.713   1.089   7.838  0.4285  0.4496  0.7149
   42MOL   H11832180   2.860   1.246   7.726  0.2431  0.8418 -0.0511
   42MOL   C11932181   2.298   0.717   0.342  0.1480 -0.1493 -0.5471
   42MOL   C12032182   2.338   0.811   0.225 -0.5060 -0.2694 -0.5358
   42MOL   C12132183   2.420   0.733   0.122  0.0796 -0.2530  0.1309
   42MOL   C12232184   2.482   0.835   0.023 -0.8043 -0.6350 -0.4106
   42MOL   O12332185   2.547   0.762   7.954  0.0585  1.0150  0.2749
   42MOL   C12432186   2.538   0.657   0.189 -0.3327  0.1942 -0.7610
   42MOL   C12532187   2.499   0.560   0.292 -0.1458  0.7822 -0.4527
   42MOL   C12632188   2.418   0.635   0.401  0.0822 -0.0779  0.0203
   42MOL   C12732189   2.382   0.528   0.507 -0.4789 -0.9438  0.1646
   42MOL   O12832190   2.309   0.593   0.616  0.5374  0.6047  0.3533
   42MOL   C12932191   2.353   0.595   0.737  0.1435  0.4324 -0.1827
   42MOL   O13032192   2.472   0.579   0.770 -0.3398 -0.1459 -0.2161
   42MOL   C13132193   2.246   0.621   0.837 -0.4492 -0.5633 -0.5067
   42MOL   C13232194   2.120   0.674   0.794  0.1306  0.8371 -0.5761
   42MOL   C13332195   2.016   0.678   0.888 -0.4001  0.1856 -0.2179
   42MOL   C13432196   2.041   0.637   1.029  0.0824  0.1170 -0.3718
   42MOL   C13532197   1.933   0.646   1.131 -0.2550  0.5112 -0.4424
   42MOL   O13632198   1.949   0.616   1.250 -0.3650 -0.0494 -0.0933
   42MOL   O13732199   1.817   0.694   1.075  0.0863  0.3776  0.0166
   42MOL   C13832200   2.169   0.587   1.064 -0.6000 -0.1948  0.4648
   42MOL   C13932201   2.275   0.582   0.970  0.2198 -0.1722  0.2552
   42MOL   H14032202   2.248   0.779   0.416  0.9060 -0.1931  0.0101
   42MOL   H14132203   2.223   0.653   0.296 -0.3726  0.1306 -0.0995
   42MOL   H14232204   2.252   0.852   0.172 -0.3471  0.3718 -0.3039
   42MOL   H14332205   2.396   0.891   0.270 -2.0998  0.3529  0.4370
   42MOL   H14432206   2.355   0.658   0.077  2.5527 -2.8685  0.7238
   42MOL   H14532207   2.414   0.911   8.020  1.4549  1.0998 -1.0673
   42MOL   H14632208   2.561   0.898   0.064 -2.0582  1.0133 -0.4659
   42MOL   H14732209   2.605   0.627   0.109  2.0840 -0.9373  1.6096
   42MOL   H14832210   2.600   0.733   0.236  0.4541 -0.4557 -0.7433
   42MOL   H14932211   2.588   0.516   0.336 -0.6237  1.3756  1.1372
   42MOL   H15032212   2.446   0.474   0.252  2.2318 -1.6672  1.5240
   42MOL   H15132213   2.487   0.700   0.453  1.1664  0.1480 -1.6830
   42MOL   H15232214   2.322   0.445   0.468 -1.6154  0.3731 -0.9106
   42MOL   H15332215   2.471   0.480   0.547  0.5709 -0.0440 -1.0491
   42MOL   H15432216   2.096   0.694   0.690  1.9478 -0.0429 -1.1954
   42MOL   H15532217   1.927   0.727   0.851  0.4224  0.5288 -1.8067
   42MOL   H15632218   2.188   0.549   1.163  0.5418 -1.5093 -0.2501
   42MOL   H15732219   2.366   0.529   0.990  0.0438 -1.0550 -1.2581
   42MOL   C15832220   1.337   0.614   1.419 -0.6286  0.5877 -0.3561
   42MOL   C15932221   1.485   0.615   1.370 -0.3615  0.6311  0.0068
   42MOL   C16032222   1.486   0.598   1.213 -0.4226 -0.5232 -0.8562
   42MOL   C16132223   1.623   0.581   1.145 -0.4259  0.8214 -0.5161
   42MOL   O16232224   1.693   0.699   1.162  0.5499 -0.7308 -0.0891
   42MOL   C16332225   1.415   0.471   1.181 -0.2013  0.1705 -0.1260
   42MOL   C16432226   1.271   0.468   1.235 -0.2950  0.6351  0.5578
   42MOL   C16532227   1.274   0.477   1.389 -0.3746 -0.4288  0.0194
   42MOL   C16632228   1.135   0.442   1.455 -0.3362  0.1890  0.0152
   42MOL   O16732229   1.035   0.534   1.400 -0.1675  0.6239  0.4669
   42MOL   C16832230   0.902   0.501   1.422 -0.1987  0.5784 -0.2026
   42MOL   O16932231   0.868   0.404   1.487 -0.7312  0.5885  0.0136
   42MOL   C17032232   0.813   0.606   1.358 -0.6617 -0.0551  0.5619
   42MOL   C17132233   0.680   0.623   1.406 -0.6249  0.0012  0.4554
   42MOL   C17232234   0.597   0.723   1.357  0.6149 -0.1085  0.6699
   42MOL   C17332235   0.648   0.821   1.262 -0.5020  0.1287  1.0688
   42MOL   C17432236   0.554   0.928   1.212  0.1580 -0.2563 -0.2154
   42MOL   O17532237   0.441   0.948   1.263 -0.1369 -0.6682 -0.0627
   42MOL   O17632238   0.619   1.014   1.124 -0.0212  1.0942 -0.4522
   42MOL   C17732239   0.775   0.800   1.212 -0.7395  0.4702  0.1343
   42MOL   C17832240   0.862   0.699   1.259  0.3609  0.0258 -0.5222
   42MOL   H17932241   1.328   0.635   1.525  1.4741 -2.7006  0.5444
   42MOL   H18032242   1.272   0.686   1.370 -2.2117  0.5757  1.6785
   42MOL   H18132243   1.538   0.705   1.400 -0.8458  1.6347 -2.0677
   42MOL   H18232244   1.533   0.525   1.408 -2.2059 -0.7301 -0.7707
   42MOL   H18332245   1.441   0.686   1.167 -0.6882 -0.0568  0.2668
   42MOL   H18432246   1.677   0.493   1.179  1.6868  2.6759  1.0619
   42MOL   H18532247   1.615   0.565   1.037 -1.6689  1.2080 -0.4875
   42MOL   H18632248   1.413   0.479   1.072 -1.0393  0.0963 -0.1177
   42MOL   H18732249   1.468   0.383   1.216  1.4348  2.0237  2.2693
   42MOL   H18832250   1.216   0.382   1.199  0.7790  0.5626 -0.9324
   42MOL   H18932251   1.210   0.545   1.188 -2.2633 -1.7706 -0.8959
   42MOL   H19032252   1.347   0.403   1.421 -1.8810 -1.2326  1.7036
   42MOL   H19132253   1.099   0.341   1.437 -0.6508 -0.3833  3.4381
   42MOL   H19232254   1.135   0.449   1.564  3.1665 -0.1897  0.1010
   42MOL   H19332255   0.641   0.549   1.475  0.0734 -1.1552 -0.3613
   42MOL   H19432256   0.495   0.729   1.393 -0.7768  0.0295 -3.0725
   42MOL   H19532257   0.806   0.857   1.127  1.3838  0.3483  0.7986
   42MOL   H19632258   0.961   0.705   1.217 -0.0855  2.6424 -1.3090
   42MOL   C19732259   0.636   1.544   0.974  0.3920 -0.2498 -0.0037
   42MOL   C19832260   0.567   1.431   1.045 -0.0674  0.7000  0.4044
   42MOL   C19932261   0.658   1.359   1.145 -0.0091 -0.2953 -0.1221
   42MOL   C20032262   0.605   1.235   1.215  0.0929 -0.3443 -0.5682
   42MOL   O20132263   0.558   1.145   1.118  0.3659  0.2789  0.3716
   42MOL   C20232264   0.795   1.328   1.086  0.6077 -0.0795 -0.0896
   42MOL   C20332265   0.862   1.444   1.015 -0.2186 -0.1021  0.0259
   42MOL   C20432266   0.765   1.489   0.907  0.3762  0.1800  0.2698
   42MOL   C20532267   0.829   1.601   0.816 -0.3067 -0.1191 -0.2369
   42MOL   O20632268   0.954   1.553   0.765  0.2474 -0.7885 -0.2166
   42MOL   C20732269   1.041   1.640   0.705  0.4864 -0.2829 -0.4427
   42MOL   O20832270   1.024   1.762   0.696 -0.0991 -0.4189 -0.1265
   42MOL   C20932271   1.168   1.570   0.665  0.2413  0.7591 -0.3174
   42MOL   C21032272   1.177   1.426   0.680 -0.1862  0.6234 -0.5047
   42MOL   C21132273   1.287   1.361   0.623 -0.0070  0.1475 -0.3550
   42MOL   C21232274   1.397   1.437   0.574 -0.2799 -0.2268  0.2055
   42MOL   C21332275   1.522   1.373   0.524 -0.3035 -0.1279 -0.1521
   42MOL   O21432276   1.624   1.437   0.506  0.4807 -0.3004 -0.3506
   42MOL   O21532277   1.516   1.236   0.541  0.0001  0.0729 -0.1484
   42MOL   C21632278   1.388   1.577   0.564 -0.1733 -0.0403  0.0821
   42MOL   C21732279   1.272   1.642   0.611 -0.3408  0.1147 -0.1127
   42MOL   H21832280   0.574   1.585   0.894  0.6090 -2.4950 -1.3536
   42MOL   H21932281   0.655   1.632   1.036 -1.2903 -0.1225  0.3779
   42MOL   H22032282   0.477   1.477   1.087 -0.8270 -0.7405  0.3998
   42MOL   H22132283   0.538   1.351   0.977 -1.1470  0.5662  1.0107
   42MOL   H22232284   0.685   1.431   1.223 -0.3148 -0.1008 -0.1912
   42MOL   H22332285   0.672   1.186   1.287  0.8358 -0.6000 -1.4181
   42MOL   H22432286   0.526   1.264   1.284  1.4993  1.6986  0.2314
   42MOL   H22532287   0.869   1.299   1.161  1.3470  2.1141  0.0664
   42MOL   H22632288   0.773   1.248   1.016  0.9172 -0.3190  0.0831
   42MOL   H22732289   0.961   1.418   0.980  0.1508  1.5433 -0.1830
   42MOL   H22832290   0.871   1.521   1.092 -1.9778 -0.7282  0.9080
   42MOL   H22932291   0.730   1.399   0.855 -0.2565  0.4983  0.1321
   42MOL   H23032292   0.763   1.643   0.741  0.2204  0.2834 -0.4778
   42MOL   H23132293   0.847   1.693   0.871  1.4667  0.6725 -2.0798
   42MOL   H23232294   1.103   1.370   0.734  1.7040 -1.7693 -0.3381
   42MOL   H23332295   1.292   1.253   0.628  2.8328  0.2929  0.7995
   42MOL   H23432296   1.473   1.627   0.520  1.1866 -1.4790  1.0347
   42MOL   H23532297   1.260   1.750   0.609 -3.6989 -0.1986  0.4752
   42MOL   C23632298   1.467   1.052   0.968 -0.6515 -0.4389  0.1159
   42MOL   C23732299   1.509   1.118   0.827  0.0236  0.4868 -0.1236
   42MOL   C23832300   1.642   1.066   0.767 -0.2118  0.5032 -0.0181
   42MOL   C23932301   1.704   1.149   0.654 -0.7562  0.1810  0.6087
   42MOL   O24032302   1.638   1.165   0.528  0.0792 -0.4440 -0.2211
   42MOL   C24132303   1.748   1.041   0.874  0.8906  0.6556 -0.1445
   42MOL   C24232304   1.694   0.975   0.997 -0.5489  0.8127  0.5921
   42MOL   C24332305   1.582   1.060   1.065 -0.8350 -0.3819  0.0208
   42MOL   C24432306   1.534   1.003   1.195 -0.5485  0.3016  0.2188
   42MOL   O24532307   1.417   1.072   1.239  0.4118  0.0747 -0.1743
   42MOL   C24632308   1.296   1.019   1.251 -0.2508  0.6405 -0.6453
   42MOL   O24732309   1.270   0.900   1.227 -0.4895 -0.3259  0.0345
   42MOL   C24832310   1.195   1.114   1.281  0.1444 -0.3724  0.4384
   42MOL   C24932311   1.222   1.247   1.308 -0.1416 -0.8890 -0.2087
   42MOL   C25032312   1.129   1.341   1.346 -0.2768  0.8446  0.1849
   42MOL   C25132313   0.996   1.294   1.382  0.8205 -0.3042  0.1200
   42MOL   C25232314   0.896   1.389   1.442 -0.3463  0.3226  0.0979
   42MOL   O25332315   0.782   1.347   1.472 -0.0758 -0.2445 -0.0934
   42MOL   O25432316   0.936   1.516   1.443  0.5879 -0.1644 -0.5705
   42MOL   C25532317   0.970   1.154   1.359  1.1111 -0.2912  0.2507
   42MOL   C25632318   1.065   1.070   1.300 -0.9793  0.0092  0.0715
   42MOL   H25732319   1.383   1.108   1.008 -1.7056 -0.0090 -2.6294
   42MOL   H25832320   1.416   0.958   0.946 -2.8122  0.4305  1.2958
   42MOL   H25932321   1.432   1.093   0.753  0.3796  0.5105 -0.5045
   42MOL   H26032322   1.509   1.226   0.834 -0.2560  0.5264 -0.6823
   42MOL   H26132323   1.625   0.967   0.724  1.7450  1.2359 -2.5847
   42MOL   H26232324   1.729   1.246   0.697  3.4620 -1.5372  2.2308
   42MOL   H26332325   1.802   1.107   0.632 -0.0529  1.3506  1.4241
   42MOL   H26432326   1.838   0.991   0.841 -0.3717 -1.2690 -0.7860
   42MOL   H26532327   1.782   1.141   0.901 -1.4555  1.1155  1.3430
   42MOL   H26632328   1.771   0.965   1.074 -2.6196 -1.0830  2.4707
   42MOL   H26732329   1.667   0.874   0.970 -0.4002  1.5134 -2.3019
   42MOL   H26832330   1.610   1.164   1.080  1.2930 -0.7073 -1.3637
   42MOL   H26932331   1.514   0.897   1.187 -1.1120  0.4403 -0.1963
   42MOL   H27032332   1.609   1.013   1.273 -1.5032 -1.6644  1.4042
   42MOL   H27132333   1.323   1.279   1.289  0.6517 -2.3427  1.4581
   42MOL   H27232334   1.154   1.445   1.356 -1.0930  1.4666 -3.3070
   42MOL   H27332335   0.869   1.120   1.374  1.1682 -0.6060 -0.0934
   42MOL   H27432336   1.044   0.966   1.279 -0.9253 -0.0774  0.4571
   42MOL   C27532337   0.404   1.726   1.429 -0.8093 -0.7990  0.0472
   42MOL   C27632338   0.543   1.667   1.406  0.5352  0.1498  0.1870
   42MOL   C27732339   0.659   1.770   1.396  0.0538  0.2033  0.1740
   42MOL   C27832340   0.791   1.695   1.367 -0.1672  0.8269  0.3498
   42MOL   O27932341   0.827   1.608   1.479  0.0654 -0.6044 -0.2167
   42MOL   C28032342   0.624   1.868   1.281 -0.5209  0.2429 -0.3166
   42MOL   C28132343   0.487   1.941   1.313  0.4504 -0.1426 -0.1812
   42MOL   C28232344   0.372   1.841   1.328  0.6549 -0.2748 -0.6807
   42MOL   C28332345   0.238   1.904   1.375 -0.4457 -0.1728  0.1126
   42MOL   O28432346   0.203   2.013   1.293  0.3452 -0.0691 -0.1507
   42MOL   C28532347   0.089   2.005   1.220 -0.7604 -0.0684  0.5125
   42MOL   O28632348   8.023   1.948   1.265 -0.3730 -0.0528 -0.1457
   42MOL   C28732349   0.105   2.071   1.086  0.4621 -0.7484 -0.4884
   42MOL   C28832350   0.218   2.156   1.066 -1.1644  0.2610 -0.5034
   42MOL   C28932351   0.223   2.248   0.963  0.1818 -0.1878 -0.0909
   42MOL   C29032352   0.117   2.269   0.875  0.2451 -0.0190 -0.6373
   42MOL   C29132353   0.122   2.369   0.773 -0.4083 -0.0892  0.0758
   42MOL   O29232354   0.024   2.434   0.732 -0.0313  0.2166 -0.5572
   42MOL   O29332355   0.248   2.394   0.727  0.5359 -0.2285  0.0321
   42MOL   C29432356   0.008   2.180   0.887 -0.3030 -0.1746  0.1244
   42MOL   C29532357   8.035   2.082   0.991  0.1122  0.1855 -0.5333
   42MOL   H29632358   0.331   1.645   1.435  0.0935 -1.6333 -0.0355
   42MOL   H29732359   0.393   1.775   1.525 -0.1233  1.1696 -0.8608
   42MOL   H29832360   0.568   1.596   1.485  3.2385 -0.0294 -0.7775
   42MOL   H29932361   0.552   1.602   1.319  1.1108  0.7538 -0.2055
   42MOL   H30032362   0.664   1.821   1.492 -1.0868 -1.2126  1.0058
   42MOL   H30132363   0.785   1.634   1.277 -0.5323  1.1653  0.1422
   42MOL   H30232364   0.869   1.771   1.358 -1.4462  2.2910  1.3843
   42MOL   H30332365   0.698   1.945   1.260  0.0152 -0.1306  0.2130
   42MOL   H30432366   0.616   1.815   1.186  0.6196 -0.5754  0.0353
   42MOL   H30532367   0.456   2.002   1.228  1.6453 -0.4799 -0.8640
   42MOL   H30632368   0.489   2.004   1.401  1.0074  0.8180 -0.8801
   42MOL   H30732369   0.344   1.816   1.226  0.5728  0.1005 -0.7513
   42MOL   H30832370   0.165   1.823   1.374 -0.6433  0.0198 -0.9838
   42MOL   H30932371   0.249   1.944   1.476  0.2347 -0.7181  0.2554
   42MOL   H31032372   0.301   2.155   1.136 -1.6872  0.1946  0.1204
   42MOL   H31132373   0.312   2.309   0.957 -0.4883  0.9435  1.1269
   42MOL   H31232374   7.963   2.192   0.816  0.3947  6.4265  0.1148
   42MOL   H31332375   7.948   2.020   1.007 -0.0004  0.5060  0.1072
   42MOL   C31432376   0.627   2.666   0.904  0.0966  0.5555 -0.2145
   42MOL   C31532377   0.501   2.697   0.826  0.0012  0.2149  0.3888
   42MOL   C31632378   0.465   2.573   0.740  0.0380 -0.4896  0.5608
   42MOL   C31732379   0.326   2.597   0.669  0.6752  0.5527  0.1354
   42MOL   O31832380   0.267   2.485   0.621  0.3893 -0.2694 -0.3717
   42MOL   C31932381   0.576   2.547   0.647 -0.3304  0.3673  0.5680
   42MOL   C32032382   0.701   2.513   0.724  0.3411  0.4087  0.1743
   42MOL   C32132383   0.744   2.629   0.809 -0.0241  0.1224 -0.5595
   42MOL   C32232384   0.884   2.618   0.859  0.2255  0.8058 -0.4892
   42MOL   O32332385   0.893   2.495   0.924 -0.6171  0.1575  0.3313
   42MOL   C32432386   1.013   2.441   0.950  0.7730 -0.0498 -0.1348
   42MOL   O32532387   1.121   2.498   0.934 -0.9417  0.6822  0.9105
   42MOL   C32632388   1.007   2.300   0.995  0.5524 -0.2365 -0.1037
   42MOL   C32732389   1.130   2.231   1.017  0.2911 -0.5098  0.6576
   42MOL   C32832390   1.137   2.095   1.055 -0.1483 -0.1335  0.9294
   42MOL   C32932391   1.011   2.026   1.060 -0.6473  0.1256 -0.4301
   42MOL   C33032392   1.008   1.881   1.086  0.6404  0.2492 -0.2596
   42MOL   O33132393   0.907   1.810   1.083  0.0039 -0.1163 -0.3357
   42MOL   O33232394   1.137   1.832   1.107  0.0109 -0.2154 -0.0213
   42MOL   C33332395   0.896   2.095   1.041 -0.2375 -0.1849  0.3558
   42MOL   C33432396   0.891   2.230   1.009  0.0106 -0.2596 -0.6407
   42MOL   H33532397   0.656   2.757   0.957  0.6699 -0.2898  0.9298
   42MOL   H33632398   0.604   2.593   0.982  1.1926 -0.6491 -0.9912
   42MOL   H33732399   0.412   2.701   0.889 -0.5778 -1.3759 -0.2996
   42MOL   H33832400   0.509   2.785   0.762  0.5449 -0.9836 -1.2223
   42MOL   H33932401   0.457   2.493   0.814 -2.1473 -1.7243 -0.9462
   42MOL   H34032402   0.245   2.648   0.722 -1.3055 -2.1168 -0.2349
   42MOL   H34132403   0.344   2.652   0.576 -0.0119 -0.1966 -0.4481
   42MOL   H34232404   0.550   2.471   0.573 -0.3204  2.5824 -1.8001
   42MOL   H34332405   0.590   2.631   0.578  2.1066  0.9000  1.6803
   42MOL   H34432406   0.779   2.509   0.648  0.3511  0.3538  0.1873
   42MOL   H34532407   0.689   2.417   0.774  1.6141  0.2441  0.1640
   42MOL   H34632408   0.761   2.718   0.748 -0.5348  0.4969 -0.1630
   42MOL   H34732409   0.947   2.612   0.770  2.7838  1.8854  1.1877
   42MOL   H34832410   0.904   2.697   0.932  0.9284 -0.3447  0.5802
   42MOL   H34932411   1.227   2.278   1.021  0.2795 -0.4825  0.6192
   42MOL   H35032412   1.236   2.053   1.060 -0.1217 -0.2411 -0.4070
   42MOL   H35132413   0.800   2.044   1.040 -1.4982  2.1019  0.2678
   42MOL   H35232414   0.795   2.274   0.985 -0.6044 -0.9187  0.5382
   42MOL   C35332415   1.572   1.743   1.077 -0.5907 -0.6768 -0.1873
   42MOL   C35432416   1.424   1.751   1.066  0.1848 -0.2753  0.1625
   42MOL   C35532417   1.355   1.619   1.089 -1.0401 -0.3417 -0.2497
   42MOL   C35632418   1.206   1.622   1.073 -0.6596  0.1118 -0.3590
   42MOL   O35732419   1.150   1.702   1.173 -0.2651  0.9489 -1.2387
   42MOL   C35832420   1.412   1.515   0.998 -0.1938  0.2849 -0.0494
   42MOL   C35932421   1.562   1.498   1.025  0.4386 -0.3643 -0.3808
   42MOL   C36032422   1.629   1.632   0.986 -0.7048 -0.0384 -0.0395
   42MOL   C36132423   1.778   1.620   1.012  0.6038 -0.3296  0.0884
   42MOL   O36232424   1.847   1.557   0.902  0.0411 -0.1303  0.3453
   42MOL   C36332425   1.906   1.437   0.912 -0.0127  0.2898  0.7293
   42MOL   O36432426   1.912   1.366   1.011 -0.1843  0.1317 -0.0671
   42MOL   C36532427   1.962   1.397   0.780 -0.1812  0.1374  0.3967
   42MOL   C36632428   2.070   1.304   0.774 -0.1810 -0.0519 -0.2346
   42MOL   C36732429   2.126   1.269   0.656 -0.4609 -0.0563  0.5462
   42MOL   C36832430   2.085   1.334   0.533 -0.3483 -0.0389 -0.2767
   42MOL   C36932431   2.161   1.302   0.409  0.0208  0.2666  0.5025
   42MOL   O37032432   2.251   1.217   0.403 -0.4156  0.2972  0.3106
   42MOL   O37132433   2.123   1.371   0.302  0.3023 -0.2717  0.5762
   42MOL   C37232434   1.990   1.429   0.538 -0.1207 -0.1915 -0.2788
   42MOL   C37332435   1.918   1.450   0.658  0.2638  0.0105  0.6459
   42MOL   H37432436   1.615   1.836   1.041 -0.9062 -0.5195 -0.1573
   42MOL   H37532437   1.604   1.717   1.178  0.0753  0.2141 -0.1638
   42MOL   H37632438   1.404   1.817   1.151  1.3570 -0.8270  0.8781
   42MOL   H37732439   1.399   1.798   0.971  2.8445 -0.3681 -0.6148
   42MOL   H37832440   1.371   1.595   1.194  1.6645 -1.0938 -0.7951
   42MOL   H37932441   1.176   1.654   0.973  1.3216  3.6902  0.1156
   42MOL   H38032442   1.166   1.522   1.085  0.1778 -0.1012  0.7579
   42MOL   H38132443   1.349   1.426   1.006 -2.0084  1.6970  1.5944
   42MOL   H38232444   1.410   1.546   0.894  1.7169 -1.5895 -0.6870
   42MOL   H38332445   1.611   1.413   0.977  1.1135  0.0749 -0.4806
   42MOL   H38432446   1.584   1.483   1.130  2.3647  0.5308 -0.6247
   42MOL   H38532447   1.599   1.647   0.883 -1.1228 -0.7761 -0.0312
   42MOL   H38632448   1.803   1.726   1.021  0.2841 -0.1440 -1.2072
   42MOL   H38732449   1.781   1.573   1.111 -0.1062 -2.5231 -0.9055
   42MOL   H38832450   2.100   1.253   0.865 -0.3557 -1.9871 -1.2195
   42MOL   H38932451   2.200   1.191   0.646 -0.4732  0.3325 -3.3134
   42MOL   H39032452   1.961   1.475   0.445 -0.0522 -0.0321 -0.2236
   42MOL   H39132453   1.833   1.517   0.652  0.7751  0.7123  1.0874
   42MOL   C39232454   2.322   1.289   7.761 -0.2127  0.0973  0.2279
   42MOL   C39332455   2.247   1.336   7.891 -0.3896  0.3125  0.0908
   42MOL   C39432456   2.243   1.228   8.002 -0.0945 -0.1519  0.2365
   42MOL   C39532457   2.141   1.266   0.083 -0.1791 -0.5977  0.1714
   42MOL   O39632458   2.215   1.338   0.188  0.1909  0.3097  0.1979
   42MOL   C39732459   2.190   1.093   7.937 -0.7842 -0.1529 -0.0889
   42MOL   C39832460   2.273   1.044   7.816 -0.1317 -0.8359 -0.3437
   42MOL   C39932461   2.282   1.151   7.708  0.6350  0.8486 -0.9142
   42MOL   C40032462   2.371   1.107   7.589 -0.0562  0.1374 -0.4167
   42MOL   O40132463   2.311   1.008   7.504  0.4752  0.1994 -0.5494
   42MOL   C40232464   2.219   1.046   7.412  0.4372 -0.3734  0.4896
   42MOL   O40332465   2.176   1.156   7.390  0.6000  0.5158 -0.2397
   42MOL   C40432466   2.163   0.930   7.338  0.4672  0.3666  0.1499
   42MOL   C40532467   2.137   0.807   7.409 -0.3111  0.6330  0.4916
   42MOL   C40632468   2.075   0.700   7.344 -0.2028  0.4386 -0.3907
   42MOL   C40732469   2.046   0.705   7.209  0.8803  0.6483 -0.4767
   42MOL   C40832470   1.991   0.592   7.137  0.4734 -0.1284  0.5396
   42MOL   O40932471   1.991   0.587   7.011 -0.1359  0.2066  0.4513
   42MOL   O41032472   1.930   0.494   7.218 -0.6737 -0.1339  0.5553
   42MOL   C41132473   2.065   0.828   7.140 -0.2270  0.1833 -0.1826
   42MOL   C41232474   2.127   0.937   7.202 -0.0567 -0.5077  0.1887
   42MOL   H41332475   2.320   1.363   7.681  1.6278  1.2346  1.1968
   42MOL   H41432476   2.426   1.296   7.793 -1.2824 -0.7234  4.0717
   42MOL   H41532477   2.297   1.426   7.929  0.3932 -0.6398  1.3865
   42MOL   H41632478   2.142   1.357   7.875 -0.4729 -0.0614  0.1569
   42MOL   H41732479   2.339   1.224   0.018 -1.3523  0.4717  2.7423
   42MOL   H41832480   2.048   1.321   0.066  0.2572  0.7148  1.8803
   42MOL   H41932481   2.120   1.170   0.128  0.8427 -1.3311 -0.8722
   42MOL   H42032482   2.199   1.014   8.012  1.5232  0.4949  0.3563
   42MOL   H42132483   2.085   1.092   7.906 -0.9141  0.6250  0.3174
   42MOL   H42232484   2.238   0.944   7.787 -2.6308  0.5262 -2.2198
   42MOL   H42332485   2.371   1.007   7.847 -1.1714 -4.6984 -1.3537
   42MOL   H42432486   2.179   1.153   7.673  0.2410  0.5656  0.2135
   42MOL   H42532487   2.418   1.194   7.543 -0.1260  0.0024 -0.7397
   42MOL   H42632488   2.464   1.056   7.616 -1.2388 -1.3624  0.9436
   42MOL   H42732489   2.173   0.806   7.511 -0.2301  0.7240  0.4652
   42MOL   H42832490   2.040   0.616   7.402 -0.7742  0.1790 -1.1104
   42MOL   H42932491   2.052   0.834   7.033 -1.0937  2.6186  0.0494
   42MOL   H43032492   2.150   1.026   7.145  2.7109 -2.8897 -2.5873
   42MOL   C43132493   1.796   7.958   7.155 -0.0272  0.0236  0.0896
   42MOL   C43232494   1.824   0.067   7.199 -0.1003 -0.1016  0.1865
   42MOL   C43332495   1.955   0.127   7.147 -0.2311 -0.2900 -0.0220
   42MOL   C43432496   2.005   0.267   7.197 -0.2885 -0.9045  0.0210
   42MOL   O43532497   1.911   0.357   7.146 -0.3095  0.1487  0.5256
   42MOL   C43632498   2.074   0.032   7.162  0.3698  0.3108 -0.2859
   42MOL   C43732499   2.040   7.924   7.121 -0.1368  0.4442  0.2312
   42MOL   C43832500   1.916   7.873   7.188 -0.2180  0.6349  0.1102
   42MOL   C43932501   1.888   7.719   7.163 -0.6730 -0.4996  0.3076
   42MOL   O44032502   1.878   7.684   7.023  0.4098  0.6429  0.4377
   42MOL   C44132503   1.938   7.573   6.986  0.0179  0.1399 -0.2028
   42MOL   O44232504   2.021   7.507   7.048  0.8498 -0.5295 -0.0045
   42MOL   C44332505   1.903   7.535   6.845  0.4430 -0.2280  0.0258
   42MOL   C44432506   1.980   7.434   6.780 -0.0494 -0.1195  0.2918
   42MOL   C44532507   1.955   7.406   6.640 -0.0552  0.1718 -0.6152
   42MOL   C44632508   1.853   7.476   6.568 -0.0496  0.5314  0.3700
   42MOL   C44732509   1.819   7.437   6.429 -0.4479  0.8644 -0.7005
   42MOL   O44832510   1.890   7.355   6.366 -0.6331 -0.1701 -0.0697
   42MOL   O44932511   1.704   7.493   6.380 -0.3096  0.1192 -0.6448
   42MOL   C45032512   1.791   7.585   6.635 -0.7299 -0.2629 -0.4661
   42MOL   C45132513   1.812   7.606   6.770 -0.4640 -0.2599  0.0360
   42MOL   H45232514   1.703   7.923   7.199  0.3855 -2.8021 -1.1953
   42MOL   H45332515   1.789   7.957   7.046  0.6883 -1.3292  0.0434
   42MOL   H45432516   1.743   0.137   7.179 -2.5994 -1.8856  3.4769
   42MOL   H45532517   1.835   0.079   7.307 -0.0722  4.0480 -0.1813
   42MOL   H45632518   1.939   0.141   7.040 -1.1709  0.7942  0.2563
   42MOL   H45732519   2.000   0.261   7.306 -3.2961  1.1660  0.0594
   42MOL   H45832520   2.105   0.299   7.171 -0.9398  0.5824 -0.7113
   42MOL   H45932521   2.154   0.067   7.097  0.9643  0.8415  0.7133
   42MOL   H46032522   2.114   0.030   7.263 -0.3247 -0.1264 -0.0177
   42MOL   H46132523   2.124   7.859   7.142 -1.8141 -1.5170  1.0414
   42MOL   H46232524   2.022   7.907   7.015  2.7673  1.8519 -0.5441
   42MOL   H46332525   1.947   7.883   7.292 -1.2471 -2.7674  0.8096
   42MOL   H46432526   1.966   7.665   7.216  0.2659 -0.4678 -1.0280
   42MOL   H46532527   1.797   7.693   7.218  0.4126 -3.9109  0.5985
   42MOL   H46632528   2.061   7.374   6.819 -1.3609 -2.6607 -0.7370
   42MOL   H46732529   2.006   7.323   6.594  0.2228  1.1485 -2.1001
   42MOL   H46832530   1.724   7.654   6.586  2.4925  2.8975 -0.6288
   42MOL   H46932531   1.763   7.692   6.812  2.2713  0.7107  1.3388
   42MOL   C47032532   1.703   7.182   5.894  0.0361 -0.6221  0.1823
   42MOL   C47132533   1.705   7.244   6.036 -0.2954  0.1274  0.5373
   42MOL   C47232534   1.572   7.302   6.078 -0.2672 -0.1552 -0.0825
   42MOL   C47332535   1.587   7.359   6.225  0.3520 -0.0337  0.0196
   42MOL   O47432536   1.687   7.464   6.234 -0.3939 -0.1552  0.5907
   42MOL   C47532537   1.514   7.404   5.978  0.7774 -0.8995 -0.0426
   42MOL   C47632538   1.497   7.342   5.843 -0.3594  0.1477  0.3296
   42MOL   C47732539   1.639   7.290   5.799 -0.5771  0.7505 -0.0906
   42MOL   C47832540   1.637   7.218   5.658  0.6181 -0.4494 -0.0692
   42MOL   O47932541   1.544   7.114   5.671 -0.1537 -1.1470  0.4943
   42MOL   C48032542   1.495   7.049   5.562 -0.0354  0.1414 -0.0637
   42MOL   O48132543   1.542   7.060   5.444 -0.5486 -0.1518 -0.0610
   42MOL   C48232544   1.389   6.949   5.596  0.0887 -0.1006  0.9683
   42MOL   C48332545   1.361   6.845   5.510 -0.6201 -0.0172  0.3260
   42MOL   C48432546   1.243   6.760   5.528 -0.1239 -0.0796 -0.3243
   42MOL   C48532547   1.151   6.790   5.626 -0.0612  0.6148  0.3494
   42MOL   C48632548   1.028   6.703   5.641  0.0724  0.0415 -0.3534
   42MOL   O48732549   0.995   6.610   5.559 -0.6022  0.0467 -0.1513
   42MOL   O48832550   0.941   6.750   5.739 -0.5454  0.4493  0.8538
   42MOL   C48932551   1.191   6.893   5.720  0.5561  1.1119  0.6083
   42MOL   C49032552   1.313   6.964   5.705  0.4869  0.3701 -0.3100
   42MOL   H49132553   1.806   7.155   5.872  0.3016 -0.5772  1.3710
   42MOL   H49232554   1.654   7.084   5.889  0.6833 -0.8441 -2.9731
   42MOL   H49332555   1.732   7.167   6.108 -0.6744 -0.4615  0.0545
   42MOL   H49432556   1.780   7.323   6.033 -0.0112 -0.1909 -1.2383
   42MOL   H49532557   1.499   7.221   6.082  0.3890 -0.8519 -1.8311
   42MOL   H49632558   1.493   7.410   6.246  0.5851  0.0386  0.9164
   42MOL   H49732559   1.611   7.279   6.295  0.5071 -0.3591 -0.4042
   42MOL   H49832560   1.418   7.448   6.004  0.5882 -0.9410 -0.6476
   42MOL   H49932561   1.574   7.494   5.972 -1.0527  0.3897  0.4953
   42MOL   H50032562   1.461   7.415   5.771 -2.2626  0.9612  2.0898
   42MOL   H50132563   1.416   7.270   5.852 -0.8360  0.7711  1.0532
   42MOL   H50232564   1.708   7.372   5.780  1.7928 -0.5363  2.5540
   42MOL   H50332565   1.602   7.288   5.581 -2.2690 -0.0630  1.5168
   42MOL   H50432566   1.738   7.182   5.639  0.1403 -0.7462 -2.2296
   42MOL   H50532567   1.427   6.839   5.425 -0.2101 -0.0093  0.6476
   42MOL   H50632568   1.232   6.670   5.469  1.0574 -1.4950  1.5373
   42MOL   H50732569   1.128   6.924   5.802  1.1412 -1.4829  2.0924
   42MOL   H50832570   1.341   7.035   5.782 -0.1493  0.0541  0.2247
   42MOL   C50932571   0.448   6.508   5.539  0.3876  0.2892 -0.2595
   42MOL   C51032572   0.589   6.568   5.553  0.1108  0.7773 -0.3165
   42MOL   C51132573   0.586   6.714   5.604  0.1396  0.4646  0.5559
   42MOL   C51232574   0.722   6.774   5.632 -0.0381 -0.1817  0.6075
   42MOL   O51332575   0.795   6.692   5.724 -0.0326 -0.1240 -0.2904
   42MOL   C51432576   0.499   6.801   5.506 -0.4697 -0.1365 -0.0484
   42MOL   C51532577   0.359   6.746   5.496 -0.0929 -0.4467  0.2702
   42MOL   C51632578   0.358   6.599   5.446 -0.0337 -0.7186  0.4810
   42MOL   C51732579   0.216   6.543   5.458 -0.4304  0.7128 -0.2413
   42MOL   O51832580   0.140   6.590   5.353  0.2301  0.3399  0.8146
   42MOL   C51932581   0.051   6.505   5.287 -0.2320  0.3921 -0.5433
   42MOL   O52032582   0.022   6.394   5.329 -0.2622 -0.3557  0.0581
   42MOL   C52132583   0.004   6.562   5.156  0.4080  0.2908  0.0193
   42MOL   C52232584   7.979   6.469   5.071  0.1445 -0.5541 -0.4910
   42MOL   C52332585   7.939   6.506   4.942 -0.4538 -0.3176 -0.2514
   42MOL   C52432586   7.955   6.641   4.900  0.3556  0.0432  0.6389
   42MOL   C52532587   7.912   6.687   4.763 -0.3985  0.9057 -0.0298
   42MOL   O52632588   7.932   6.797   4.720 -0.3394 -0.2274  0.2040
   42MOL   O52732589   7.844   6.590   4.691 -0.1337 -0.1583  0.7825
   42MOL   C52832590   8.023   6.733   4.988 -0.4347 -0.1654 -0.0926
   42MOL   C52932591   0.033   6.693   5.114 -0.1159 -0.0385 -0.4347
   42MOL   H53032592   0.459   6.403   5.514 -1.0903  0.5194 -1.9420
   42MOL   H53132593   0.404   6.520   5.638 -1.1488  0.4206 -0.9483
   42MOL   H53232594   0.661   6.515   5.616 -1.1680  0.2025  0.6828
   42MOL   H53332595   0.632   6.565   5.453  1.6206 -0.5216  0.3424
   42MOL   H53432596   0.541   6.715   5.703  0.5575 -2.3126  0.8266
   42MOL   H53532597   0.767   6.775   5.533 -2.6580 -0.6023 -0.6359
   42MOL   H53632598   0.719   6.878   5.667 -1.0524  1.1528 -3.2363
   42MOL   H53732599   0.491   6.904   5.541  0.8815  0.0401 -0.2176
   42MOL   H53832600   0.545   6.808   5.407  1.8032 -1.7807  0.8523
   42MOL   H53932601   0.295   6.811   5.435  0.4444  0.6224  0.8322
   42MOL   H54032602   0.324   6.747   5.599  1.0255 -0.8341  0.6532
   42MOL   H54132603   0.397   6.598   5.344 -1.3943  2.9503 -0.1689
   42MOL   H54232604   0.226   6.434   5.459 -1.1876  0.6244 -1.1867
   42MOL   H54332605   0.180   6.570   5.557 -0.0382 -2.0266  0.7063
   42MOL   H54432606   7.948   6.372   5.106 -1.9325 -0.5660 -2.3027
   42MOL   H54532607   7.891   6.443   4.867  1.0445 -0.7287 -0.8769
   42MOL   H54632608   8.035   6.834   4.949 -1.0283 -0.7397 -1.7977
   42MOL   H54732609   0.083   6.765   5.177  2.5833 -1.7781 -0.5376
   42MOL   C54832610   7.921   6.820   4.181 -0.0645 -0.2567 -0.1792
   42MOL   C54932611   7.932   6.779   4.327 -0.2938 -0.5447  0.0905
   42MOL   C55032612   7.931   6.626   4.330 -0.1503 -0.1418 -0.2923
   42MOL   C55132613   7.944   6.571   4.474 -0.9363 -0.4230  0.8396
   42MOL   O55232614   7.829   6.618   4.545 -1.0871  0.3230 -0.3739
   42MOL   C55332615   7.808   6.566   4.266  0.1008  0.0762 -0.6152
   42MOL   C55432616   7.767   6.627   4.121  0.0084 -0.4758 -0.2118
   42MOL   C55532617   7.786   6.779   4.124  0.0710 -0.5565  0.2956
   42MOL   C55632618   7.749   6.832   3.983  1.2433 -0.3496  0.3992
   42MOL   O55732619   7.612   6.883   3.990  0.1861  0.3422 -0.0468
   42MOL   C55832620   7.523   6.825   3.911  0.2006 -0.2045  0.0759
   42MOL   O55932621   7.531   6.720   3.851 -0.1560  0.5862  0.1172
   42MOL   C56032622   7.400   6.900   3.906 -0.4036  0.5653  0.2391
   42MOL   C56132623   7.393   7.034   3.963  0.3837  0.0382 -0.2457
   42MOL   C56232624   7.276   7.109   3.961 -0.4596 -0.5862  0.4102
   42MOL   C56332625   7.160   7.064   3.888 -0.5880  0.0830 -0.7491
   42MOL   C56432626   7.049   7.155   3.871  0.8382  0.6385  0.3004
   42MOL   O56532627   6.938   7.125   3.819 -0.1781 -0.5735  0.3800
   42MOL   O56632628   7.068   7.281   3.912  0.5238  0.0484  0.1517
   42MOL   C56732629   7.166   6.938   3.827 -0.3128 -0.0466 -0.1715
   42MOL   C56832630   7.284   6.853   3.843  0.3935 -0.3445  0.1697
   42MOL   H56932631   7.945   6.926   4.172 -3.4373  0.6362  0.8884
   42MOL   H57032632   7.997   6.762   4.128  0.1760  0.3478 -0.5071
   42MOL   H57132633   8.020   6.830   4.367  0.3215 -0.9190 -0.7737
   42MOL   H57232634   7.846   6.815   4.383 -1.1546  3.1723 -3.4247
   42MOL   H57332635   8.020   6.593   4.276 -0.4702 -1.0867 -0.2443
   42MOL   H57432636   7.950   6.463   4.460  1.7853 -0.2296  0.3062
   42MOL   H57532637   0.008   6.598   4.508 -0.2590 -1.1672 -0.5078
   42MOL   H57632638   7.823   6.458   4.258  0.9584  0.2254 -1.0656
   42MOL   H57732639   7.722   6.567   4.334 -0.1251 -2.1681 -0.8127
   42MOL   H57832640   7.666   6.602   4.091  0.3160  0.0118 -1.6771
   42MOL   H57932641   7.838   6.588   4.048  2.1863 -1.8713  2.5087
   42MOL   H58032642   7.726   6.824   4.203  1.8011  2.2407  0.0619
   42MOL   H58132643   7.804   6.920   3.950  0.3341 -0.3873 -1.2662
   42MOL   H58232644   7.763   6.765   3.898  2.9117  0.2161  0.2047
   42MOL   H58332645   7.478   7.075   4.016 -1.1661  1.2194  1.3917
   42MOL   H58432646   7.277   7.204   4.012  1.4640  0.5130 -1.6013
   42MOL   H58532647   7.076   6.910   3.775 -0.2300  0.0363 -0.3588
   42MOL   H58632648   7.287   6.755   3.799  0.7713 -0.5978  0.7631
   42MOL   C58732649   6.539   7.350   3.835  0.0142  0.6597  0.5896
   42MOL   C58832650   6.677   7.330   3.877 -0.2153  0.7958  0.0827
   42MOL   C58932651   6.751   7.462   3.921  0.1561  0.6648  0.4792
   42MOL   C59032652   6.888   7.429   3.975  0.5403 -0.1766  0.0770
   42MOL   O59132653   6.963   7.382   3.866 -0.6850  0.4776 -0.1796
   42MOL   C59232654   6.749   7.565   3.813 -0.1836 -0.5441  0.1939
   42MOL   C59332655   6.601   7.583   3.764  0.5034  0.1761  0.2904
   42MOL   C59432656   6.537   7.449   3.722 -0.2525 -0.2814  0.0787
   42MOL   C59532657   6.409   7.449   3.634 -0.4730 -0.8968 -0.8238
   42MOL   O59632658   6.418   7.330   3.561 -0.2325 -0.0913 -0.1004
   42MOL   C59732659   6.347   7.301   3.451  0.5134 -0.2607  0.0545
   42MOL   O59832660   6.270   7.375   3.395  0.2651 -0.1012  0.4132
   42MOL   C59932661   6.385   7.166   3.400 -0.3681 -0.7324  0.3643
   42MOL   C60032662   6.327   7.136   3.275 -0.3489  0.1268  0.0608
   42MOL   C60132663   6.361   7.015   3.210  0.4196 -0.0715 -0.3239
   42MOL   C60232664   6.456   6.927   3.271  0.1746  0.8506 -0.4438
   42MOL   C60332665   6.493   6.808   3.199 -0.5208  0.8482 -0.3229
   42MOL   O60432666   6.460   6.796   3.080  0.0119 -0.2572  0.1372
   42MOL   O60532667   6.568   6.725   3.262 -0.4630  0.7446 -0.0300
   42MOL   C60632668   6.500   6.949   3.403  0.2036 -0.3402 -0.2343
   42MOL   C60732669   6.465   7.069   3.469  0.5850  0.4490 -0.4131
   42MOL   H60832670   6.506   7.256   3.791  2.8462  0.7372 -1.8120
   42MOL   H60932671   6.477   7.379   3.920 -2.7420  0.8163 -1.3838
   42MOL   H61032672   6.667   7.269   3.967  2.3498  0.3169  0.0806
   42MOL   H61132673   6.729   7.266   3.807 -1.5840 -0.6416  0.3558
   42MOL   H61232674   6.692   7.503   4.003 -1.2733 -0.0196 -0.1768
   42MOL   H61332675   6.930   7.514   4.030 -1.5343  0.6717  0.3673
   42MOL   H61432676   6.867   7.351   4.048  0.2635 -0.2421 -0.0749
   42MOL   H61532677   6.786   7.661   3.848 -0.2857  0.0482 -1.3319
   42MOL   H61632678   6.816   7.531   3.734  1.1021 -1.7914  1.7634
   42MOL   H61732679   6.613   7.662   3.690  2.7206  0.5451  0.9912
   42MOL   H61832680   6.552   7.630   3.850  0.2946 -1.7462  1.2522
   42MOL   H61932681   6.613   7.402   3.660 -0.2871  2.3539 -2.0897
   42MOL   H62032682   6.324   7.451   3.701 -0.0066  0.0808 -0.2520
   42MOL   H62132683   6.416   7.533   3.565 -0.5500  0.5819  0.9259
   42MOL   H62232684   6.263   7.210   3.230 -1.8277 -2.0607 -1.5897
   42MOL   H62332685   6.309   6.985   3.120 -1.0682 -0.5167  0.6703
   42MOL   H62432686   6.558   6.876   3.456  0.5951  1.5090  1.9485
   42MOL   H62532687   6.492   7.071   3.574 -2.5098  2.5231  0.4356
   42MOL   C62632688   7.061   6.446   3.350  0.1236 -0.1401 -0.4800
   42MOL   C62732689   6.990   6.540   3.255 -0.4742  0.2541  0.2723
   42MOL   C62832690   6.832   6.548   3.279 -0.1629  0.2580  0.2751
   42MOL   C62932691   6.755   6.614   3.164 -0.2411  0.5785  0.1195
   42MOL   O63032692   6.614   6.603   3.182 -0.5311 -0.2442  0.3319
   42MOL   C63132693   6.781   6.405   3.286  0.6460  0.0520 -0.0577
   42MOL   C63232694   6.854   6.305   3.378  0.0511  0.5954 -0.3465
   42MOL   C63332695   7.004   6.301   3.351 -0.2535  0.5746 -0.5500
   42MOL   C63432696   7.070   6.205   3.452 -0.6232  0.3212  0.0867
   42MOL   O63532697   7.205   6.171   3.430 -0.4579 -0.3658  0.0269
   42MOL   C63632698   7.270   6.078   3.501  0.3084  0.2907  0.4787
   42MOL   O63732699   7.213   6.010   3.590 -0.2996  0.0058 -0.0892
   42MOL   C63832700   7.411   6.054   3.463  0.3943  0.4673  0.2051
   42MOL   C63932701   7.481   5.936   3.504  0.2997 -0.4980  0.2881
   42MOL   C64032702   7.616   5.919   3.473 -0.5562  0.3352  0.4599
   42MOL   C64132703   7.687   6.020   3.407 -0.6395  0.5516 -0.1529
   42MOL   C64232704   7.831   6.002   3.379 -0.0380 -0.3782  0.0294
   42MOL   O64332705   7.896   6.079   3.308 -0.6625 -0.0581  0.1203
   42MOL   O64432706   7.884   5.895   3.437 -0.7354  0.1265  0.1158
   42MOL   C64532707   7.624   6.141   3.373 -0.1592 -0.2637  0.1018
   42MOL   C64632708   7.483   6.155   3.394 -0.2489  0.1808  0.6701
   42MOL   H64732709   7.169   6.439   3.335  0.2462  0.1552  0.2136
   42MOL   H64832710   7.051   6.488   3.450  2.1708  0.8273 -0.6418
   42MOL   H64932711   7.042   6.635   3.261  2.0098 -1.1595  2.3140
   42MOL   H65032712   7.011   6.483   3.164 -0.4739  1.2075 -0.3242
   42MOL   H65132713   6.805   6.587   3.377  0.6822 -2.0642  1.4714
   42MOL   H65232714   6.782   6.720   3.166 -0.0199  0.5185  0.3654
   42MOL   H65332715   6.790   6.564   3.074 -0.8674 -2.6768  1.6149
   42MOL   H65432716   6.687   6.408   3.342  0.5731  0.9932 -0.2233
   42MOL   H65532717   6.770   6.359   3.188 -0.0922  1.4628 -0.6567
   42MOL   H65632718   6.814   6.207   3.355 -1.1464  0.3716  2.4514
   42MOL   H65732719   6.831   6.324   3.483 -2.4487 -1.7522 -0.4280
   42MOL   H65832720   7.019   6.263   3.250 -1.4076 -0.4013 -0.3662
   42MOL   H65932721   7.050   6.258   3.545 -1.4270  1.1901 -0.5653
   42MOL   H66032722   7.008   6.115   3.455  0.2404 -0.3065 -0.4471
   42MOL   H66132723   7.429   5.859   3.560  2.3629 -2.0558  0.0999
   42MOL   H66232724   7.658   5.822   3.498 -2.2976 -1.1681 -2.1200
   42MOL   H66332725   7.690   6.210   3.323  0.1770  1.1564  2.4267
   42MOL   H66432726   7.436   6.248   3.364  0.6385 -0.2310 -2.2113
   42MOL   C66532727   0.062   5.378   3.357 -0.5914  0.1130  0.3993
   42MOL   C66632728   0.076   5.521   3.295 -0.1193 -0.2587  0.0497
   42MOL   C66732729   0.023   5.637   3.385 -0.7101  0.2978  0.0643
   42MOL   C66832730   0.025   5.773   3.318  0.8704 -0.9217  0.4078
   42MOL   O66932731   8.035   5.880   3.408  0.1647  0.1031  0.0084
   42MOL   C67032732   7.922   5.604   3.443 -0.4632  0.2657 -0.7654
   42MOL   C67132733   7.924   5.474   3.506  0.2649  0.5715  0.6980
   42MOL   C67232734   7.958   5.362   3.408  0.3201  0.0747  0.3552
   42MOL   C67332735   7.936   5.229   3.472  0.1358  0.2188  0.2338
   42MOL   O67432736   7.931   5.131   3.370  0.2396 -0.2814 -0.0907
   42MOL   C67532737   7.818   5.072   3.333 -0.1291  0.3286  0.9023
   42MOL   O67632738   7.705   5.085   3.380  0.7590 -0.2143  0.5307
   42MOL   C67732739   7.854   4.971   3.222  0.5939  0.7398 -0.5533
   42MOL   C67832740   7.763   4.863   3.196 -0.1383  0.9051  0.1103
   42MOL   C67932741   7.797   4.761   3.097 -0.8720 -0.2286  0.1493
   42MOL   C68032742   7.909   4.780   3.015 -0.0128 -0.8088  0.1482
   42MOL   C68132743   7.943   4.676   2.917  0.2369 -0.0822 -0.7207
   42MOL   O68232744   7.884   4.567   2.921  0.5354  0.3560  0.0429
   42MOL   O68332745   0.009   4.709   2.831  0.7280 -0.4646  0.1663
   42MOL   C68432746   7.995   4.888   3.032  0.7201 -0.3872 -0.5579
   42MOL   C68532747   7.965   4.981   3.135 -0.1003 -0.0824  1.1131
   42MOL   H68632748   0.096   5.305   3.284 -1.3330 -1.5707  1.7246
   42MOL   H68732749   0.135   5.365   3.437  0.2254  0.3985 -0.2902
   42MOL   H68832750   0.175   5.541   3.255 -0.2429  0.2224 -0.0190
   42MOL   H68932751   0.018   5.526   3.203 -0.0442  1.8829  0.0882
   42MOL   H69032752   0.090   5.656   3.469 -0.6215 -2.0742  0.5654
   42MOL   H69132753   0.121   5.791   3.269  0.2398 -0.4581 -0.6697
   42MOL   H69232754   7.985   5.775   3.239  0.6005 -1.8821  0.6389
   42MOL   H69332755   7.908   5.659   3.536  1.7580 -3.7147  2.1144
   42MOL   H69432756   7.834   5.619   3.381 -1.8932 -2.4555  0.5388
   42MOL   H69532757   7.825   5.444   3.540  0.4979  0.5794  1.3878
   42MOL   H69632758   7.991   5.468   3.591 -0.1034 -0.5913  0.9107
   42MOL   H69732759   7.879   5.367   3.334 -0.1147  1.6314  0.9103
   42MOL   H69832760   8.015   5.207   3.544 -0.9565 -2.5890  0.6354
   42MOL   H69932761   7.851   5.226   3.540  0.8388  1.5161  1.2025
   42MOL   H70032762   7.683   4.851   3.268  0.0311  1.1846  0.3462
   42MOL   H70132763   7.737   4.672   3.080 -0.8778  0.5989 -4.7913
   42MOL   H70232764   0.053   4.905   2.981  1.2237  2.0408  1.0600
   42MOL   H70332765   0.002   5.061   3.143  1.8011 -1.8105  1.7341
   42MOL   C70432766   0.097   4.159   2.714 -0.2897  0.2879  0.5817
   42MOL   C70532767   0.069   4.298   2.768  0.0863 -0.6116  0.3072
   42MOL   C70632768   0.185   4.400   2.745  0.2237  0.4030 -0.2098
   42MOL   C70732769   0.153   4.530   2.808 -0.3370 -0.6794 -0.2221
   42MOL   O70832770   0.054   4.595   2.743 -0.2534  0.7636  0.7376
   42MOL   C70932771   0.310   4.342   2.801  0.4338 -0.0355 -0.0880
   42MOL   C71032772   0.349   4.199   2.757 -0.3409  0.5115 -0.0082
   42MOL   C71132773   0.229   4.101   2.778 -0.2973 -0.5074  0.6145
   42MOL   C71232774   0.257   3.969   2.708 -0.3268 -0.2849 -0.2106
   42MOL   O71332775   0.157   3.878   2.731  0.5937  0.3384 -0.3675
   42MOL   C71432776   0.133   3.825   2.852  0.2622  0.5465  0.2327
   42MOL   O71532777   0.214   3.816   2.944 -0.1947  0.3767 -0.0475
   42MOL   C71632778   8.027   3.781   2.858  0.5466  0.2925  0.1437
   42MOL   C71732779   7.940   3.738   2.753  0.2491 -0.2603 -0.0835
   42MOL   C71832780   7.799   3.723   2.764 -0.0437  0.2444 -0.3426
   42MOL   C71932781   7.749   3.734   2.893 -0.4617 -0.3693  0.1582
   42MOL   C72032782   7.600   3.727   2.918 -0.2256  0.4067 -0.2390
   42MOL   O72132783   7.554   3.738   3.028  0.1357 -0.0585 -0.9164
   42MOL   O72232784   7.528   3.720   2.804  0.7889 -0.1020  0.1774
   42MOL   C72332785   7.832   3.755   3.003  0.3546 -0.2956 -0.4666
   42MOL   C72432786   7.969   3.777   2.986  0.0002 -0.2138  0.1318
   42MOL   H72532787   0.009   4.099   2.739 -0.2711 -0.7021 -1.6292
   42MOL   H72632788   0.098   4.151   2.605  0.8853  1.1381  0.5321
   42MOL   H72732789   8.017   4.340   2.720  1.2085  0.7064 -0.6083
   42MOL   H72832790   0.039   4.288   2.873 -1.0439  1.0883  0.1613
   42MOL   H72932791   0.198   4.422   2.639  1.0399  0.0003 -0.1961
   42MOL   H73032792   0.119   4.511   2.909  0.3253 -3.0058 -0.4110
   42MOL   H73132793   0.242   4.593   2.814  0.8454 -2.1640 -1.4475
   42MOL   H73232794   0.391   4.408   2.769 -2.3596  3.4708 -0.2560
   42MOL   H73332795   0.317   4.363   2.908 -1.0880  1.0409 -0.1890
   42MOL   H73432796   0.433   4.160   2.814  0.7231  1.3467 -1.0007
   42MOL   H73532797   0.383   4.195   2.654 -1.4617 -0.6788 -0.3604
   42MOL   H73632798   0.204   4.096   2.884  0.5640 -0.9245  0.8033
   42MOL   H73732799   0.273   3.990   2.602 -1.7585 -1.2436 -0.6200
   42MOL   H73832800   0.345   3.919   2.748 -0.7882 -1.6877 -0.9239
   42MOL   H73932801   7.986   3.730   2.655  0.9731  1.8901  0.0477
   42MOL   H74032802   7.736   3.695   2.681 -0.0415 -0.0821 -0.2326
   42MOL   H74132803   7.785   3.774   3.098  0.0926 -0.1916 -0.6181
   42MOL   H74232804   8.023   3.791   3.078  0.0864 -0.0441  0.0574
   42MOL   C74332805   7.394   4.018   2.389 -0.2694 -0.6051 -0.0808
   42MOL   C74432806   7.401   4.024   2.539 -0.3557  0.0330 -0.2305
   42MOL   C74532807   7.367   3.893   2.610  0.5097  0.1200 -0.7998
   42MOL   C74632808   7.376   3.892   2.759  0.5770 -0.5116  0.1744
   42MOL   O74732809   7.384   3.763   2.814  0.1493  0.2828 -0.2630
   42MOL   C74832810   7.231   3.832   2.560 -0.9143 -0.5741 -0.4238
   42MOL   C74932811   7.222   3.831   2.409  0.9545  0.2151 -0.4968
   42MOL   C75032812   7.255   3.968   2.348 -0.3028  0.1333 -0.2998
   42MOL   C75132813   7.231   3.954   2.197  0.6216  0.7960 -0.4596
   42MOL   O75232814   7.253   4.080   2.137 -0.0119  0.2203  0.2299
   42MOL   C75332815   7.354   4.087   2.040  0.8006  0.2753 -0.1601
   42MOL   O75432816   7.417   3.986   2.002  0.0392  0.2921  0.1041
   42MOL   C75532817   7.383   4.228   2.003 -0.2631  0.4544  0.3801
   42MOL   C75632818   7.486   4.247   1.908  0.1900 -0.9586  0.3160
   42MOL   C75732819   7.495   4.375   1.850  0.5176 -0.0072  0.4717
   42MOL   C75832820   7.413   4.482   1.887 -0.5597 -0.5861  0.2964
   42MOL   C75932821   7.439   4.622   1.830  0.2368 -0.9289  0.0652
   42MOL   O76032822   7.366   4.719   1.859 -0.5356 -1.2839  0.0570
   42MOL   O76132823   7.547   4.639   1.753 -0.1428 -0.1465  0.3987
   42MOL   C76232824   7.320   4.462   1.988 -0.4739 -0.1250 -0.1372
   42MOL   C76332825   7.311   4.341   2.055  0.5145  0.1842  0.1721
   42MOL   H76432826   7.397   4.120   2.349  1.3879 -0.4431  0.4069
   42MOL   H76532827   7.474   3.962   2.341  0.3893 -0.5216  0.9058
   42MOL   H76632828   7.498   4.061   2.574 -1.0792  0.2206  1.5980
   42MOL   H76732829   7.317   4.079   2.580 -0.7139  0.2451 -1.2428
   42MOL   H76832830   7.445   3.828   2.571  0.6001  0.3659 -1.0279
   42MOL   H76932831   7.447   3.970   2.787  1.7869 -1.7183  0.5034
   42MOL   H77032832   7.289   3.939   2.806  1.0530  0.5316  0.0395
   42MOL   H77132833   7.209   3.728   2.585 -3.3081  0.5465  2.4971
   42MOL   H77232834   7.143   3.884   2.597  0.2204 -0.3423  1.9989
   42MOL   H77332835   7.119   3.801   2.388  0.8968  0.1061 -0.0773
   42MOL   H77432836   7.291   3.765   2.357 -0.4345 -0.7689 -1.1304
   42MOL   H77532837   7.174   4.031   2.384  1.5183  1.5447  1.4189
   42MOL   H77632838   7.296   3.875   2.160  0.9473  0.6846  0.3415
   42MOL   H77732839   7.127   3.928   2.180  0.6876 -0.7188  1.3428
   42MOL   H77832840   7.542   4.161   1.872 -1.4863 -2.9011  2.2664
   42MOL   H77932841   7.555   4.378   1.760  0.5201  0.4566  0.4864
   42MOL   H78032842   7.254   4.542   2.019 -1.6535 -0.9810 -0.3966
   42MOL   H78132843   7.238   4.333   2.134  0.4148  1.9423  0.2797
   42MOL   H78232844   7.572   4.730   1.749 -4.7427  1.2114 -0.3861
   43MOL     C132845   6.286   0.025   5.104 -0.1038 -0.4322  0.0661
   43MOL     C232846   6.197   0.040   4.986  0.4853  0.2838 -0.1709
   43MOL     C332847   6.271   8.021   4.856 -0.4877 -0.6887  0.3839
   43MOL     C432848   6.183   0.001   4.722  0.0469  0.3602 -0.7896
   43MOL     O532849   6.224   7.954   4.614 -0.1411 -0.3779  0.0163
   43MOL     C632850   6.400   0.065   4.830 -0.6696  0.5748  0.3800
   43MOL     C732851   6.492   0.066   4.950 -0.2562 -0.0498  0.1006
   43MOL     C832852   6.419   0.103   5.079  0.0677  0.3085 -0.6316
   43MOL     C932853   6.522   0.090   5.187 -0.3301 -0.2430 -0.4290
   43MOL    O1032854   6.543   7.989   5.214  0.3851  0.3075  0.4568
   43MOL    C1132855   6.662   7.926   5.225 -0.6101  0.0153 -0.1286
   43MOL    O1232856   6.766   7.981   5.260 -0.5012 -0.3042  0.5902
   43MOL    C1332857   6.649   7.784   5.179  0.0955  0.5649 -0.0058
   43MOL    C1432858   6.749   7.689   5.220  0.7088  0.4138  0.1405
   43MOL    C1532859   6.718   7.549   5.200 -0.2380  1.0198 -0.4008
   43MOL    C1632860   6.606   7.501   5.126 -0.0879 -0.3927 -0.0282
   43MOL    C1732861   6.598   7.360   5.089 -1.3201 -0.1217 -0.3537
   43MOL    O1832862   6.664   7.269   5.141 -0.4174  0.5946  0.1238
   43MOL    O1932863   6.504   7.335   5.000 -0.4123 -0.5323 -0.0404
   43MOL    C2032864   6.514   7.601   5.080 -0.0450  0.2124  0.2517
   43MOL    C2132865   6.538   7.741   5.106  0.3134 -0.3891  0.5289
   43MOL    H2232866   6.242   0.065   5.195  0.5815  1.0297 -0.2265
   43MOL    H2332867   6.308   7.955   5.116  0.1233 -0.5082 -1.0081
   43MOL    H2432868   6.103   8.021   4.991 -0.6183  1.7196 -3.6150
   43MOL    H2532869   6.184   0.145   4.960  1.3910 -0.3217 -3.2423
   43MOL    H2632870   6.303   7.918   4.862 -0.3068 -0.6810 -0.3747
   43MOL    H2732871   6.078   8.017   4.744  0.3643 -1.4654 -0.7851
   43MOL    H2832872   6.178   0.104   4.688  0.1941  0.2757 -1.0665
   43MOL    H2932873   6.446   0.024   4.741 -0.5252 -1.2589  1.2859
   43MOL    H3032874   6.386   0.168   4.797 -0.4664  1.0830  1.8357
   43MOL    H3132875   6.579   0.130   4.940  0.7424 -0.9577  2.5326
   43MOL    H3232876   6.530   7.999   4.957 -2.1396 -0.6921  1.5281
   43MOL    H3332877   6.392   0.209   5.076 -1.5503 -0.1010 -0.4927
   43MOL    H3432878   6.611   0.146   5.157  0.2215 -0.8738  0.0086
   43MOL    H3532879   6.478   0.145   5.270  0.1766  1.8497 -1.5103
   43MOL    H3632880   6.843   7.708   5.269  1.8148 -0.4096 -1.5934
   43MOL    H3732881   6.798   7.481   5.225 -0.8810  0.4703  0.1989
   43MOL    H3832882   6.428   7.565   5.026  0.3088 -1.5638  0.8155
   43MOL    H3932883   6.467   7.813   5.068 -0.8956 -1.2046  1.1852
   43MOL    H4032884   6.316   7.964   4.596 -0.6604  1.2141 -1.9683
   43MOL    C4132885   6.019   7.335   5.167 -0.5392  0.8017  0.0339
   43MOL    C4232886   6.136   7.235   5.187  0.2044 -0.8991  0.1186
   43MOL    C4332887   6.241   7.257   5.080 -0.4869  0.5402  0.3965
   43MOL    C4432888   6.363   7.161   5.080  0.1823 -0.4292 -0.0321
   43MOL    O4532889   6.456   7.199   4.981  0.0357  0.3161 -0.1713
   43MOL    C4632890   6.188   7.256   4.936  0.0717 -0.2905  0.2493
   43MOL    C4732891   6.075   7.357   4.922 -0.0131  0.3710 -0.1437
   43MOL    C4832892   5.966   7.325   5.018  0.1684 -0.6502  0.1340
   43MOL    C4932893   5.840   7.408   4.987 -0.4540 -0.7724 -0.4656
   43MOL    O5032894   5.801   7.370   4.860 -0.9106  0.2355  0.6198
   43MOL    C5132895   5.689   7.294   4.855  0.0105 -0.3202  0.0693
   43MOL    O5232896   5.634   7.246   4.957  0.0524 -0.5660  0.4510
   43MOL    C5332897   5.626   7.304   4.715  0.5294  0.4135 -0.2206
   43MOL    C5432898   5.492   7.263   4.697  0.0316  0.2791  0.3165
   43MOL    C5532899   5.435   7.252   4.568  0.4131 -0.4574 -0.1459
   43MOL    C5632900   5.510   7.284   4.453 -0.2243  0.0920  0.1721
   43MOL    C5732901   5.454   7.266   4.313 -0.4957  0.4290 -0.2445
   43MOL    O5832902   5.348   7.212   4.297  0.2000 -0.0408  0.1070
   43MOL    O5932903   5.541   7.306   4.214  0.5285  0.3480  0.2796
   43MOL    C6032904   5.642   7.336   4.469  0.5215  0.3842  0.5775
   43MOL    C6132905   5.695   7.350   4.596 -0.3087  0.0173 -0.2368
   43MOL    H6232906   5.934   7.300   5.226  0.9128 -1.3596  0.9279
   43MOL    H6332907   6.040   7.435   5.206 -0.6272  1.2810 -1.1403
   43MOL    H6432908   6.179   7.238   5.287  0.2871 -2.6225  0.1522
   43MOL    H6532909   6.106   7.131   5.174  1.6288 -1.2065 -0.6755
   43MOL    H6632910   6.276   7.359   5.097  0.7883  0.3699 -1.1220
   43MOL    H6732911   6.416   7.165   5.175 -0.2555  0.2904  0.1815
   43MOL    H6832912   6.323   7.062   5.058  1.2274 -0.4625 -1.9185
   43MOL    H6932913   6.265   7.277   4.862  2.2875 -2.1240  1.9674
   43MOL    H7032914   6.151   7.161   4.899 -1.9651 -0.1121  1.7976
   43MOL    H7132915   6.032   7.361   4.822  0.6885  3.7714 -0.3745
   43MOL    H7232916   6.110   7.459   4.939  2.3082 -0.6631  1.5617
   43MOL    H7332917   5.931   7.222   5.006 -0.7640 -0.3719  0.3874
   43MOL    H7432918   5.759   7.409   5.060 -1.6132  2.2588 -1.6939
   43MOL    H7532919   5.873   7.512   4.994  2.6201 -1.8497  2.2220
   43MOL    H7632920   5.444   7.231   4.788  1.0730  0.5912  0.9849
   43MOL    H7732921   5.344   7.197   4.552 -0.2616  0.6479 -0.2067
   43MOL    H7832922   5.693   7.387   4.388  0.6006  1.8180  1.5016
   43MOL    H7932923   5.791   7.400   4.604 -0.1605 -0.3549  0.3532
   43MOL    C8032924   5.245   7.417   3.712  0.1158 -0.0920  0.0071
   43MOL    C8132925   5.273   7.427   3.855  1.2043  0.6860  0.1098
   43MOL    C8232926   5.423   7.441   3.883 -0.0018 -0.0264 -0.1633
   43MOL    C8332927   5.478   7.439   4.030 -0.0747 -0.3692 -0.2269
   43MOL    O8432928   5.486   7.302   4.076 -0.4830  0.6113  0.1561
   43MOL    C8532929   5.508   7.339   3.810 -0.1757  0.0049 -0.3624
   43MOL    C8632930   5.471   7.322   3.659  0.1362  0.2478 -0.4070
   43MOL    C8732931   5.323   7.299   3.647 -0.0461  0.1832  0.1668
   43MOL    C8832932   5.287   7.276   3.492 -0.0441  0.6598 -0.2177
   43MOL    O8932933   5.158   7.246   3.470 -0.4070  0.2402  0.3777
   43MOL    C9032934   5.074   7.325   3.412  0.8133 -0.0520 -0.1500
   43MOL    O9132935   5.104   7.433   3.360  0.8896  0.0282  0.1865
   43MOL    C9232936   4.936   7.273   3.421 -0.0015  0.0184  0.2011
   43MOL    C9332937   4.829   7.357   3.377 -0.7442 -0.5405 -0.0161
   43MOL    C9432938   4.700   7.303   3.383 -0.3946  0.3530  0.3002
   43MOL    C9532939   4.668   7.178   3.442 -0.1026  0.4761  0.9923
   43MOL    C9632940   4.528   7.131   3.447  1.2116  0.3376 -0.7705
   43MOL    O9732941   4.441   7.172   3.369  0.3200 -0.1833  0.4830
   43MOL    O9832942   4.509   7.018   3.516 -0.1911 -0.0701 -0.1630
   43MOL    C9932943   4.781   7.102   3.487  0.2141  0.3237 -0.1571
   43MOL   C10032944   4.912   7.147   3.480  0.7190  0.3497 -0.0403
   43MOL   H10132945   5.138   7.411   3.693  0.2866 -2.1681 -0.4110
   43MOL   H10232946   5.266   7.512   3.664  1.6558  1.1294  2.9781
   43MOL   H10332947   5.228   7.520   3.889  0.7135  1.3014 -2.1478
   43MOL   H10432948   5.236   7.346   3.918  4.5782 -1.9369 -1.1244
   43MOL   H10532949   5.447   7.539   3.841  2.5667 -1.5427 -2.4081
   43MOL   H10632950   5.579   7.480   4.034  0.1572 -0.8597 -0.8952
   43MOL   H10732951   5.417   7.502   4.094 -1.1675 -1.8241  0.1859
   43MOL   H10832952   5.615   7.352   3.824 -0.3014 -1.1036  1.7607
   43MOL   H10932953   5.476   7.243   3.851 -0.2456 -0.3547 -1.2436
   43MOL   H11032954   5.535   7.243   3.620  2.4482  2.4841 -1.3257
   43MOL   H11132955   5.501   7.413   3.608  0.6148 -0.0897 -0.7306
   43MOL   H11232956   5.312   7.208   3.706 -1.0933 -0.0818 -0.4153
   43MOL   H11332957   5.324   7.359   3.432 -0.2659  1.0358  0.1650
   43MOL   H11432958   5.339   7.189   3.452 -2.3204 -0.8172 -0.0608
   43MOL   H11532959   4.838   7.461   3.351  0.2562 -0.2682  1.3438
   43MOL   H11632960   4.620   7.362   3.339  0.6515  1.9788  0.5283
   43MOL   H11732961   4.769   7.003   3.528  2.9568  0.4566  1.0895
   43MOL   H11832962   4.990   7.086   3.525  3.2878  3.6841  0.2075
   43MOL   C11932963   4.783   6.567   3.464  0.8536 -0.2317  0.6955
   43MOL   C12032964   4.693   6.647   3.382  0.4101 -0.2348  0.0231
   43MOL   C12132965   4.598   6.732   3.466  0.0306 -0.1778  0.2326
   43MOL   C12232966   4.498   6.821   3.383 -0.8452  0.1637  0.0855
   43MOL   O12332967   4.418   6.916   3.454 -0.2428  0.0649  0.0644
   43MOL   C12432968   4.519   6.649   3.570 -0.2293 -0.1826 -0.6322
   43MOL   C12532969   4.603   6.537   3.638  0.6900 -0.0661  0.5694
   43MOL   C12632970   4.696   6.460   3.544 -0.2792  0.0703 -0.5601
   43MOL   C12732971   4.794   6.380   3.627  0.0389  0.7453  0.3070
   43MOL   O12832972   4.915   6.348   3.562 -0.2625  0.4919 -0.3626
   43MOL   C12932973   4.927   6.245   3.489  0.6015 -0.2059  0.7539
   43MOL   O13032974   4.830   6.198   3.426 -0.7508 -0.2692  0.0335
   43MOL   C13132975   5.060   6.187   3.480 -0.1123 -0.4729  0.2882
   43MOL   C13232976   5.078   6.067   3.415 -0.0151  0.1646  0.5362
   43MOL   C13332977   5.211   6.005   3.412  0.1813 -0.6169 -0.2624
   43MOL   C13432978   5.322   6.067   3.478  0.2099 -0.4612  0.4129
   43MOL   C13532979   5.450   5.990   3.497 -0.0038 -0.4306  0.2401
   43MOL   O13632980   5.552   6.040   3.542  0.0471 -0.0366 -0.1178
   43MOL   O13732981   5.454   5.863   3.459  0.3085 -0.7895  0.0025
   43MOL   C13832982   5.296   6.194   3.538 -0.0010  0.2327  0.0227
   43MOL   C13932983   5.170   6.254   3.541 -0.2525 -0.1710  0.1948
   43MOL   H14032984   4.851   6.508   3.402  1.3239  1.1689 -0.1452
   43MOL   H14132985   4.850   6.635   3.516 -0.4679  1.6175  0.0056
   43MOL   H14232986   4.744   6.714   3.314 -0.1897  0.7875  0.5714
   43MOL   H14332987   4.633   6.575   3.326 -0.0229  1.3057 -1.5490
   43MOL   H14432988   4.667   6.798   3.518 -0.6104  0.3340  0.4310
   43MOL   H14532989   4.558   6.870   3.306 -0.4064 -0.8113 -0.2109
   43MOL   H14632990   4.429   6.764   3.322  0.5847 -0.2984 -1.1348
   43MOL   H14732991   4.492   6.729   3.640  0.1910 -1.4430  1.0022
   43MOL   H14832992   4.431   6.603   3.525 -0.6681 -0.8638  0.8606
   43MOL   H14932993   4.551   6.462   3.698  1.0188 -0.1165  0.7974
   43MOL   H15032994   4.660   6.592   3.713 -0.0493  0.8090  0.4999
   43MOL   H15132995   4.636   6.397   3.478 -0.2351 -0.7673  0.1814
   43MOL   H15232996   4.836   6.432   3.712 -1.0650 -0.1024  1.3887
   43MOL   H15332997   4.745   6.292   3.669  0.9326  0.0478 -0.0657
   43MOL   H15432998   4.994   6.021   3.365 -0.2917  0.4515  0.7348
   43MOL   H15532999   5.235   5.915   3.359 -0.9313 -0.6495 -0.7135
   43MOL   H15633000   5.375   6.253   3.582  1.5329 -2.3056  0.8153
   43MOL   H15733001   5.151   6.352   3.585  0.4852 -0.0587  0.2616
   43MOL   C15833002   5.755   5.825   3.904  0.1934  0.1920 -0.0144
   43MOL   C15933003   5.652   5.825   3.784 -0.0685  0.0482  0.0072
   43MOL   C16033004   5.629   5.691   3.721 -0.2239  0.0035 -0.5004
   43MOL   C16133005   5.520   5.692   3.613 -0.3936  0.5760 -0.1546
   43MOL   O16233006   5.572   5.781   3.510  0.1426 -0.6952  0.1888
   43MOL   C16333007   5.762   5.631   3.670 -0.0455 -0.0503 -0.1300
   43MOL   C16433008   5.877   5.640   3.780  0.0585  0.9905 -0.8707
   43MOL   C16533009   5.897   5.779   3.848 -0.0929 -0.6405  0.0552
   43MOL   C16633010   6.000   5.764   3.963  0.0997  0.3634  0.1712
   43MOL   O16733011   6.024   5.889   4.022 -0.1573 -0.1517 -0.9033
   43MOL   C16833012   6.113   5.918   4.124  0.0772  0.9336  0.3831
   43MOL   O16933013   6.204   5.841   4.156 -0.3509 -0.1492  0.7152
   43MOL   C17033014   6.096   6.050   4.181 -0.5867 -0.3822 -0.0791
   43MOL   C17133015   5.979   6.128   4.167 -0.0329  0.0589 -0.3824
   43MOL   C17233016   5.978   6.256   4.226 -0.5720 -0.4165 -0.0798
   43MOL   C17333017   6.083   6.310   4.300  0.0499 -0.0645  0.1140
   43MOL   C17433018   6.063   6.446   4.367  0.5084  0.3391  0.1445
   43MOL   O17533019   5.966   6.522   4.340  0.0324  0.4697 -0.6241
   43MOL   O17633020   6.172   6.491   4.439  0.2068  0.3748  0.1668
   43MOL   C17733021   6.201   6.234   4.310  0.7984  0.5842  0.3315
   43MOL   C17833022   6.205   6.105   4.251  0.7745 -0.1826  0.5493
   43MOL   H17933023   5.763   5.919   3.958  2.2749 -1.3910  2.5504
   43MOL   H18033024   5.712   5.752   3.972 -1.7694  1.4989  0.1750
   43MOL   H18133025   5.559   5.873   3.816 -0.4635 -0.6477 -0.0997
   43MOL   H18233026   5.694   5.887   3.705 -1.0886  2.2337  1.1301
   43MOL   H18333027   5.593   5.620   3.795 -0.1456  0.4791  0.0003
   43MOL   H18433028   5.498   5.590   3.580  0.2028  0.8285 -1.3395
   43MOL   H18533029   5.424   5.732   3.646 -0.4493 -0.3326  0.8329
   43MOL   H18633030   5.761   5.533   3.622  1.1516  0.1943 -0.6907
   43MOL   H18733031   5.788   5.698   3.587  1.3519  0.2061  0.5030
   43MOL   H18833032   5.970   5.597   3.743 -0.8651 -0.9714 -1.0146
   43MOL   H18933033   5.840   5.561   3.846  1.4960  0.1721 -1.0330
   43MOL   H19033034   5.938   5.847   3.773  2.5470 -0.8884  1.2338
   43MOL   H19133035   5.951   5.697   4.033 -1.1553 -1.0894 -2.0616
   43MOL   H19233036   6.093   5.726   3.920  0.2533  0.7194  0.1874
   43MOL   H19333037   5.891   6.097   4.113  1.8835 -0.4725 -3.3079
   43MOL   H19433038   5.884   6.309   4.223  0.2716  1.2365  1.6009
   43MOL   H19533039   6.291   6.263   4.363  1.6088  3.4937 -2.5037
   43MOL   H19633040   6.290   6.040   4.262  1.5369  0.6392 -0.3960
   43MOL   C19733041   6.403   6.911   4.701  0.4996  1.1477  0.1537
   43MOL   C19833042   6.273   6.845   4.648  0.2414  0.3293 -0.4870
   43MOL   C19933043   6.298   6.790   4.506  0.0311  0.4253  0.2335
   43MOL   C20033044   6.173   6.726   4.449 -0.1512  0.2048 -0.2222
   43MOL   O20133045   6.137   6.609   4.524 -0.2034  0.1992  0.5433
   43MOL   C20233046   6.341   6.902   4.413 -1.0443  0.7741 -0.2040
   43MOL   C20333047   6.465   6.977   4.462 -0.5461 -0.5802  0.3239
   43MOL   C20433048   6.437   7.032   4.601  1.1092 -0.2949 -0.1372
   43MOL   C20533049   6.550   7.118   4.665  0.0746 -0.0220 -0.6315
   43MOL   O20633050   6.670   7.041   4.694  0.7407  0.0719 -0.1292
   43MOL   C20733051   6.793   7.066   4.641  0.4664 -0.3681  0.1261
   43MOL   O20833052   6.821   7.173   4.583  0.0407  0.5133  0.2594
   43MOL   C20933053   6.887   6.944   4.663  0.0536  0.5033 -0.2409
   43MOL   C21033054   6.831   6.807   4.667 -0.2113 -0.2339  0.3588
   43MOL   C21133055   6.920   6.696   4.667  0.3935  0.1094 -0.8655
   43MOL   C21233056   7.057   6.716   4.659  0.6866  0.1979  0.1679
   43MOL   C21333057   7.147   6.591   4.644 -0.4504  0.1982 -0.1625
   43MOL   O21433058   7.097   6.480   4.637  0.1744  0.3051  0.1327
   43MOL   O21533059   7.281   6.619   4.651 -0.7053  0.1239 -0.4116
   43MOL   C21633060   7.106   6.849   4.645  0.6000  0.6012 -0.0700
   43MOL   C21733061   7.023   6.960   4.647  0.6346 -0.5166  0.7304
   43MOL   H21833062   6.388   6.947   4.803  0.2831  1.0641  0.1515
   43MOL   H21933063   6.487   6.842   4.693 -1.1829 -0.7643 -1.5675
   43MOL   H22033064   6.235   6.763   4.710 -0.5504  0.4562 -0.8075
   43MOL   H22133065   6.200   6.926   4.645 -2.1864 -1.7340  0.6222
   43MOL   H22233066   6.377   6.715   4.499 -1.8904 -1.5860 -0.5323
   43MOL   H22333067   6.087   6.792   4.458 -2.0348 -2.2178 -0.0883
   43MOL   H22433068   6.187   6.708   4.342  0.7829  0.2704 -0.1192
   43MOL   H22533069   6.358   6.862   4.313  0.8343 -0.7549  0.7004
   43MOL   H22633070   6.256   6.968   4.397 -1.9098 -0.4597 -0.8555
   43MOL   H22733071   6.495   7.060   4.398 -0.2010 -2.5109 -2.1008
   43MOL   H22833072   6.548   6.908   4.450  0.7569  1.2890 -1.7873
   43MOL   H22933073   6.349   7.095   4.604  0.3483 -1.4080  2.6049
   43MOL   H23033074   6.584   7.197   4.598  0.1947 -0.8198 -1.5179
   43MOL   H23133075   6.523   7.153   4.764 -0.6840  0.1387 -0.8962
   43MOL   H23233076   6.726   6.785   4.659 -0.5829  1.7208 -0.4390
   43MOL   H23333077   6.886   6.594   4.658 -0.9413  0.2950  1.7769
   43MOL   H23433078   7.214   6.856   4.636  0.6624 -1.8228 -1.6783
   43MOL   H23533079   7.064   7.060   4.649 -2.9864  1.0653  0.3193
   43MOL   C23633080   7.605   6.198   4.899  0.8117 -0.0930 -0.5853
   43MOL   C23733081   7.548   6.324   4.827  0.5950 -0.3246  0.1657
   43MOL   C23833082   7.395   6.338   4.861 -0.2401  0.0402 -0.5056
   43MOL   C23933083   7.334   6.479   4.834  0.0213 -0.0106 -0.1519
   43MOL   O24033084   7.361   6.504   4.697  0.4107 -0.0839 -0.1784
   43MOL   C24133085   7.326   6.213   4.809 -0.2135  0.1716  0.6049
   43MOL   C24233086   7.390   6.083   4.860 -0.3048 -0.5639 -0.1992
   43MOL   C24333087   7.539   6.072   4.842  0.4400 -0.0777 -0.2447
   43MOL   C24433088   7.593   5.949   4.919 -0.7222 -0.3560 -0.0592
   43MOL   O24533089   7.563   5.962   5.051  0.6286 -0.4306  0.5319
   43MOL   C24633090   7.621   5.878   5.142 -0.2186 -0.3003 -0.5996
   43MOL   O24733091   7.714   5.807   5.113 -0.1198 -0.3222  0.0709
   43MOL   C24833092   7.568   5.888   5.281  0.4870  0.4644 -0.1812
   43MOL   C24933093   7.477   5.992   5.320 -0.5607 -0.2964 -0.5720
   43MOL   C25033094   7.463   6.017   5.458 -0.2908 -0.4140  0.0605
   43MOL   C25133095   7.519   5.932   5.557 -0.1246 -0.1528 -0.2461
   43MOL   C25233096   7.494   5.946   5.702  0.4464  0.0505 -0.2918
   43MOL   O25333097   7.530   5.862   5.785  0.1846 -0.2624 -0.0257
   43MOL   O25433098   7.435   6.064   5.744 -0.1719 -0.1101 -0.4889
   43MOL   C25533099   7.602   5.825   5.518  0.0411  0.4045  0.2132
   43MOL   C25633100   7.626   5.805   5.378 -0.0203  0.6651  0.3056
   43MOL   H25733101   7.713   6.201   4.882  0.7811 -1.0590 -0.9516
   43MOL   H25833102   7.598   6.209   5.007 -0.6608  0.7512 -0.7591
   43MOL   H25933103   7.603   6.406   4.873  0.6611 -0.5504  0.4932
   43MOL   H26033104   7.570   6.329   4.720 -1.4084 -1.7977 -0.3417
   43MOL   H26133105   7.381   6.327   4.969 -3.6167 -0.4016 -0.9322
   43MOL   H26233106   7.231   6.456   4.859  0.0603  2.0968  2.1576
   43MOL   H26333107   7.377   6.553   4.902 -0.3998  0.1044 -0.0096
   43MOL   H26433108   7.218   6.211   4.829 -0.2964 -1.8080  0.0363
   43MOL   H26533109   7.333   6.215   4.700 -0.7485 -0.7950  0.5531
   43MOL   H26633110   7.339   5.999   4.814  0.4798 -2.3106  2.0449
   43MOL   H26733111   7.389   6.085   4.969 -1.7994  0.3249 -0.2160
   43MOL   H26833112   7.555   6.063   4.735  1.3214 -0.2911 -0.1024
   43MOL   H26933113   7.549   5.856   4.883 -1.1316 -0.3328  0.3826
   43MOL   H27033114   7.702   5.943   4.915 -0.4690  3.1545 -0.1450
   43MOL   H27133115   7.431   6.062   5.252 -1.4328 -0.5689 -0.2743
   43MOL   H27233116   7.399   6.101   5.485  0.3915  0.0719  0.1703
   43MOL   H27333117   7.659   5.757   5.580 -1.4140  0.7264  1.9713
   43MOL   H27433118   7.708   5.744   5.345  2.3173  2.2561  2.9537
   43MOL   C27533119   7.273   6.312   6.231  0.5045  0.3431  0.0700
   43MOL   C27633120   7.336   6.215   6.133 -0.0046 -0.5364 -0.3155
   43MOL   C27733121   7.263   6.174   6.010  0.5079 -0.5655 -0.5125
   43MOL   C27833122   7.330   6.050   5.953  0.3112 -0.3065  0.1087
   43MOL   O27933123   7.452   6.091   5.893  0.2914 -0.1575  0.2707
   43MOL   C28033124   7.122   6.138   6.048 -0.3941  0.2583 -0.1894
   43MOL   C28133125   7.050   6.240   6.137  0.0320  0.0132 -0.1960
   43MOL   C28233126   7.133   6.270   6.267  0.0478 -0.1114  0.0871
   43MOL   C28333127   7.052   6.374   6.348  0.4715  0.1530  0.4263
   43MOL   O28433128   7.099   6.370   6.480  0.3158 -0.7087 -0.0982
   43MOL   C28533129   7.033   6.435   6.581 -0.2592 -0.3477 -0.3091
   43MOL   O28633130   6.928   6.496   6.561  0.3401  0.6051 -0.0986
   43MOL   C28733131   7.105   6.444   6.712 -0.7392 -0.5443  0.2814
   43MOL   C28833132   7.234   6.394   6.721  0.5925  0.2184 -0.5457
   43MOL   C28933133   7.313   6.411   6.834 -0.0354 -0.6244  0.3034
   43MOL   C29033134   7.257   6.476   6.943  0.3342 -0.2524  0.0466
   43MOL   C29133135   7.349   6.504   7.060 -0.1424  0.2911  0.8873
   43MOL   O29233136   7.469   6.505   7.046  0.8351  0.2524 -0.4970
   43MOL   O29333137   7.288   6.525   7.176  0.2316 -0.3882  0.7564
   43MOL   C29433138   7.119   6.519   6.942 -0.0167  1.1195 -0.5667
   43MOL   C29533139   7.044   6.505   6.822 -0.2787  0.8085 -0.9156
   43MOL   H29633140   7.331   6.322   6.322  0.0195 -1.9152  0.6556
   43MOL   H29733141   7.270   6.412   6.187 -1.9867 -0.0911 -0.8737
   43MOL   H29833142   7.434   6.257   6.112 -1.2983  1.5201 -2.5038
   43MOL   H29933143   7.364   6.124   6.185 -0.9094 -0.2232  0.7345
   43MOL   H30033144   7.266   6.251   5.932  0.2473 -0.0945 -0.0562
   43MOL   H30133145   7.340   5.972   6.029  0.2616  0.1231  0.5639
   43MOL   H30233146   7.270   6.000   5.877 -0.6902 -1.4939  1.6245
   43MOL   H30333147   7.064   6.125   5.957 -0.1769 -0.0518 -0.2823
   43MOL   H30433148   7.130   6.052   6.114 -1.1961  0.3702  0.0597
   43MOL   H30533149   6.950   6.207   6.166  0.6148 -3.7113 -2.2098
   43MOL   H30633150   7.033   6.332   6.081  2.1718  0.8902  0.5383
   43MOL   H30733151   7.137   6.187   6.338 -3.0315  2.0142  2.9198
   43MOL   H30833152   7.080   6.470   6.305 -1.8716  2.4405  3.7530
   43MOL   H30933153   6.944   6.357   6.340  0.3575  1.5934 -1.6661
   43MOL   H31033154   7.282   6.357   6.631  1.0922 -2.3579  0.7276
   43MOL   H31133155   7.418   6.385   6.828 -0.0401 -0.1821 -1.7564
   43MOL   H31233156   7.078   6.585   7.017  0.9049  0.1477  0.8415
   43MOL   H31333157   6.948   6.554   6.823 -0.5499  0.2837  1.5594
   43MOL   C31433158   7.791   6.387   7.365  1.0256 -0.4807 -0.3526
   43MOL   C31533159   7.647   6.399   7.309 -1.0103  0.0278  0.0015
   43MOL   C31633160   7.540   6.431   7.421 -0.8176 -0.1203 -0.3387
   43MOL   C31733161   7.394   6.453   7.378 -0.3287 -0.0853 -0.3795
   43MOL   O31833162   7.391   6.554   7.278  0.0341 -0.5117 -0.0629
   43MOL   C31933163   7.544   6.321   7.524 -0.0854  0.2169 -0.9730
   43MOL   C32033164   7.687   6.302   7.575 -0.2680 -0.0279  0.4094
   43MOL   C32133165   7.800   6.272   7.468  0.0416  0.1802 -0.4893
   43MOL   C32233166   7.937   6.270   7.544  0.0596  0.2832 -0.1187
   43MOL   O32333167   0.010   6.229   7.466  0.3559  0.0143  0.2384
   43MOL   C32433168   0.082   6.311   7.388  1.0110 -0.4170  0.3626
   43MOL   O32533169   0.063   6.432   7.395  0.3950 -0.1120  0.7041
   43MOL   C32633170   0.187   6.236   7.313 -0.1523 -0.1409  0.2450
   43MOL   C32733171   0.278   6.306   7.226  0.2249  0.4382 -0.4372
   43MOL   C32833172   0.377   6.231   7.153 -0.0728  0.2186 -0.7076
   43MOL   C32933173   0.381   6.085   7.161  0.4977 -0.3012  0.5531
   43MOL   C33033174   0.483   6.017   7.080  0.7883 -0.0598  0.4767
   43MOL   O33133175   0.562   6.069   7.008  0.5086  0.1255  0.3583
   43MOL   O33233176   0.476   5.879   7.087 -0.2078  0.2456  0.2932
   43MOL   C33333177   0.285   6.020   7.243 -0.5086 -0.1172 -0.4567
   43MOL   C33433178   0.188   6.094   7.314 -0.4943  0.2093  0.2893
   43MOL   H33533179   7.853   6.368   7.277  1.7939 -0.1508  0.1048
   43MOL   H33633180   7.816   6.485   7.408 -0.8435 -0.3321  0.4445
   43MOL   H33733181   7.633   6.479   7.236  0.8912  0.8892  0.5612
   43MOL   H33833182   7.607   6.315   7.251 -3.8765  2.4629 -1.7094
   43MOL   H33933183   7.572   6.524   7.467  0.6833  0.3448 -2.2567
   43MOL   H34033184   7.355   6.360   7.336 -1.5401  0.4085 -0.3698
   43MOL   H34133185   7.344   6.484   7.469  1.1148  1.7350 -0.1695
   43MOL   H34233186   7.470   6.337   7.603  1.8083 -2.0567  1.3529
   43MOL   H34333187   7.505   6.231   7.478  1.6898 -0.3617 -1.3690
   43MOL   H34433188   7.687   6.231   7.657 -1.6447 -2.8330 -1.9466
   43MOL   H34533189   7.720   6.388   7.635 -0.6480  0.3578  0.0707
   43MOL   H34633190   7.785   6.170   7.431  1.1747 -0.0978 -0.2086
   43MOL   H34733191   7.971   6.366   7.581 -2.0714  0.3854  1.6522
   43MOL   H34833192   7.934   6.209   7.634 -0.1700 -0.0808 -0.3720
   43MOL   H34933193   0.261   6.411   7.211 -0.8957  0.1167 -1.4350
   43MOL   H35033194   0.437   6.292   7.087 -0.6076  2.3857  0.7470
   43MOL   H35133195   0.299   5.914   7.252  0.2103  0.0992  1.1617
   43MOL   H35233196   0.107   6.042   7.363 -2.9316  1.8128 -1.8694
   43MOL   C35333197   0.891   5.696   6.726 -0.1434 -0.4297 -0.7773
   43MOL   C35433198   0.801   5.774   6.821 -0.1678 -0.2438  0.0405
   43MOL   C35533199   0.773   5.693   6.952  0.4308  0.9755 -0.2487
   43MOL   C35633200   0.686   5.773   7.052  0.6343 -0.3129  0.3530
   43MOL   O35733201   0.564   5.810   6.987 -0.2559  0.4118 -0.0760
   43MOL   C35833202   0.708   5.554   6.923 -0.1805 -0.1842 -0.2461
   43MOL   C35933203   0.795   5.470   6.820  0.4723 -0.1274  0.1944
   43MOL   C36033204   0.832   5.558   6.698  0.0523 -0.5500  0.3681
   43MOL   C36133205   0.917   5.475   6.605 -0.7983 -0.8475  0.5842
   43MOL   O36233206   0.918   5.531   6.475 -0.6129 -0.3209 -0.3667
   43MOL   C36333207   1.030   5.532   6.399  0.5565 -0.5668 -0.4956
   43MOL   O36433208   1.144   5.508   6.450  0.2378 -0.1151 -0.0377
   43MOL   C36533209   1.016   5.567   6.252  0.4580  0.1362  0.0353
   43MOL   C36633210   0.889   5.572   6.195  0.6455 -0.0084 -0.1980
   43MOL   C36733211   0.874   5.609   6.064  0.2155 -0.0941 -0.6335
   43MOL   C36833212   0.985   5.626   5.983  0.1712 -0.8101  0.1392
   43MOL   C36933213   0.964   5.634   5.838 -0.2838 -0.0155  0.1919
   43MOL   O37033214   0.865   5.689   5.789  0.1518  0.2014  0.4116
   43MOL   O37133215   1.066   5.570   5.776  0.2971  0.0329 -0.1551
   43MOL   C37233216   1.113   5.604   6.040 -0.3352 -0.0658  0.1779
   43MOL   C37333217   1.131   5.568   6.175 -0.0827 -0.1484  0.3723
   43MOL   H37433218   0.905   5.749   6.632  1.0410  1.6013  0.5102
   43MOL   H37533219   0.991   5.676   6.765 -0.0349  0.6827 -0.4740
   43MOL   H37633220   0.860   5.861   6.849  0.2642 -0.5771  0.1778
   43MOL   H37733221   0.707   5.801   6.774 -1.0649 -1.4338  1.1158
   43MOL   H37833222   0.874   5.673   6.986  0.6652  1.7971 -0.4279
   43MOL   H37933223   0.673   5.715   7.143  1.3910  1.2757  1.4918
   43MOL   H38033224   0.742   5.860   7.086  0.8328 -1.2677  2.5521
   43MOL   H38133225   0.696   5.494   7.013 -2.6289 -0.3186 -0.6175
   43MOL   H38233226   0.606   5.582   6.897 -0.2042 -0.2687 -0.2405
   43MOL   H38333227   0.737   5.383   6.789 -0.5940  1.0114 -1.1048
   43MOL   H38433228   0.885   5.434   6.869 -0.8049 -1.2785  1.7073
   43MOL   H38533229   0.739   5.574   6.643 -0.1448 -0.4821  0.7193
   43MOL   H38633230   1.015   5.477   6.651 -1.7940  1.2501  2.7211
   43MOL   H38733231   0.895   5.370   6.586 -0.6267 -0.8569  0.4311
   43MOL   H38833232   0.800   5.549   6.252 -0.0203 -1.2392 -1.7054
   43MOL   H38933233   0.782   5.606   6.008  0.5514  3.1485 -1.4316
   43MOL   H39033234   1.199   5.619   5.975 -1.0044 -1.5951 -1.1017
   43MOL   H39133235   1.229   5.553   6.218  0.3288  0.6176 -0.2855
   43MOL   C39233236   1.315   5.240   5.543  0.2663  0.2046 -0.4493
   43MOL   C39333237   1.231   5.365   5.543  0.0024  0.1804  0.0515
   43MOL   C39433238   1.083   5.347   5.581 -0.4301  0.2334  0.6041
   43MOL   C39533239   0.990   5.467   5.556  0.3793 -0.2121  1.0120
   43MOL   O39633240   1.057   5.575   5.616  0.0139  0.3454 -0.2977
   43MOL   C39733241   1.016   5.229   5.496 -0.1978 -0.8088  0.3998
   43MOL   C39833242   1.111   5.104   5.500  0.2578  0.6808 -0.1461
   43MOL   C39933243   1.253   5.132   5.456  0.1379 -0.5040  0.0104
   43MOL   C40033244   1.352   5.014   5.447  0.5455 -0.7875 -0.4739
   43MOL   O40133245   1.327   4.929   5.339 -0.0123 -0.5236  0.5227
   43MOL   C40233246   1.406   4.927   5.240 -0.3325  0.3070  0.6273
   43MOL   O40333247   1.507   4.998   5.226 -0.2854  0.1258  0.6381
   43MOL   C40433248   1.373   4.821   5.141 -0.2127  0.0241  0.3909
   43MOL   C40533249   1.477   4.775   5.053  0.3478  0.5953 -0.1603
   43MOL   C40633250   1.458   4.650   4.990 -0.0028  0.7887  0.5903
   43MOL   C40733251   1.330   4.592   4.993 -0.2460 -0.1318 -0.1990
   43MOL   C40833252   1.313   4.454   4.935 -0.4869 -0.1983 -0.0953
   43MOL   O40933253   1.405   4.376   4.924 -0.1250  0.2190 -0.1692
   43MOL   O41033254   1.190   4.433   4.888 -0.0022  0.2532  0.1647
   43MOL   C41133255   1.221   4.656   5.050  0.4761 -0.2135  0.3975
   43MOL   C41233256   1.246   4.771   5.125  0.7407 -0.1107 -0.1485
   43MOL   H41333257   1.419   5.265   5.521  0.9027 -3.0763 -1.3378
   43MOL   H41433258   1.321   5.201   5.645 -0.7240 -1.4869 -1.0214
   43MOL   H41533259   1.278   5.439   5.608  1.0402 -0.7835  0.4010
   43MOL   H41633260   1.232   5.408   5.442 -0.1888 -0.4111 -0.2017
   43MOL   H41733261   1.070   5.313   5.684  0.0614 -3.2470 -0.4102
   43MOL   H41833262   0.970   5.493   5.452  3.6763 -2.3607 -0.2561
   43MOL   H41933263   0.893   5.469   5.604 -0.1195  0.6311 -0.0249
   43MOL   H42033264   0.917   5.201   5.534 -0.6963  2.2059  1.4084
   43MOL   H42133265   0.993   5.256   5.393 -2.1829 -2.9111  0.2450
   43MOL   H42233266   1.067   5.035   5.428 -0.0724 -0.1019  0.7762
   43MOL   H42333267   1.099   5.080   5.606 -1.7083  0.1452 -0.4689
   43MOL   H42433268   1.242   5.168   5.354  2.5611  0.3047 -0.0134
   43MOL   H42533269   1.453   5.056   5.439  0.4035 -0.3222  0.1130
   43MOL   H42633270   1.351   4.964   5.543  0.4228 -2.0493 -1.1214
   43MOL   H42733271   1.574   4.819   5.071  0.7744 -0.1969 -0.5215
   43MOL   H42833272   1.546   4.600   4.953  1.1487  1.6815  2.0285
   43MOL   H42933273   1.125   4.605   5.057 -1.1417  2.2728 -2.2750
   43MOL   H43033274   1.169   4.818   5.185  1.9933  1.6414  0.1265
   43MOL   C43133275   0.876   4.173   5.221 -0.3057  0.5186 -0.0074
   43MOL   C43233276   0.993   4.127   5.118  0.7560  0.1174 -0.1351
   43MOL   C43333277   1.030   4.242   5.021 -1.0713  0.4047  0.2587
   43MOL   C43433278   1.148   4.201   4.932 -0.1515  0.0893 -0.5390
   43MOL   O43533279   1.163   4.292   4.832 -0.2846  0.8044  0.4339
   43MOL   C43633280   0.905   4.286   4.947  0.3720  0.0534 -0.2134
   43MOL   C43733281   0.784   4.323   5.042 -0.3467  0.3309  0.3555
   43MOL   C43833282   0.754   4.209   5.144 -0.2661  0.3374  0.4080
   43MOL   C43933283   0.630   4.241   5.224 -0.4683  0.2623  0.9361
   43MOL   O44033284   0.562   4.134   5.271  0.0041 -0.1671 -0.3083
   43MOL   C44133285   0.495   4.143   5.378 -0.4863 -0.0196  0.0600
   43MOL   O44233286   0.482   4.256   5.441  0.2577 -0.5276  0.0902
   43MOL   C44333287   0.442   4.017   5.425  0.1386 -0.2746  0.3175
   43MOL   C44433288   0.349   4.021   5.532 -0.4631 -0.5341 -0.6563
   43MOL   C44533289   0.279   3.910   5.572  0.4892  0.3793 -0.3382
   43MOL   C44633290   0.294   3.785   5.500 -0.1096  0.1487 -0.0428
   43MOL   C44733291   0.220   3.657   5.528  0.5496  0.1960  0.6713
   43MOL   O44833292   0.213   3.556   5.459 -0.7062 -0.4447 -0.2022
   43MOL   O44933293   0.153   3.676   5.644  0.2002  0.3247 -0.4871
   43MOL   C45033294   0.387   3.776   5.398 -0.5936 -0.3761  0.1711
   43MOL   C45133295   0.456   3.892   5.353  0.2532 -0.5961 -0.3773
   43MOL   H45233296   0.842   4.095   5.289 -0.7383 -0.4037 -1.2749
   43MOL   H45333297   0.901   4.263   5.278  1.2389 -0.0387  0.2143
   43MOL   H45433298   1.081   4.100   5.176  0.5591  0.0439  0.1306
   43MOL   H45533299   0.970   4.037   5.060  2.9376  1.2353 -2.8500
   43MOL   H45633300   1.058   4.325   5.086  0.6274 -0.2738  0.4145
   43MOL   H45733301   1.244   4.193   4.982 -0.5652 -1.6631  0.0042
   43MOL   H45833302   1.126   4.102   4.892 -1.1520 -0.0816  0.4209
   43MOL   H45933303   0.926   4.373   4.885 -0.7970  0.4187 -0.1074
   43MOL   H46033304   0.870   4.205   4.884 -0.4997 -0.0473  0.3912
   43MOL   H46133305   0.702   4.351   4.976 -0.7863 -0.9539  0.3345
   43MOL   H46233306   0.804   4.412   5.102 -0.2951  1.9772 -2.0165
   43MOL   H46333307   0.731   4.126   5.077 -1.1322  0.3607  0.6650
   43MOL   H46433308   0.663   4.312   5.300  2.0863 -0.1153  0.2519
   43MOL   H46533309   0.562   4.297   5.161  1.6427  0.1036 -1.5885
   43MOL   H46633310   0.326   4.112   5.585 -2.7747 -0.7429 -1.2278
   43MOL   H46733311   0.207   3.921   5.651  0.3167 -2.1578 -0.0976
   43MOL   H46833312   0.403   3.679   5.352  0.0699  0.6603 -1.8513
   43MOL   H46933313   0.525   3.884   5.271 -0.1665  0.3622 -0.8333
   43MOL   C47033314   7.611   3.700   5.673  0.1447 -0.7175  0.4998
   43MOL   C47133315   7.727   3.614   5.609 -0.8068  0.1779 -0.6152
   43MOL   C47233316   7.865   3.647   5.678  0.7781  0.5307 -0.2857
   43MOL   C47333317   7.979   3.559   5.607  1.1598  0.3946 -0.0381
   43MOL   O47433318   0.055   3.560   5.690  0.0735 -0.9058  0.6939
   43MOL   C47533319   7.895   3.800   5.677  0.0815 -0.5963 -0.4194
   43MOL   C47633320   7.774   3.884   5.728  0.5635 -0.4543  0.4986
   43MOL   C47733321   7.635   3.854   5.672  0.2545  0.8714  0.4911
   43MOL   C47833322   7.528   3.940   5.741 -0.0751 -0.8232 -0.5150
   43MOL   O47933323   7.508   3.878   5.866 -0.2025 -0.8890 -0.2271
   43MOL   C48033324   7.488   3.949   5.973 -0.1418 -0.3498 -0.5522
   43MOL   O48133325   7.472   4.070   5.974  0.2057 -0.4253  0.3283
   43MOL   C48233326   7.488   3.857   6.093  0.2668  0.8544  0.4239
   43MOL   C48333327   7.456   3.910   6.219  0.1914 -0.0017 -0.3506
   43MOL   C48433328   7.468   3.835   6.342 -0.1577 -0.0082  0.1246
   43MOL   C48533329   7.506   3.701   6.336  0.8365  0.2644 -0.3514
   43MOL   C48633330   7.521   3.628   6.463  0.2879 -0.3127 -0.2722
   43MOL   O48733331   7.537   3.683   6.572  0.0790  0.1217  0.2337
   43MOL   O48833332   7.531   3.494   6.440  0.0806  0.4142 -0.0813
   43MOL   C48933333   7.518   3.642   6.207  0.4757  0.0877 -0.0049
   43MOL   C49033334   7.510   3.718   6.088  0.7656  0.8422  0.1690
   43MOL   H49133335   7.521   3.688   5.613  0.1091 -3.2662  1.0200
   43MOL   H49233336   7.595   3.676   5.778 -0.7568 -2.3264  0.0024
   43MOL   H49333337   7.716   3.507   5.628  1.8340  0.0691  0.5461
   43MOL   H49433338   7.734   3.629   5.502 -2.0520 -1.8291 -1.0022
   43MOL   H49533339   7.848   3.623   5.783 -0.4901  1.1180 -0.3548
   43MOL   H49633340   7.947   3.455   5.608 -0.7289  0.9352 -1.7136
   43MOL   H49733341   7.991   3.589   5.503  1.5549  1.5946  0.3490
   43MOL   H49833342   7.985   3.816   5.735 -0.6696  0.7346  0.3897
   43MOL   H49933343   7.924   3.831   5.577  0.8891  0.0150  0.0055
   43MOL   H50033344   7.799   3.990   5.719  0.0117 -0.3258  0.4437
   43MOL   H50133345   7.775   3.876   5.837  0.8061  1.6955  0.6783
   43MOL   H50233346   7.640   3.883   5.567 -0.3635  1.0751  0.5128
   43MOL   H50333347   7.551   4.046   5.751 -0.0087 -1.1152  2.9134
   43MOL   H50433348   7.431   3.934   5.692 -0.5096 -2.5600  0.5197
   43MOL   H50533349   7.446   4.016   6.237  0.0488 -0.1518  0.4528
   43MOL   H50633350   7.469   3.892   6.433  0.8990  1.0856 -0.5703
   43MOL   H50733351   7.539   3.537   6.194 -0.9448 -0.6484  3.1015
   43MOL   H50833352   7.537   3.663   5.999  0.7928 -0.3052  0.8655
   43MOL   C50933353   7.413   3.157   6.939  0.0009 -0.1105 -0.2573
   43MOL   C51033354   7.361   3.255   6.839  0.1343 -0.1058  0.1003
   43MOL   C51133355   7.486   3.286   6.750  0.2770  0.4434 -0.3603
   43MOL   C51233356   7.440   3.370   6.629 -0.7592  0.0697 -0.4553
   43MOL   O51333357   7.562   3.416   6.569  0.5259  0.5462 -0.0749
   43MOL   C51433358   7.598   3.353   6.834 -0.2182 -0.6559 -0.3752
   43MOL   C51533359   7.652   3.257   6.944 -0.1011 -0.0467  0.0087
   43MOL   C51633360   7.526   3.218   7.030 -0.0565 -0.6642 -0.5344
   43MOL   C51733361   7.554   3.120   7.139  0.4404 -0.1375 -1.3546
   43MOL   O51833362   7.664   3.159   7.224 -0.3103 -0.4261  0.3998
   43MOL   C51933363   7.702   3.078   7.325  0.2755 -0.0753 -0.1856
   43MOL   O52033364   7.640   2.971   7.345 -0.7324 -0.4136 -0.2483
   43MOL   C52133365   7.796   3.140   7.417 -0.7158  0.2188  0.2247
   43MOL   C52233366   7.898   3.214   7.364  1.1125 -0.6180  0.3694
   43MOL   C52333367   7.984   3.287   7.444 -0.2020  0.3185 -0.1538
   43MOL   C52433368   7.980   3.274   7.590  0.1374  0.5301  0.3864
   43MOL   C52533369   0.045   3.342   7.677  0.8935  0.0430  0.6041
   43MOL   O52633370   0.043   3.350   7.802  0.0662  0.2233 -0.1313
   43MOL   O52733371   0.142   3.392   7.606  0.6506 -0.0380  0.4592
   43MOL   C52833372   7.882   3.183   7.644 -0.1434  0.2676 -0.2308
   43MOL   C52933373   7.785   3.123   7.563  0.1088  0.1285 -0.0240
   43MOL   H53033374   7.328   3.128   7.001  0.2431  1.3940  0.8256
   43MOL   H53133375   7.444   3.062   6.896 -0.0213 -0.4757  0.5212
   43MOL   H53233376   7.275   3.218   6.783 -0.0269 -1.6970  1.3491
   43MOL   H53333377   7.324   3.339   6.898  2.2416  0.0898  1.1815
   43MOL   H53433378   7.524   3.192   6.712  1.2455  1.1848 -1.2581
   43MOL   H53533379   7.378   3.313   6.560 -1.4952 -0.3602  0.5616
   43MOL   H53633380   7.382   3.456   6.660 -1.3610  0.2497 -2.0312
   43MOL   H53733381   7.684   3.388   6.777  1.0195  1.0830  2.4610
   43MOL   H53833382   7.562   3.446   6.878 -1.0667 -1.0073 -0.3136
   43MOL   H53933383   7.718   3.319   7.005 -0.4738  0.5834 -0.2206
   43MOL   H54033384   7.707   3.169   6.913  0.1194  0.8239 -2.2217
   43MOL   H54133385   7.491   3.311   7.074 -0.5892 -0.4786 -1.3322
   43MOL   H54233386   7.474   3.110   7.212  1.2898 -1.8452 -0.6370
   43MOL   H54333387   7.571   3.018   7.104  2.8731 -1.0295  2.1129
   43MOL   H54433388   7.916   3.222   7.258  1.4878  0.7357  0.5346
   43MOL   H54533389   0.014   3.358   7.396 -1.3097  0.5068 -1.4272
   43MOL   H54633390   7.877   3.166   7.751 -1.3806 -0.4337 -0.3954
   43MOL   H54733391   7.702   3.063   7.597 -2.3858  2.9478 -0.9482
   43MOL   C54833392   0.529   3.720   7.914 -0.3551  0.1671 -0.6540
   43MOL   C54933393   0.392   3.662   7.868  0.2705 -0.7995  0.1175
   43MOL   C55033394   0.388   3.649   7.717  0.3595  0.0330  0.3693
   43MOL   C55133395   0.254   3.590   7.673 -0.2343  0.0948  0.1888
   43MOL   O55233396   0.262   3.450   7.673  0.0733  0.3595 -0.0796
   43MOL   C55333397   0.422   3.780   7.647  0.1725 -0.3039 -0.2042
   43MOL   C55433398   0.554   3.825   7.688 -0.9054 -0.9807 -0.3052
   43MOL   C55533399   0.562   3.846   7.839  0.4652 -0.6091 -0.8908
   43MOL   C55633400   0.708   3.886   7.876  0.8841  0.5671  0.1142
   43MOL   O55733401   0.741   4.024   7.838 -0.1829  0.0595  0.0164
   43MOL   C55833402   0.763   4.113   7.937 -0.0487 -0.0905 -0.0162
   43MOL   O55933403   0.738   4.086   0.018 -0.8520 -0.0848 -0.4437
   43MOL   C56033404   0.819   4.237   7.887 -0.2492  1.1751 -0.3024
   43MOL   C56133405   0.875   4.242   7.759 -0.2800  0.1525 -0.1940
   43MOL   C56233406   0.915   4.359   7.700  0.0163 -0.6114 -0.1827
   43MOL   C56333407   0.914   4.478   7.775 -0.0435 -0.1603 -0.1083
   43MOL   C56433408   0.972   4.599   7.713  1.2952 -0.5537 -0.4801
   43MOL   O56533409   1.029   4.604   7.607  0.6483 -0.3552 -0.3033
   43MOL   O56633410   0.932   4.706   7.784  0.1223  0.4144 -0.3838
   43MOL   C56733411   0.856   4.482   7.908  0.4075  0.2381  0.0648
   43MOL   C56833412   0.800   4.359   7.956  0.0323 -0.1912 -0.1598
   43MOL   H56933413   0.521   3.732   8.022 -1.8719  0.5182 -0.8036
   43MOL   H57033414   0.608   3.648   7.890 -0.0083 -0.1892  1.4835
   43MOL   H57133415   0.380   3.567   7.919 -1.6940 -1.0918 -0.8591
   43MOL   H57233416   0.313   3.730   7.900  1.9007  0.5794  1.3516
   43MOL   H57333417   0.464   3.580   7.680 -0.4570  0.0843 -1.5037
   43MOL   H57433418   0.179   3.617   7.747 -0.2915 -0.3948  0.3118
   43MOL   H57533419   0.230   3.615   7.570 -0.0456  0.3260  0.2024
   43MOL   H57633420   0.408   3.759   7.541  0.4537  4.1256 -1.2403
   43MOL   H57733421   0.348   3.859   7.658  1.5182  0.7895  1.3276
   43MOL   H57833422   0.572   3.912   7.626 -1.8937  1.4219  2.6780
   43MOL   H57933423   0.631   3.752   7.658 -0.7808 -0.4586 -1.2872
   43MOL   H58033424   0.503   3.932   7.870  1.4542  0.0113 -0.7123
   43MOL   H58133425   0.723   3.876   7.983  1.1541 -0.9467 -0.0540
   43MOL   H58233426   0.778   3.814   7.835  1.3289  1.3223 -0.4825
   43MOL   H58333427   0.876   4.153   7.698  0.5092 -0.8953  1.3417
   43MOL   H58433428   0.952   4.355   7.598 -1.4496 -1.6600 -0.6872
   43MOL   H58533429   0.848   4.571   7.967 -4.6092  0.4961 -0.7633
   43MOL   H58633430   0.767   4.348   0.022 -0.9970  1.5642 -0.2773
   43MOL   C58733431   0.852   5.196   7.496 -0.1177  0.6804 -0.4063
   43MOL   C58833432   0.865   5.089   7.607  0.4721 -0.1901 -0.5167
   43MOL   C58933433   1.006   5.016   7.597 -0.2103  0.0355  0.2136
   43MOL   C59033434   1.040   4.913   7.709 -0.2774  0.5820 -0.0381
   43MOL   O59133435   0.922   4.834   7.711  0.8733 -0.0665  0.1345
   43MOL   C59233436   1.025   4.961   7.457  0.3788  0.2934  0.4447
   43MOL   C59333437   1.012   5.064   7.344 -0.0730 -0.1495  0.1315
   43MOL   C59433438   0.878   5.138   7.359  0.4308  0.4621 -0.0388
   43MOL   C59533439   0.855   5.232   7.246  0.0267  0.3285  0.2526
   43MOL   O59633440   0.966   5.327   7.240  0.3866 -0.1239  0.4417
   43MOL   C59733441   1.018   5.365   7.130 -0.0566 -0.2940 -0.5780
   43MOL   O59833442   1.017   5.291   7.033  0.3183  0.6921 -0.3497
   43MOL   C59933443   1.093   5.498   7.142 -0.3019  0.2121  0.5624
   43MOL   C60033444   1.110   5.564   7.263 -0.3152  0.1948 -0.0647
   43MOL   C60133445   1.175   5.687   7.271  0.2106  0.4016 -0.6687
   43MOL   C60233446   1.236   5.747   7.156  0.3255  1.0704  0.1689
   43MOL   C60333447   1.323   5.867   7.167 -0.5735  0.2088 -0.0695
   43MOL   O60433448   1.366   5.901   7.278  0.8899 -0.3480 -0.0350
   43MOL   O60533449   1.366   5.912   7.045 -0.3211  0.5357  0.4773
   43MOL   C60633450   1.222   5.677   7.032 -0.0068 -0.0848  0.3176
   43MOL   C60733451   1.153   5.555   7.028 -0.0232  0.4578 -0.5586
   43MOL   H60833452   0.750   5.232   7.491  0.2258  1.9531  1.3651
   43MOL   H60933453   0.930   5.272   7.505  1.5348 -0.8256 -1.4617
   43MOL   H61033454   0.863   5.125   7.710 -0.5710 -0.1084 -0.5638
   43MOL   H61133455   0.783   5.018   7.597 -0.9790  1.3294  0.3505
   43MOL   H61233456   1.086   5.090   7.605 -0.6565  0.2666  3.2400
   43MOL   H61333457   1.130   4.854   7.692 -0.5455  1.0155 -3.4685
   43MOL   H61433458   1.045   4.965   7.804 -2.3725 -0.8100  0.8566
   43MOL   H61533459   1.120   4.907   7.457  1.5229  2.2377  2.5600
   43MOL   H61633460   0.947   4.887   7.438 -1.2752  1.7251  1.5693
   43MOL   H61733461   1.016   5.019   7.245  0.9210  0.0486  0.0769
   43MOL   H61833462   1.099   5.130   7.344  1.5249 -2.1877 -1.0187
   43MOL   H61933463   0.796   5.068   7.341 -1.3759  2.0202  1.9863
   43MOL   H62033464   0.850   5.179   7.151  1.8292  1.4310 -0.4936
   43MOL   H62133465   0.761   5.285   7.262 -0.1879  0.6589 -2.0239
   43MOL   H62233466   1.083   5.516   7.355  0.9869  2.1440  1.3986
   43MOL   H62333467   1.184   5.729   7.370 -0.2701 -0.8050 -0.0973
   43MOL   H62433468   1.268   5.719   6.944 -1.2200  2.5808  0.8814
   43MOL   H62533469   1.153   5.495   6.938 -1.1193  0.3143 -0.4682
   43MOL   C62633470   1.768   5.898   6.681  0.3892 -0.1082  0.1228
   43MOL   C62733471   1.745   5.894   6.832 -0.2033  0.1771  0.7675
   43MOL   C62833472   1.625   5.978   6.875 -0.0168  0.1593 -0.8377
   43MOL   C62933473   1.590   5.960   7.028 -0.4126  0.5917  0.3619
   43MOL   O63033474   1.468   6.017   7.061  0.6283 -0.7637 -0.4273
   43MOL   C63133475   1.648   6.122   6.842  1.1379  0.1046 -0.8084
   43MOL   C63233476   1.676   6.138   6.696 -0.2446  0.1986 -0.1780
   43MOL   C63333477   1.789   6.047   6.643 -0.2587  0.3031  0.5017
   43MOL   C63433478   1.788   6.060   6.490 -0.1488 -0.2791  0.2985
   43MOL   O63533479   1.904   6.020   6.431  0.6543  0.2150 -0.9152
   43MOL   C63633480   1.922   6.045   6.293  0.7015 -0.8551  0.2477
   43MOL   O63733481   1.843   6.107   6.225  0.6132  0.0688  0.2940
   43MOL   C63833482   2.054   6.007   6.242 -0.8671 -0.4067 -0.2953
   43MOL   C63933483   2.158   5.950   6.321 -0.2252  0.6540 -0.4695
   43MOL   C64033484   2.293   5.941   6.270  0.6910  0.0769 -0.0308
   43MOL   C64133485   2.319   5.974   6.136  0.3209 -0.8461  0.1529
   43MOL   C64233486   2.458   5.960   6.093 -0.2720 -0.2633  0.4138
   43MOL   O64333487   2.552   5.919   6.157 -0.3717  0.1064  0.4068
   43MOL   O64433488   2.463   5.983   5.957  0.0542  0.1760 -0.5399
   43MOL   C64533489   2.211   6.023   6.054 -0.4411  0.3961  0.2972
   43MOL   C64633490   2.085   6.046   6.103 -0.2457 -0.5538  0.2386
   43MOL   H64733491   1.856   5.839   6.656 -1.4901 -2.5963 -0.8832
   43MOL   H64833492   1.681   5.854   6.632  1.2903 -0.2074 -1.3929
   43MOL   H64933493   1.723   5.793   6.867 -0.4527 -0.0370  0.0210
   43MOL   H65033494   1.828   5.931   6.891  2.0205 -2.6087 -0.4896
   43MOL   H65133495   1.540   5.935   6.822 -1.0536  0.1580  0.8012
   43MOL   H65233496   1.592   5.853   7.047 -0.8926  0.3739 -0.7874
   43MOL   H65333497   1.672   6.002   7.087 -0.1786 -1.4469  1.5130
   43MOL   H65433498   1.559   6.182   6.864  1.9799  0.2022  2.7606
   43MOL   H65533499   1.721   6.167   6.909  1.1491  0.1244 -0.8336
   43MOL   H65633500   1.711   6.241   6.685  5.0541 -1.1015  2.6953
   43MOL   H65733501   1.588   6.136   6.632 -0.8217 -1.4397  0.6419
   43MOL   H65833502   1.884   6.074   6.690  1.0588  0.0860 -1.9522
   43MOL   H65933503   1.701   6.008   6.451 -0.4889 -2.4556  3.7232
   43MOL   H66033504   1.784   6.166   6.464  0.2269 -0.4787 -0.5895
   43MOL   H66133505   2.145   5.917   6.423  1.8307 -3.2614 -1.3743
   43MOL   H66233506   2.373   5.904   6.333  1.4471  0.4621 -0.7497
   43MOL   H66333507   2.222   6.044   5.949 -1.4082 -0.5788 -0.0125
   43MOL   H66433508   2.012   6.090   6.037 -0.8497  0.5077  1.5849
   43MOL   C66533509   2.914   5.842   5.589  0.3508 -0.0600 -0.3400
   43MOL   C66633510   2.842   5.857   5.725  0.6342 -0.0205  0.5266
   43MOL   C66733511   2.697   5.812   5.716  0.6457  0.7096 -0.0110
   43MOL   C66833512   2.625   5.829   5.859 -0.8944 -0.2927  0.6076
   43MOL   O66933513   2.602   5.965   5.897  0.0751  0.5822  0.1767
   43MOL   C67033514   2.637   5.910   5.608  0.2648  0.1659 -1.0876
   43MOL   C67133515   2.704   5.899   5.474 -0.1642 -0.0481 -0.2096
   43MOL   C67233516   2.860   5.929   5.482  0.0780  0.3835 -0.5198
   43MOL   C67333517   2.929   5.896   5.351  0.3971 -0.1059  0.6981
   43MOL   O67433518   2.850   5.946   5.237 -0.4091 -0.2596  0.0195
   43MOL   C67533519   2.862   5.883   5.116  0.6721 -0.0568 -0.8398
   43MOL   O67633520   2.929   5.782   5.096 -0.0782  0.1602 -0.2519
   43MOL   C67733521   2.778   5.947   5.010 -0.4909  0.2779 -0.0329
   43MOL   C67833522   2.689   6.056   5.031  0.3098 -0.0265  0.6596
   43MOL   C67933523   2.608   6.107   4.925 -0.0869  0.3564  0.3023
   43MOL   C68033524   2.625   6.054   4.793  0.0705 -0.0641  0.9385
   43MOL   C68133525   2.538   6.103   4.686 -0.5408 -0.2864  0.7848
   43MOL   O68233526   2.505   6.036   4.585  0.5431 -0.3053  0.2980
   43MOL   O68333527   2.493   6.232   4.699  0.7673 -0.1059  0.2641
   43MOL   C68433528   2.718   5.950   4.772 -0.6080 -0.5821  0.1801
   43MOL   C68533529   2.792   5.891   4.881 -0.2440  0.1639 -0.5463
   43MOL   H68633530   3.015   5.879   5.610  0.5427 -0.5786 -0.3355
   43MOL   H68733531   2.916   5.739   5.552  0.3921  0.5208 -1.9934
   43MOL   H68833532   2.883   5.792   5.803 -0.7645  0.4878  1.7185
   43MOL   H68933533   2.850   5.957   5.768 -1.6380 -0.3381  1.7291
   43MOL   H69033534   2.696   5.706   5.689  1.1257  0.9539 -0.9824
   43MOL   H69133535   2.528   5.779   5.867 -0.6876 -0.8366 -0.2005
   43MOL   H69233536   2.683   5.784   5.939 -0.0999  0.0622  0.2384
   43MOL   H69333537   2.531   5.890   5.593 -0.0484  2.2814 -1.8663
   43MOL   H69433538   2.636   6.013   5.644 -2.8718  0.0960 -0.8375
   43MOL   H69533539   2.655   5.977   5.415 -2.8373 -2.3851 -1.2085
   43MOL   H69633540   2.676   5.804   5.429 -1.2624  0.4675 -0.6444
   43MOL   H69733541   2.882   6.032   5.510 -1.0384 -0.0170  2.0015
   43MOL   H69833542   3.029   5.938   5.347  1.3724 -2.5472 -1.3925
   43MOL   H69933543   2.947   5.789   5.351 -1.4209 -0.4568 -2.1330
   43MOL   H70033544   2.676   6.087   5.134  1.1303 -1.4128  1.2026
   43MOL   H70133545   2.549   6.195   4.946 -0.3544  0.0225  0.9530
   43MOL   H70233546   2.719   5.907   4.673  0.4992 -0.9843  0.3642
   43MOL   H70333547   2.855   5.804   4.867 -0.6362 -0.3649  0.9420
   43MOL   C70433548   2.233   6.368   4.159  0.1426 -0.0831 -0.1561
   43MOL   C70533549   2.362   6.357   4.247  0.4012 -0.3678 -0.4146
   43MOL   C70633550   2.329   6.336   4.390  0.3117  0.4698 -0.0748
   43MOL   C70733551   2.453   6.321   4.474 -0.4242  0.4326  0.2969
   43MOL   O70833552   2.390   6.269   4.595  0.2294  0.6989 -0.2467
   43MOL   C70933553   2.245   6.455   4.441 -0.0883 -0.4370  0.7657
   43MOL   C71033554   2.118   6.484   4.369 -0.3847 -0.0714 -0.7963
   43MOL   C71133555   2.143   6.485   4.208 -0.1177 -1.1586  0.3792
   43MOL   C71233556   2.004   6.472   4.141  0.3757  0.1417 -0.6935
   43MOL   O71333557   2.005   6.494   4.003 -0.1832  0.8290 -0.1600
   43MOL   C71433558   1.893   6.465   3.939  0.1455  0.5008 -0.6995
   43MOL   O71533559   1.791   6.416   3.991  0.7364  0.0711  0.2014
   43MOL   C71633560   1.896   6.498   3.796  0.2527 -0.2748  0.2122
   43MOL   C71733561   1.803   6.427   3.716  0.1845  0.0334  0.6111
   43MOL   C71833562   1.816   6.439   3.574 -1.1351  0.7471 -0.0910
   43MOL   C71933563   1.915   6.517   3.511 -0.2029 -0.0181 -0.1346
   43MOL   C72033564   1.914   6.539   3.363  0.6764 -0.2084  0.2082
   43MOL   O72133565   2.024   6.563   3.302  0.3185 -0.2491 -0.1809
   43MOL   O72233566   1.793   6.520   3.300  0.4308 -0.3198  0.1929
   43MOL   C72333567   2.004   6.581   3.592 -0.4484  0.1749 -0.0038
   43MOL   C72433568   2.002   6.569   3.733  0.3376  0.1237  0.0860
   43MOL   H72533569   2.257   6.370   4.053 -0.6527  1.9341 -0.3132
   43MOL   H72633570   2.182   6.272   4.168 -0.7523  0.3156 -0.9218
   43MOL   H72733571   2.426   6.278   4.207  0.1895  0.9884 -3.6160
   43MOL   H72833572   2.419   6.450   4.246  1.0974 -0.7599  1.0193
   43MOL   H72933573   2.273   6.243   4.404 -1.2627  1.2354 -1.0702
   43MOL   H73033574   2.516   6.242   4.432 -0.6272  0.8680 -0.8406
   43MOL   H73133575   2.503   6.414   4.499  0.5547 -0.6353  2.5013
   43MOL   H73233576   2.246   6.451   4.550 -0.8099  2.9981  0.9514
   43MOL   H73333577   2.318   6.535   4.426 -1.4703 -0.0678 -4.8044
   43MOL   H73433578   2.090   6.589   4.384 -0.6159 -0.1981 -0.3458
   43MOL   H73533579   2.049   6.400   4.376  0.2622 -0.8382 -3.1215
   43MOL   H73633580   2.190   6.582   4.193 -2.2904 -0.1439  0.0183
   43MOL   H73733581   1.964   6.372   4.155 -0.3804  0.2333 -2.0677
   43MOL   H73833582   1.929   6.544   4.176  0.7346  0.7444 -1.1393
   43MOL   H73933583   1.724   6.368   3.761 -0.1800 -0.3767 -0.5488
   43MOL   H74033584   1.745   6.381   3.517  2.5555 -1.8571 -2.1743
   43MOL   H74133585   2.079   6.647   3.549  1.8865 -2.3426  0.0703
   43MOL   H74233586   2.073   6.620   3.797  2.0001 -0.8347 -0.9605
   43MOL   C74333587   1.651   6.513   2.744  0.1061 -0.0270 -0.0922
   43MOL   C74433588   1.670   6.503   2.896  0.4941  0.0275 -0.3789
   43MOL   C74533589   1.723   6.635   2.953  0.5856 -0.6829 -0.2705
   43MOL   C74633590   1.745   6.638   3.105 -1.1099 -0.5955 -0.4432
   43MOL   O74733591   1.799   6.521   3.149  0.2936 -0.4094  0.2515
   43MOL   C74833592   1.850   6.676   2.881 -0.5047 -0.4978  0.0863
   43MOL   C74933593   1.825   6.687   2.740  0.4903  0.2260  0.2195
   43MOL   C75033594   1.786   6.557   2.674 -0.9978  0.3289  0.8149
   43MOL   C75133595   1.772   6.547   2.511  0.6917 -0.5931  0.0460
   43MOL   O75233596   1.889   6.616   2.465  0.3011  0.5510  0.4741
   43MOL   C75333597   2.002   6.562   2.433  0.1237  0.3284  0.2814
   43MOL   O75433598   2.014   6.438   2.435 -0.1074 -0.5842  0.1784
   43MOL   C75533599   2.101   6.658   2.385 -0.5094 -0.5529  0.3538
   43MOL   C75633600   2.084   6.795   2.410 -0.1539  0.0329 -0.8009
   43MOL   C75733601   2.179   6.882   2.359 -0.3848 -0.6222  1.2825
   43MOL   C75833602   2.290   6.844   2.283  0.1020  0.1317  0.1276
   43MOL   C75933603   2.392   6.947   2.238  0.2272 -0.3546 -0.7354
   43MOL   O76033604   2.461   6.929   2.140 -0.5610  0.2167 -0.1993
   43MOL   O76133605   2.417   7.042   2.334 -0.3548 -0.0517  0.0494
   43MOL   C76233606   2.311   6.702   2.260 -0.0326 -0.5276 -0.0268
   43MOL   C76333607   2.214   6.609   2.318  0.5972 -0.0331  0.8609
   43MOL   H76433608   1.619   6.414   2.713  0.7164 -0.0908 -0.5189
   43MOL   H76533609   1.572   6.588   2.731  0.6426  0.7079  0.8123
   43MOL   H76633610   1.570   6.496   2.940 -0.3020  0.6082 -2.0611
   43MOL   H76733611   1.743   6.429   2.929  1.4441  1.1172  0.0162
   43MOL   H76833612   1.650   6.713   2.931  0.3097 -0.5076  1.1744
   43MOL   H76933613   1.821   6.712   3.129  0.6878 -1.2074 -3.9007
   43MOL   H77033614   1.652   6.659   3.157 -1.5895 -1.5592 -0.8898
   43MOL   H77133615   1.883   6.765   2.935 -1.5816 -0.6587  1.0291
   43MOL   H77233616   1.937   6.613   2.902  0.3412  0.4028 -0.6306
   43MOL   H77333617   1.918   6.728   2.699 -0.4340  0.2471 -1.9158
   43MOL   H77433618   1.747   6.755   2.706  1.4418  1.7129  0.9559
   43MOL   H77533619   1.856   6.478   2.701 -0.2503  0.6439 -0.1535
   43MOL   H77633620   1.759   6.445   2.473  1.9078  0.1496 -2.5290
   43MOL   H77733621   1.692   6.617   2.486  1.5061  0.3678  0.0879
   43MOL   H77833622   2.000   6.829   2.468  0.1932  0.5222 -0.5787
   43MOL   H77933623   2.163   6.989   2.368 -3.1887 -0.9039  0.3496
   43MOL   H78033624   2.403   6.665   2.216  0.3073 -1.8012  1.6869
   43MOL   H78133625   2.218   6.502   2.307 -0.5039  0.0141 -0.0127
   43MOL   H78233626   2.510   7.056   2.343 -0.1495 -0.7347 -0.8953
   44MOL     C133627   2.196   2.950   1.071  0.1870  0.1207  0.2225
   44MOL     C233628   2.141   3.048   0.961 -0.3456  0.0736 -0.1602
   44MOL     C333629   2.252   3.115   0.878  0.3445  0.7220 -0.0726
   44MOL     C433630   2.195   3.221   0.791 -0.9243 -0.0566 -0.3333
   44MOL     O533631   2.138   3.165   0.675  0.5857  0.2373 -0.7324
   44MOL     C633632   2.363   3.161   0.964  0.3706  0.4029 -0.4686
   44MOL     C733633   2.425   3.056   1.054 -0.2959  0.2514 -0.1483
   44MOL     C833634   2.312   3.017   1.150  0.2066 -0.4367  0.0285
   44MOL     C933635   2.353   2.943   1.278  0.0903 -0.4722 -0.3015
   44MOL    O1033636   2.239   2.916   1.366 -0.0098  0.3010 -0.5575
   44MOL    C1133637   2.240   2.803   1.447  1.0208 -0.3071 -0.3157
   44MOL    O1233638   2.333   2.725   1.444  0.7849 -0.0962 -0.0382
   44MOL    C1333639   2.122   2.788   1.530 -0.2635  0.5395 -0.3278
   44MOL    C1433640   2.008   2.868   1.498 -0.1566 -0.1992 -0.2343
   44MOL    C1533641   1.894   2.862   1.585 -0.2841  0.6251  0.8949
   44MOL    C1633642   1.904   2.797   1.707  0.2992 -0.5261  0.0376
   44MOL    C1733643   1.783   2.795   1.798 -0.2511 -0.4351  0.4820
   44MOL    O1833644   1.686   2.871   1.790  0.2018 -0.0366  0.3270
   44MOL    O1933645   1.785   2.690   1.879 -0.2303 -0.5097 -0.0446
   44MOL    C2033646   2.011   2.710   1.728 -0.1739 -0.0964 -0.3578
   44MOL    C2133647   2.119   2.705   1.640  0.0008  0.1278  0.3623
   44MOL    H2233648   2.114   2.922   1.138 -0.9214  0.7585 -0.8615
   44MOL    H2333649   2.224   2.858   1.021 -0.8540 -0.3647  0.5235
   44MOL    H2433650   2.068   3.005   0.893 -1.2672  1.3946 -0.0227
   44MOL    H2533651   2.088   3.125   1.017  1.9756  2.2734 -0.8936
   44MOL    H2633652   2.286   3.035   0.813 -2.2972  0.2027 -0.8835
   44MOL    H2733653   2.126   3.276   0.855 -0.2250  0.0025  0.3719
   44MOL    H2833654   2.267   3.294   0.757 -0.2619  0.6332  2.4221
   44MOL    H2933655   2.441   3.207   0.904  0.3383  0.2544 -0.6238
   44MOL    H3033656   2.329   3.253   1.012  2.0966  1.5824 -1.4645
   44MOL    H3133657   2.512   3.087   1.113  0.1372  0.5353 -0.9345
   44MOL    H3233658   2.456   2.970   0.996 -1.4454  0.8131 -1.6270
   44MOL    H3333659   2.266   3.111   1.180  1.7111  0.1667  0.5186
   44MOL    H3433660   2.403   2.847   1.264 -0.1217 -0.7642  0.8759
   44MOL    H3533661   2.412   3.010   1.341 -0.4399  0.3566 -0.6752
   44MOL    H3633662   1.996   2.930   1.410 -0.5257 -0.1251 -0.1334
   44MOL    H3733663   1.803   2.914   1.559  0.4534  1.1615 -0.6583
   44MOL    H3833664   2.013   2.649   1.817  0.7804  0.7798  0.2203
   44MOL    H3933665   2.194   2.630   1.658 -0.4291  0.2112  2.6450
   44MOL    H4033666   2.113   3.074   0.688 -0.5879  0.5525 -0.7155
   44MOL    C4133667   1.332   2.788   2.225 -0.0651 -0.1192 -0.2309
   44MOL    C4233668   1.405   2.758   2.090 -0.1090  0.0985  0.3195
   44MOL    C4333669   1.472   2.615   2.079  0.1937  0.3648  0.4458
   44MOL    C4433670   1.571   2.603   1.960 -0.7159  0.3565 -0.3127
   44MOL    O4533671   1.681   2.687   1.991  0.1741 -0.3472 -0.1300
   44MOL    C4633672   1.546   2.582   2.221  0.8334 -0.1443  0.1893
   44MOL    C4733673   1.466   2.608   2.351  0.0258  0.2080 -0.0526
   44MOL    C4833674   1.415   2.760   2.352 -0.5048 -0.0955  0.6950
   44MOL    C4933675   1.331   2.786   2.480 -0.5477  0.3985  0.0539
   44MOL    O5033676   1.226   2.689   2.499  0.0508 -0.1549  0.2428
   44MOL    C5133677   1.161   2.695   2.609  0.7979  0.2391  0.2764
   44MOL    O5233678   1.181   2.769   2.706  0.0345  0.5555 -0.2078
   44MOL    C5333679   1.042   2.600   2.610 -0.1526 -0.4129  0.8827
   44MOL    C5433680   0.930   2.622   2.694 -0.2049 -0.4622  0.1950
   44MOL    C5533681   0.813   2.550   2.669  0.1483 -0.8882 -0.8674
   44MOL    C5633682   0.816   2.443   2.576  0.3652 -1.2764  0.1381
   44MOL    C5733683   0.696   2.359   2.557 -0.7562 -0.7166 -0.0076
   44MOL    O5833684   0.592   2.373   2.632 -0.0040  0.0464  0.2824
   44MOL    O5933685   0.702   2.264   2.454  0.4537  0.0618 -0.8459
   44MOL    C6033686   0.936   2.408   2.510  0.0276  0.2061 -0.6800
   44MOL    C6133687   1.055   2.484   2.522  0.1654  0.0012 -0.5062
   44MOL    H6233688   1.307   2.894   2.227  0.1145 -0.0928  2.4207
   44MOL    H6333689   1.230   2.749   2.226  0.2713 -1.0416  1.7999
   44MOL    H6433690   1.343   2.772   2.001  0.5067  1.1333  0.0453
   44MOL    H6533691   1.486   2.829   2.070  1.4279 -2.2401 -2.1009
   44MOL    H6633692   1.390   2.542   2.072  0.1351  0.6409 -2.1152
   44MOL    H6733693   1.609   2.501   1.955 -3.5541 -0.6949 -1.3336
   44MOL    H6833694   1.517   2.636   1.871 -1.3287 -0.3023 -0.1860
   44MOL    H6933695   1.588   2.482   2.213 -0.1567 -0.4770 -1.1003
   44MOL    H7033696   1.631   2.650   2.228  0.0436  0.8371  0.2694
   44MOL    H7133697   1.527   2.584   2.438  1.6480  2.5867 -0.4925
   44MOL    H7233698   1.377   2.546   2.356 -0.3386  0.5894 -1.6045
   44MOL    H7333699   1.503   2.824   2.351  0.3554 -1.2596  0.5999
   44MOL    H7433700   1.408   2.782   2.557 -2.3651  0.2947  1.8876
   44MOL    H7533701   1.292   2.888   2.475 -1.0440  0.3022  1.9084
   44MOL    H7633702   0.926   2.704   2.765 -0.9364  0.7586 -1.2319
   44MOL    H7733703   0.724   2.577   2.724  0.2976 -0.1237 -0.9926
   44MOL    H7833704   0.948   2.315   2.457 -1.0333  0.6740 -1.7837
   44MOL    H7933705   1.141   2.453   2.464  0.5808 -2.0074  1.1197
   44MOL    C8033706   0.147   2.269   2.189 -0.1103 -0.3060  0.0546
   44MOL    C8133707   0.298   2.280   2.187 -0.1176 -0.1623 -0.4990
   44MOL    C8233708   0.366   2.239   2.325 -0.1981  1.3014 -0.1893
   44MOL    C8333709   0.518   2.255   2.322  0.0016  0.5318 -0.2985
   44MOL    O8433710   0.568   2.203   2.441 -0.2553 -0.0378  0.4866
   44MOL    C8533711   0.309   2.322   2.445 -0.2320  0.6663  0.6995
   44MOL    C8633712   0.160   2.284   2.452 -0.0740  0.3455  0.3568
   44MOL    C8733713   0.083   2.316   2.323 -0.6142  0.2810  0.4830
   44MOL    C8833714   7.974   2.274   2.330 -0.2166 -0.3598 -0.3453
   44MOL    O8933715   7.975   2.139   2.364 -0.9667  0.4038 -0.0168
   44MOL    C9033716   7.868   2.068   2.409  0.1026 -0.8466  0.3098
   44MOL    O9133717   7.759   2.128   2.409 -0.2634 -0.7073  0.6829
   44MOL    C9233718   7.906   1.934   2.454 -0.6552 -0.0230 -0.0577
   44MOL    C9333719   0.010   1.898   2.448 -0.2803 -0.4776 -0.3667
   44MOL    C9433720   0.053   1.775   2.506  0.0082 -0.6459 -0.5581
   44MOL    C9533721   7.997   1.680   2.546 -0.1112 -0.1106  0.0126
   44MOL    C9633722   0.007   1.546   2.589 -1.0605  0.2998 -0.1188
   44MOL    O9733723   0.123   1.518   2.629 -0.1718  0.2411  0.8104
   44MOL    O9833724   7.935   1.460   2.591  0.1634 -0.2005  0.2430
   44MOL    C9933725   7.858   1.718   2.545  0.0032  0.5940 -0.7917
   44MOL   C10033726   7.814   1.845   2.508 -0.4605 -0.2960 -0.8302
   44MOL   H10133727   0.108   2.321   2.101  0.5034  1.5282  0.8461
   44MOL   H10233728   0.108   2.169   2.171 -0.7115  0.2636 -1.9205
   44MOL   H10333729   0.339   2.210   2.114  1.6763 -0.4951  0.7966
   44MOL   H10433730   0.323   2.379   2.151 -1.9378  1.4107  2.3791
   44MOL   H10533731   0.357   2.132   2.345  0.0990  1.3521  0.2368
   44MOL   H10633732   0.553   2.205   2.231  0.4073 -0.9009  0.6147
   44MOL   H10733733   0.539   2.361   2.308  2.4198  0.3199  1.2765
   44MOL   H10833734   0.346   2.297   2.544 -0.2986  0.8763  0.7788
   44MOL   H10933735   0.334   2.427   2.431  0.6958  0.1401 -1.7624
   44MOL   H11033736   0.120   2.345   2.533  1.2515  1.9248 -0.1525
   44MOL   H11133737   0.152   2.180   2.485 -1.1852 -0.0699 -1.1307
   44MOL   H11233738   0.088   2.425   2.315 -1.0530  0.3393  0.9938
   44MOL   H11333739   7.917   2.327   2.406 -1.8611 -1.0904 -1.0292
   44MOL   H11433740   7.913   2.279   2.239 -2.1316 -1.3937  0.8513
   44MOL   H11533741   0.086   1.967   2.414 -0.5704  1.6706  3.0539
   44MOL   H11633742   0.158   1.766   2.528 -0.0784  1.1688  0.7186
   44MOL   H11733743   7.780   1.649   2.575  0.5080 -0.0107 -0.8543
   44MOL   H11833744   7.707   1.862   2.505 -0.3976  0.7499  1.8034
   44MOL   C11933745   0.136   1.020   2.968 -0.2819 -0.4188  0.7272
   44MOL   C12033746   0.033   1.134   2.927  0.5064  0.0594 -0.0055
   44MOL   C12133747   0.045   1.177   2.775  0.0437  0.1055  0.4937
   44MOL   C12233748   7.984   1.287   2.748  0.1255 -0.1792 -0.3328
   44MOL   O12333749   7.989   1.318   2.609 -0.0738 -0.3904 -0.3874
   44MOL   C12433750   0.196   1.209   2.748 -0.1670 -0.5254 -0.2075
   44MOL   C12533751   0.298   1.101   2.791 -0.5709 -0.4016 -0.2037
   44MOL   C12633752   0.283   1.052   2.937  0.6536 -0.1651  0.1757
   44MOL   C12733753   0.361   0.918   2.960  0.3772 -0.1954  0.3366
   44MOL   O12833754   0.477   0.914   2.877  0.1447  0.2070  0.1574
   44MOL   C12933755   0.601   0.922   2.925  0.0766  0.1033 -0.2979
   44MOL   O13033756   0.630   0.945   3.040 -0.4331  0.1270 -0.1910
   44MOL   C13133757   0.699   0.926   2.820  0.6824  0.1143 -0.4691
   44MOL   C13233758   0.835   0.943   2.862 -0.0984  0.3938  0.1488
   44MOL   C13333759   0.944   0.953   2.774  0.2553  0.0108 -1.0694
   44MOL   C13433760   0.921   0.948   2.639 -0.5399  0.5053  0.6654
   44MOL   C13533761   1.033   0.967   2.538  0.0633  0.3936  0.2724
   44MOL   O13633762   1.019   0.941   2.421  0.2858  0.0932  0.0220
   44MOL   O13733763   1.145   0.994   2.596 -0.0873 -0.5966  0.1223
   44MOL   C13833764   0.790   0.916   2.590  1.1606  0.1626 -0.2781
   44MOL   C13933765   0.683   0.917   2.682 -0.0871 -1.3840  0.1249
   44MOL   H14033766   0.123   1.003   3.074 -0.1708  2.9944  1.3465
   44MOL   H14133767   0.099   0.929   2.921  0.2319 -0.9101  1.2645
   44MOL   H14233768   7.964   1.113   2.947 -0.1602  1.7539 -1.5642
   44MOL   H14333769   0.048   1.220   2.994 -1.8701  0.8668 -0.4754
   44MOL   H14433770   0.023   1.086   2.720 -2.1253 -0.1516  1.7004
   44MOL   H14533771   7.883   1.261   2.780 -0.0075  0.6373 -0.0767
   44MOL   H14633772   8.008   1.373   2.811  0.0780  0.8602 -1.7100
   44MOL   H14733773   0.210   1.216   2.640  0.3425 -1.4135 -0.2073
   44MOL   H14833774   0.221   1.306   2.792 -0.4001  0.4317 -2.1319
   44MOL   H14933775   0.394   1.149   2.776 -1.2447  0.8056 -0.7281
   44MOL   H15033776   0.285   1.013   2.728  1.1996 -1.3313  0.6850
   44MOL   H15133777   0.321   1.123   3.010 -2.5989  2.0641 -0.1804
   44MOL   H15233778   0.377   0.895   3.065 -0.5605  0.7652  0.6975
   44MOL   H15333779   0.302   0.832   2.929  0.4909  0.3786 -1.5375
   44MOL   H15433780   0.861   0.953   2.966 -1.0607  0.1638  0.4199
   44MOL   H15533781   1.047   0.959   2.803 -0.1807 -1.3612  0.8569
   44MOL   H15633782   0.776   0.900   2.484  0.8804  0.3960 -0.2767
   44MOL   H15733783   0.585   0.900   2.640 -0.5684  2.8486 -0.6982
   44MOL   C15833784   1.251   1.005   2.094 -0.5288  0.3902 -0.4387
   44MOL   C15933785   1.289   0.976   2.238  0.2788  0.1331 -0.0028
   44MOL   C16033786   1.285   1.099   2.330 -0.3033 -0.1785 -0.4916
   44MOL   C16133787   1.339   1.065   2.466  0.2225 -0.6183  0.4210
   44MOL   O16233788   1.268   0.953   2.522  0.1733  0.6192 -0.5336
   44MOL   C16333789   1.368   1.213   2.266  0.4759 -0.2460 -0.0501
   44MOL   C16433790   1.328   1.249   2.125  0.5825 -0.4363 -0.0708
   44MOL   C16533791   1.333   1.124   2.032  0.2118  0.3258 -0.1297
   44MOL   C16633792   1.288   1.150   1.890  0.5623 -0.1747  0.0332
   44MOL   O16733793   1.364   1.243   1.820  0.3755 -0.3005  0.1414
   44MOL   C16833794   1.376   1.238   1.687  1.0216  0.0685  0.6966
   44MOL   O16933795   1.321   1.153   1.613 -0.2567  0.0342  0.6082
   44MOL   C17033796   1.461   1.347   1.637 -0.2032 -0.4878  0.5672
   44MOL   C17133797   1.525   1.317   1.511  0.2794 -0.3694 -0.5441
   44MOL   C17233798   1.602   1.412   1.448  0.1085 -0.2100  0.1975
   44MOL   C17333799   1.629   1.533   1.515  0.3362 -0.7112 -0.1067
   44MOL   C17433800   1.720   1.633   1.444  1.2698  0.4609  0.5213
   44MOL   O17533801   1.794   1.608   1.350  0.1810 -0.0414  0.5353
   44MOL   O17633802   1.691   1.761   1.482 -0.4041  0.0555  0.2203
   44MOL   C17733803   1.575   1.559   1.645  0.8403 -0.2542 -0.3811
   44MOL   C17833804   1.494   1.460   1.709  0.5026 -0.1144  0.7232
   44MOL   H17933805   1.250   0.923   2.021 -0.3622  0.4441 -0.5014
   44MOL   H18033806   1.146   1.035   2.097 -0.3522  0.8873  1.3288
   44MOL   H18133807   1.222   0.895   2.268 -1.9167  1.1613 -1.9350
   44MOL   H18233808   1.387   0.929   2.241 -0.2458 -0.8978  1.5786
   44MOL   H18333809   1.180   1.126   2.324  0.3308  1.7593 -6.1284
   44MOL   H18433810   1.446   1.045   2.468  0.2892 -0.3375 -0.2670
   44MOL   H18533811   1.317   1.141   2.542 -0.6831 -0.9292  0.4733
   44MOL   H18633812   1.347   1.300   2.327 -1.0617 -1.6219  1.4536
   44MOL   H18733813   1.473   1.189   2.286  0.8369  0.3762 -1.1957
   44MOL   H18833814   1.400   1.321   2.088 -0.3761 -0.4386 -2.0468
   44MOL   H18933815   1.230   1.296   2.139  0.0247 -1.4595 -0.4391
   44MOL   H19033816   1.437   1.095   2.019  0.7560  1.1232  2.2059
   44MOL   H19133817   1.297   1.054   1.840  1.6533 -0.4695  0.7768
   44MOL   H19233818   1.185   1.183   1.876  0.4753 -0.7566 -0.6810
   44MOL   H19333819   1.509   1.223   1.461  0.6168 -1.0929  0.6713
   44MOL   H19433820   1.642   1.401   1.348  0.4695  2.3594  0.0165
   44MOL   H19533821   1.587   1.647   1.706  1.6246  0.0520 -0.9722
   44MOL   H19633822   1.451   1.483   1.805 -0.6894 -1.6524  0.5799
   44MOL   C19733823   2.044   2.243   1.273 -0.4464 -0.2685 -0.2448
   44MOL   C19833824   2.015   2.128   1.373 -0.3236 -0.2277 -0.7514
   44MOL   C19933825   1.894   2.040   1.334  0.0387 -0.2817 -0.0752
   44MOL   C20033826   1.855   1.927   1.426 -0.4138  0.1077 -0.2566
   44MOL   O20133827   1.740   1.864   1.381 -0.0059  0.3327 -0.0396
   44MOL   C20233828   1.778   2.131   1.293 -0.0292 -0.6747  0.6479
   44MOL   C20333829   1.803   2.247   1.191  0.0799  0.0675 -0.3797
   44MOL   C20433830   1.918   2.328   1.256 -0.8431 -0.6214  0.2545
   44MOL   C20533831   1.947   2.453   1.171  0.5062 -0.1595 -0.2998
   44MOL   O20633832   1.843   2.543   1.192 -0.5836  0.5380  0.1518
   44MOL   C20733833   1.856   2.667   1.143  0.5703  0.3924 -0.0460
   44MOL   O20833834   1.951   2.715   1.080  0.2569  0.2117 -0.4808
   44MOL   C20933835   1.723   2.742   1.158  0.0691 -0.2969  0.1247
   44MOL   C21033836   1.597   2.679   1.180  0.2813 -0.2047  0.8185
   44MOL   C21133837   1.479   2.756   1.182  0.2154  0.2911  0.6531
   44MOL   C21233838   1.479   2.896   1.157  0.3638 -0.1641  0.5856
   44MOL   C21333839   1.354   2.973   1.148  0.0142 -0.0306  0.2611
   44MOL   O21433840   1.329   3.074   1.081 -0.3832  0.0952  0.2837
   44MOL   O21533841   1.260   2.916   1.227 -0.3272  0.5262  0.5257
   44MOL   C21633842   1.604   2.956   1.131  0.4462  0.8261 -0.2627
   44MOL   C21733843   1.721   2.879   1.135 -0.2819  1.0051  0.5583
   44MOL   H21833844   2.136   2.296   1.300 -1.1951  0.7214  0.4362
   44MOL   H21933845   2.064   2.202   1.175  2.7935 -0.4924  0.4320
   44MOL   H22033846   2.099   2.061   1.386 -2.5460 -3.1408 -0.8298
   44MOL   H22133847   2.001   2.172   1.471  0.9425 -0.6403 -0.3821
   44MOL   H22233848   1.930   1.991   1.243  0.9379  2.7870 -1.4520
   44MOL   H22333849   1.939   1.858   1.424  0.6728  1.4240 -1.6568
   44MOL   H22433850   1.853   1.958   1.530  0.0616 -1.5592  0.2660
   44MOL   H22533851   1.700   2.065   1.257 -1.2957 -0.4161  2.8428
   44MOL   H22633852   1.738   2.171   1.386 -1.2655  2.4773 -1.1616
   44MOL   H22733853   1.716   2.314   1.184 -1.4467 -1.8642 -0.3902
   44MOL   H22833854   1.837   2.209   1.095 -0.3614 -2.7967  0.5418
   44MOL   H22933855   1.893   2.372   1.352  0.0469  1.4255 -0.4233
   44MOL   H23033856   2.041   2.501   1.199  0.6135  0.1489 -1.1625
   44MOL   H23133857   1.961   2.426   1.066  0.7876 -0.1840 -0.2551
   44MOL   H23233858   1.593   2.573   1.199 -0.7558 -0.5274 -1.0669
   44MOL   H23333859   1.386   2.706   1.208  0.5455  0.2530  1.7833
   44MOL   H23433860   1.596   3.058   1.095 -1.1361  0.8029 -0.0080
   44MOL   H23533861   1.812   2.927   1.100 -0.4693 -1.0716 -3.0630
   44MOL   C23633862   0.923   3.255   1.600  0.1078 -0.5368  0.8602
   44MOL   C23733863   1.057   3.222   1.544 -0.3258  0.3415 -0.1833
   44MOL   C23833864   1.043   3.118   1.436 -0.7689 -0.4245 -0.1094
   44MOL   C23933865   1.170   3.105   1.345 -0.1160 -0.3060  0.6124
   44MOL   O24033866   1.144   3.012   1.245 -0.3966 -0.1704  0.0755
   44MOL   C24133867   0.989   2.996   1.508 -0.6370  0.1947 -0.1080
   44MOL   C24233868   0.860   3.023   1.577 -0.0275  0.0510 -0.1435
   44MOL   C24333869   0.864   3.139   1.677 -0.4996  0.5995  0.3689
   44MOL   C24433870   0.731   3.179   1.744 -0.3958 -0.3376  0.3928
   44MOL   O24533871   0.638   3.215   1.639  0.2280  0.0150 -0.3362
   44MOL   C24633872   0.505   3.184   1.665  0.0624 -0.0916  0.1796
   44MOL   O24733873   0.467   3.130   1.767  0.3362  0.8332  0.2399
   44MOL   C24833874   0.416   3.208   1.554  0.2137 -0.2568  0.7377
   44MOL   C24933875   0.287   3.151   1.553  0.0630  0.1583  0.2453
   44MOL   C25033876   0.200   3.183   1.445 -0.3826 -0.0045  0.1998
   44MOL   C25133877   0.242   3.256   1.332  0.1726  0.1152 -0.4255
   44MOL   C25233878   0.151   3.291   1.222  0.2833 -0.8345  0.6506
   44MOL   O25333879   0.153   3.402   1.171  0.3195  0.7754 -0.7971
   44MOL   O25433880   0.048   3.207   1.188 -1.1483 -0.8759  0.5400
   44MOL   C25533881   0.370   3.314   1.335  0.0910  0.9444 -0.4210
   44MOL   C25633882   0.459   3.289   1.445  0.2566 -0.3319  0.2306
   44MOL   H25733883   0.932   3.338   1.670  2.3192 -0.6204  0.7023
   44MOL   H25833884   0.852   3.294   1.526 -0.4594  2.4294  2.8675
   44MOL   H25933885   1.108   3.311   1.508 -1.0602  1.3495  1.2220
   44MOL   H26033886   1.120   3.197   1.630  1.0840  0.9607 -1.0028
   44MOL   H26133887   0.966   3.142   1.362  0.7027  0.3526 -1.4085
   44MOL   H26233888   1.187   3.202   1.299 -3.0190  0.6047  1.3585
   44MOL   H26333889   1.253   3.073   1.409 -0.1903 -1.3847  0.1770
   44MOL   H26433890   0.971   2.916   1.436  0.7910 -0.1106 -0.1454
   44MOL   H26533891   1.064   2.966   1.582 -1.1927  0.2237  0.4753
   44MOL   H26633892   0.816   2.932   1.618  0.7933 -1.1656 -1.9072
   44MOL   H26733893   0.798   3.059   1.495  0.9231  1.1312 -0.4054
   44MOL   H26833894   0.935   3.121   1.757  1.0346 -1.5935 -1.3966
   44MOL   H26933895   0.715   3.092   1.807  1.8088 -1.5633 -0.6713
   44MOL   H27033896   0.736   3.264   1.812  0.0274 -1.0598  1.2718
   44MOL   H27133897   0.255   3.103   1.644  4.1866  2.2641  2.9597
   44MOL   H27233898   0.094   3.162   1.448 -0.0707 -1.4777  1.2371
   44MOL   H27333899   0.388   3.391   1.261  0.1350  1.1494 -0.1991
   44MOL   H27433900   0.554   3.340   1.444 -0.4308  1.0205  2.2215
   44MOL   C27533901   0.161   2.647   1.334  0.4474  0.5656 -0.4027
   44MOL   C27633902   0.179   2.797   1.316  0.3347  0.1402  0.3379
   44MOL   C27733903   0.147   2.841   1.168 -0.1056  0.0596 -0.5393
   44MOL   C27833904   0.151   2.995   1.143  0.0278 -0.1013  0.3861
   44MOL   O27933905   0.053   3.060   1.231 -0.2895  0.4751  0.4727
   44MOL   C28033906   0.254   2.772   1.082 -0.8040  0.8357 -0.6229
   44MOL   C28133907   0.246   2.617   1.096 -0.1743  0.5338  0.3483
   44MOL   C28233908   0.266   2.576   1.241 -0.3441  0.0226  0.2840
   44MOL   C28333909   0.249   2.423   1.245 -0.0802  0.3402  0.1158
   44MOL   O28433910   0.321   2.356   1.343  0.3233  0.0092  0.3682
   44MOL   C28533911   0.444   2.321   1.319  0.1801  0.1844 -0.4324
   44MOL   O28633912   0.502   2.351   1.209  0.0107 -0.2523 -0.0809
   44MOL   C28733913   0.507   2.250   1.434  0.6025 -0.9478  0.3227
   44MOL   C28833914   0.645   2.229   1.430 -0.0395 -0.0224  0.0655
   44MOL   C28933915   0.712   2.166   1.544  0.7647  0.0967  0.2655
   44MOL   C29033916   0.635   2.119   1.654  0.3077  0.0148 -0.2198
   44MOL   C29133917   0.717   2.061   1.774  0.2565 -0.2548 -0.3619
   44MOL   O29233918   0.692   2.080   1.894  0.0415  0.2420  0.0034
   44MOL   O29333919   0.811   1.972   1.732 -0.0554  0.4785 -0.2248
   44MOL   C29433920   0.495   2.150   1.656  0.5334  0.5546 -0.6388
   44MOL   C29533921   0.429   2.205   1.539  0.2586  0.5035  0.2100
   44MOL   H29633922   0.182   2.614   1.436 -0.3992 -0.8037 -0.6542
   44MOL   H29733923   0.062   2.603   1.318  0.1214  0.6492  1.3128
   44MOL   H29833924   0.135   2.848   1.401  1.1805 -0.1714  0.9732
   44MOL   H29933925   0.286   2.811   1.328  0.0321  4.0892 -0.8330
   44MOL   H30033926   0.042   2.818   1.154 -0.2891 -0.1318  0.9998
   44MOL   H30133927   0.249   3.033   1.171 -0.0769  0.5036 -0.0686
   44MOL   H30233928   0.144   3.024   1.038  2.4748 -0.4189  0.1066
   44MOL   H30333929   0.241   2.791   0.976 -1.7050 -1.0658 -0.8715
   44MOL   H30433930   0.358   2.798   1.101 -0.8418  0.2791  0.3883
   44MOL   H30533931   0.323   2.569   1.036 -1.1770 -0.3392 -0.2557
   44MOL   H30633932   0.152   2.578   1.058  1.3453 -2.7819 -0.1758
   44MOL   H30733933   0.368   2.606   1.265 -0.7033  0.7130  0.9979
   44MOL   H30833934   0.146   2.389   1.260  0.3911 -1.7807 -1.2586
   44MOL   H30933935   0.280   2.382   1.149  0.5984 -1.9911  1.2866
   44MOL   H31033936   0.703   2.269   1.348 -0.3653 -0.6418 -0.4724
   44MOL   H31133937   0.819   2.166   1.552  0.6576 -2.1341  2.3247
   44MOL   H31233938   0.439   2.135   1.748  1.3710 -1.3612 -0.4155
   44MOL   H31333939   0.326   2.236   1.539  0.9391  2.8879 -1.6940
   44MOL   C31433940   0.478   1.734   2.040  0.2029  0.4366 -0.3466
   44MOL   C31533941   0.633   1.755   2.014 -0.0698  0.3721 -0.5875
   44MOL   C31633942   0.682   1.732   1.867  0.8573  0.7849  0.1417
   44MOL   C31733943   0.830   1.759   1.840  0.6016  1.5158  0.2002
   44MOL   O31833944   0.875   1.889   1.845  0.1344  0.0289  0.3317
   44MOL   C31933945   0.636   1.599   1.816  0.6689 -0.0894  0.2941
   44MOL   C32033946   0.485   1.596   1.821 -0.5285 -0.1760  0.3251
   44MOL   C32133947   0.424   1.610   1.966  0.4327 -0.0510 -0.1258
   44MOL   C32233948   0.268   1.611   1.960  0.7758 -0.2071  0.3488
   44MOL   O32333949   0.224   1.743   1.916 -0.1541 -0.5604  0.2027
   44MOL   C32433950   0.157   1.747   1.793  0.2162 -0.4323  0.1421
   44MOL   O32533951   0.117   1.653   1.727 -0.6607  0.2497  0.1374
   44MOL   C32633952   0.143   1.883   1.749  0.1002 -0.4292 -0.5163
   44MOL   C32733953   0.202   1.993   1.808 -0.4279  0.2399  0.1664
   44MOL   C32833954   0.186   2.123   1.759 -0.3887  0.0903  0.0718
   44MOL   C32933955   0.098   2.151   1.645 -1.0897 -0.2804  0.3672
   44MOL   C33033956   0.067   2.293   1.614  0.1818 -0.6288  1.2233
   44MOL   O33133957   0.102   2.389   1.682  0.4196 -0.1982  0.2183
   44MOL   O33233958   8.027   2.310   1.509  0.1536  0.4099 -0.0375
   44MOL   C33333959   0.033   2.037   1.585  0.2927 -0.0003 -0.6114
   44MOL   C33433960   0.049   1.914   1.647  0.0271  0.6431 -0.2543
   44MOL   H33533961   0.468   1.719   2.148  0.7632 -0.7285 -0.4576
   44MOL   H33633962   0.424   1.826   2.017  3.7189  2.9641  1.0347
   44MOL   H33733963   0.664   1.856   2.039 -2.0038  0.7768  0.2510
   44MOL   H33833964   0.691   1.692   2.082 -0.4958  0.4154 -0.1769
   44MOL   H33933965   0.631   1.807   1.807 -0.4781 -1.7996 -2.0389
   44MOL   H34033966   0.891   1.711   1.916  1.3146  0.6013 -0.9238
   44MOL   H34133967   0.865   1.727   1.742  2.8974 -0.3839  1.5844
   44MOL   H34233968   0.657   1.592   1.709  0.1741  2.2788  0.0056
   44MOL   H34333969   0.684   1.513   1.863 -3.8181 -2.2541  1.1910
   44MOL   H34433970   0.460   1.499   1.779 -0.5842  0.7928 -1.9685
   44MOL   H34533971   0.441   1.675   1.760  2.2536  1.2211  0.0368
   44MOL   H34633972   0.462   1.528   2.027  0.0503 -1.1540 -1.3352
   44MOL   H34733973   0.229   1.519   1.917 -0.2662  0.1854  0.4432
   44MOL   H34833974   0.227   1.605   2.061  0.9830 -0.6698  0.4044
   44MOL   H34933975   0.263   1.985   1.897  0.0204  2.0584  0.0447
   44MOL   H35033976   0.234   2.201   1.817 -0.4623 -1.5762  2.4238
   44MOL   H35133977   7.996   2.043   1.506  0.5869  0.2214 -0.8678
   44MOL   H35233978   8.027   1.829   1.612  0.4369 -0.0137  0.6382
   44MOL   C35333979   7.584   2.704   1.690 -0.1484 -0.0362 -0.2672
   44MOL   C35433980   7.650   2.570   1.684  0.3002  0.7525 -0.2278
   44MOL   C35533981   7.766   2.569   1.575 -0.2553 -0.0765 -0.6717
   44MOL   C35633982   7.834   2.434   1.586  0.1734 -0.6637 -0.5199
   44MOL   O35733983   7.952   2.441   1.504 -0.3073  0.4248  0.7515
   44MOL   C35833984   7.702   2.599   1.443  0.8553 -0.4780 -0.3387
   44MOL   C35933985   7.624   2.727   1.451  0.5081  0.5575 -0.3425
   44MOL   C36033986   7.519   2.737   1.558  0.3196 -0.3614 -0.2233
   44MOL   C36133987   7.444   2.869   1.562  0.4115  0.6534  0.2992
   44MOL   O36233988   7.523   2.978   1.584 -0.7780  0.2401  0.3010
   44MOL   C36333989   7.527   3.078   1.503  0.4528 -0.7066 -0.3114
   44MOL   O36433990   7.431   3.100   1.423  0.6972 -0.0772  0.0370
   44MOL   C36533991   7.645   3.169   1.526  0.0518 -0.1394  0.3546
   44MOL   C36633992   7.661   3.270   1.429  0.1653 -0.8076 -0.3546
   44MOL   C36733993   7.774   3.352   1.431  0.1197  0.2700 -0.1758
   44MOL   C36833994   7.860   3.338   1.540  0.0664  0.0868  0.2245
   44MOL   C36933995   7.969   3.439   1.548 -0.4666  0.4600 -0.6463
   44MOL   O37033996   7.979   3.536   1.471  0.2802 -0.1021 -0.6176
   44MOL   O37133997   0.034   3.413   1.649  0.1396 -0.5608  0.0799
   44MOL   C37233998   7.846   3.237   1.641  0.2056 -0.7071 -0.1325
   44MOL   C37333999   7.734   3.150   1.637 -0.0409 -0.2635  0.8340
   44MOL   H37434000   7.506   2.700   1.767 -0.6723 -2.5763 -0.8751
   44MOL   H37534001   7.658   2.779   1.717  0.7060 -1.7243  2.3797
   44MOL   H37634002   7.680   2.537   1.784  1.6454 -0.7549 -1.1057
   44MOL   H37734003   7.579   2.496   1.647  2.0631 -0.4389 -1.3193
   44MOL   H37834004   7.834   2.646   1.611 -1.7065  0.5666  0.8100
   44MOL   H37934005   7.858   2.416   1.691 -1.6829 -1.4541 -0.2044
   44MOL   H38034006   7.764   2.354   1.566 -0.4526 -0.0791 -0.6898
   44MOL   H38134007   7.767   2.618   1.358  1.0985  0.9159  0.1425
   44MOL   H38234008   7.625   2.525   1.421  0.9800 -0.7097 -0.0128
   44MOL   H38334009   7.587   2.752   1.351  1.0381  1.1559 -0.3941
   44MOL   H38434010   7.695   2.809   1.466  1.3117 -0.1154 -0.4784
   44MOL   H38534011   7.446   2.661   1.530  0.7808 -0.3882 -1.3562
   44MOL   H38634012   7.379   2.874   1.475  0.1534 -2.7969  0.2317
   44MOL   H38734013   7.375   2.858   1.646  0.7632  1.4893  0.7125
   44MOL   H38834014   7.597   3.296   1.346  0.0975 -0.2175 -0.1190
   44MOL   H38934015   7.779   3.425   1.352 -3.4353 -0.4610 -1.1226
   44MOL   H39034016   7.918   3.227   1.721 -0.1190  1.6061  0.4861
   44MOL   H39134017   7.718   3.069   1.707 -2.0191  0.1784  0.9050
   44MOL   C39234018   0.492   3.575   1.925 -0.4381  0.5408  0.0975
   44MOL   C39334019   0.372   3.518   1.853 -0.8819  0.3037 -0.6275
   44MOL   C39434020   0.363   3.565   1.705  0.3095  0.3543  0.3552
   44MOL   C39534021   0.251   3.508   1.611  0.6667 -0.4654 -0.0591
   44MOL   O39634022   0.127   3.525   1.678  0.0433  0.2914  0.3705
   44MOL   C39734023   0.355   3.715   1.691 -0.0952 -0.0543  0.3694
   44MOL   C39834024   0.464   3.787   1.777 -0.5353  0.7178 -0.6597
   44MOL   C39934025   0.481   3.727   1.921 -0.1387  0.2142 -0.6535
   44MOL   C40034026   0.595   3.797   1.992  0.0332  0.0468 -0.8321
   44MOL   O40134027   0.705   3.837   1.909 -0.3647 -0.8463 -0.3684
   44MOL   C40234028   0.817   3.762   1.907 -0.0822 -0.1727 -0.0562
   44MOL   O40334029   0.829   3.651   1.959 -0.0313  0.0383 -0.3860
   44MOL   C40434030   0.921   3.821   1.825  0.3811  0.9432  0.3374
   44MOL   C40534031   1.037   3.743   1.785  0.1682 -0.4287  0.1941
   44MOL   C40634032   1.133   3.793   1.702 -0.3212  0.0034  0.6389
   44MOL   C40734033   1.127   3.928   1.658  0.0250 -0.3294  0.1157
   44MOL   C40834034   1.235   3.988   1.583 -0.1147 -0.0039 -0.3927
   44MOL   O40934035   1.231   4.103   1.535  1.1213  0.4801 -0.0627
   44MOL   O41034036   1.344   3.899   1.564  0.1877  0.6099  0.1986
   44MOL   C41134037   1.004   3.999   1.672 -1.4813  0.1321 -0.6624
   44MOL   C41234038   0.903   3.940   1.751  0.1842 -0.1981 -0.7661
   44MOL   H41334039   0.492   3.540   2.028 -1.4019 -1.9576 -0.7317
   44MOL   H41434040   0.589   3.541   1.888 -0.3232  1.3813 -0.3929
   44MOL   H41534041   0.382   3.409   1.847  1.2752  0.4247  0.3414
   44MOL   H41634042   0.275   3.530   1.902  1.0426  0.8438  3.2251
   44MOL   H41734043   0.451   3.525   1.655  0.0098  0.1345 -0.0049
   44MOL   H41834044   0.247   3.545   1.509  0.4795  1.6937  0.7163
   44MOL   H41934045   0.264   3.402   1.586 -0.7585 -0.7100  0.2188
   44MOL   H42034046   0.351   3.745   1.586 -1.6227 -2.6425 -0.3606
   44MOL   H42134047   0.257   3.748   1.727 -0.4946 -0.5241 -0.2725
   44MOL   H42234048   0.449   3.895   1.773 -0.7245  0.7432  0.4704
   44MOL   H42334049   0.558   3.771   1.724 -0.9018 -0.9733 -0.8314
   44MOL   H42434050   0.392   3.751   1.980  0.4278  1.3235 -0.2386
   44MOL   H42534051   0.554   3.895   2.015  0.1121  0.1852 -1.2888
   44MOL   H42634052   0.629   3.740   2.079 -1.2013  0.1376 -0.2830
   44MOL   H42734053   1.044   3.644   1.829 -0.5618  0.1593  1.6963
   44MOL   H42834054   1.208   3.722   1.671  0.5190  1.4545 -0.7388
   44MOL   H42934055   0.990   4.100   1.636  2.1327  0.7301 -0.5463
   44MOL   H43034056   0.811   3.995   1.766  0.6970  0.6840 -0.8027
   44MOL   C43134057   1.633   4.082   1.088 -0.4812 -0.3762  0.0314
   44MOL   C43234058   1.525   4.066   1.192 -0.3828  0.0439  0.0406
   44MOL   C43334059   1.517   3.917   1.236 -0.1719  0.3988  0.4048
   44MOL   C43434060   1.405   3.903   1.336  0.5741  0.3902 -0.3814
   44MOL   O43534061   1.441   3.951   1.452  0.3868 -0.1941 -0.7030
   44MOL   C43634062   1.494   3.827   1.112  0.1083  0.3692  0.1267
   44MOL   C43734063   1.599   3.844   1.008 -0.8472 -0.9862  0.3152
   44MOL   C43834064   1.617   3.986   0.967 -0.2213 -0.0251 -0.4311
   44MOL   C43934065   1.748   3.994   0.880 -0.2655  0.1563 -0.1445
   44MOL   O44034066   1.784   4.123   0.850 -0.2520 -0.6106  0.3100
   44MOL   C44134067   1.899   4.172   0.897 -0.7286 -0.4436 -0.1861
   44MOL   O44234068   1.979   4.102   0.960  0.2640  0.0540 -0.1381
   44MOL   C44334069   1.919   4.314   0.854 -0.0619  0.0715  0.0540
   44MOL   C44434070   1.817   4.388   0.791  0.1622 -0.1101  1.0657
   44MOL   C44534071   1.850   4.520   0.754 -0.6638  0.4540 -0.3753
   44MOL   C44634072   1.971   4.580   0.784 -0.2512 -0.1952 -0.4474
   44MOL   C44734073   1.986   4.724   0.750 -0.6232 -0.0299 -0.2474
   44MOL   O44834074   2.088   4.786   0.782 -1.1783  0.6073  0.0093
   44MOL   O44934075   1.891   4.771   0.669 -0.0421 -0.4986 -0.1120
   44MOL   C45034076   2.071   4.513   0.854  0.2932 -0.7937  0.5427
   44MOL   C45134077   2.047   4.374   0.882 -1.0317 -0.8317  0.3797
   44MOL   H45234078   1.636   4.187   1.057  0.2670 -0.0832  1.0639
   44MOL   H45334079   1.726   4.065   1.142  0.3349 -0.6321 -1.4321
   44MOL   H45434080   1.544   4.128   1.279 -1.8578 -1.3346  1.3631
   44MOL   H45534081   1.428   4.082   1.146  0.0177  1.7606 -0.2363
   44MOL   H45634082   1.607   3.885   1.289  1.3076  1.2110 -1.5471
   44MOL   H45734083   1.309   3.937   1.297  0.4140 -3.5695 -3.8572
   44MOL   H45834084   1.391   3.796   1.353  0.3153  0.6749  1.2881
   44MOL   H45934085   1.489   3.723   1.144 -1.9585  0.9896  1.9024
   44MOL   H46034086   1.397   3.836   1.062 -0.2060 -1.1065  0.4502
   44MOL   H46134087   1.571   3.780   0.924  1.3699 -0.1283 -1.1187
   44MOL   H46234088   1.696   3.810   1.045 -0.3316 -1.0932 -1.0800
   44MOL   H46334089   1.531   4.021   0.911 -0.9155  0.8854  1.1788
   44MOL   H46434090   1.829   3.945   0.935 -1.4394 -0.2825  1.2434
   44MOL   H46534091   1.732   3.926   0.796 -1.4748 -0.0560  0.2368
   44MOL   H46634092   1.720   4.352   0.761  0.2319  1.7537 -1.6387
   44MOL   H46734093   1.774   4.568   0.694  1.3676  1.6214 -2.0391
   44MOL   H46834094   2.163   4.564   0.877  1.0679 -2.3097  0.8832
   44MOL   H46934095   2.125   4.319   0.932  0.3822  1.6616  0.9994
   44MOL   C47034096   1.561   5.149   0.455  0.2175  0.0131 -0.1676
   44MOL   C47134097   1.632   5.036   0.519  0.8244 -0.2825 -0.4283
   44MOL   C47234098   1.735   5.092   0.616  0.6420 -0.2224  0.3658
   44MOL   C47334099   1.805   4.991   0.703 -0.6423 -0.3818  0.3218
   44MOL   O47434100   1.896   4.919   0.623  0.0849 -0.0177 -0.6874
   44MOL   C47534101   1.836   5.176   0.528  0.3355  1.0647  0.5130
   44MOL   C47634102   1.761   5.296   0.461 -0.4831  0.2398  0.6862
   44MOL   C47734103   1.645   5.247   0.371 -0.0449  0.4104 -0.4203
   44MOL   C47834104   1.563   5.364   0.311 -0.0246 -0.0432  0.0794
   44MOL   O47934105   1.501   5.450   0.401 -0.3640 -0.6031 -0.2600
   44MOL   C48034106   1.364   5.455   0.408 -0.2679 -0.6656  1.1048
   44MOL   O48134107   1.288   5.379   0.346  0.2518  0.0307 -0.4511
   44MOL   C48234108   1.300   5.561   0.500  0.2512  0.6765  0.3901
   44MOL   C48334109   1.160   5.579   0.509  0.0178  0.1980  0.2106
   44MOL   C48434110   1.098   5.687   0.577 -0.7695  0.0260  0.1777
   44MOL   C48534111   1.188   5.773   0.648  0.6613 -0.0508 -0.2511
   44MOL   C48634112   1.130   5.890   0.725 -0.2635  0.8200 -0.8705
   44MOL   O48734113   1.191   5.946   0.815 -0.1125 -0.0510 -0.1583
   44MOL   O48834114   1.008   5.931   0.667 -0.1876  0.3743  0.3043
   44MOL   C48934115   1.325   5.766   0.632  0.6940 -0.2568  0.3197
   44MOL   C49034116   1.385   5.654   0.559  1.1741 -1.5277  1.2963
   44MOL   H49134117   1.497   5.103   0.380 -0.8426  1.3529 -0.0947
   44MOL   H49234118   1.486   5.197   0.518 -1.3699  0.8532 -2.6064
   44MOL   H49334119   1.570   4.969   0.579  0.0544  0.1073 -0.7965
   44MOL   H49434120   1.669   4.968   0.442 -2.7795 -1.3164 -1.3367
   44MOL   H49534121   1.682   5.152   0.691 -0.8531  1.1245 -1.6984
   44MOL   H49634122   1.847   5.041   0.790 -2.3080 -0.0354  0.9349
   44MOL   H49734123   1.737   4.920   0.748 -2.4082  0.2300 -1.2750
   44MOL   H49834124   1.923   5.220   0.578  1.3024 -1.9755  1.5906
   44MOL   H49934125   1.881   5.123   0.444  1.3813 -2.0712  2.9333
   44MOL   H50034126   1.839   5.346   0.404 -0.1425 -1.5867 -0.4898
   44MOL   H50134127   1.727   5.368   0.536  3.1730  3.7297 -0.7852
   44MOL   H50234128   1.693   5.201   0.285 -0.6941 -2.0677  0.5064
   44MOL   H50334129   1.635   5.438   0.275 -1.9465  1.8500  0.0611
   44MOL   H50434130   1.510   5.333   0.222  1.3177 -2.4712  0.0879
   44MOL   H50534131   1.088   5.518   0.456  1.0831 -1.7388  0.9523
   44MOL   H50634132   0.991   5.700   0.577 -0.8781 -0.8651  0.1081
   44MOL   H50734133   1.389   5.838   0.681 -1.3719  0.7039  1.7246
   44MOL   H50834134   1.491   5.645   0.540  0.9849 -1.1721 -0.0054
   44MOL   C50934135   0.938   6.331   1.076 -0.2920 -0.2546  0.1434
   44MOL   C51034136   0.972   6.196   0.999 -0.6369 -0.5236  0.3556
   44MOL   C51134137   0.848   6.142   0.937 -0.6556 -0.1936 -0.1110
   44MOL   C51234138   0.872   6.010   0.851  0.3618  0.5590 -0.6811
   44MOL   O51334139   0.947   6.048   0.733 -0.4711 -0.5910 -0.3409
   44MOL   C51434140   0.736   6.125   1.048 -0.4910 -0.2904 -0.0411
   44MOL   C51534141   0.707   6.256   1.116 -0.5048  0.0519 -0.2499
   44MOL   C51634142   0.837   6.303   1.190 -0.4311  0.7532  0.8058
   44MOL   C51734143   0.811   6.416   1.295  0.1141  0.4665  0.1401
   44MOL   O51834144   0.776   6.548   1.239 -0.4887 -0.1402 -0.1365
   44MOL   C51934145   0.648   6.579   1.215  0.0788 -1.1433  0.4322
   44MOL   O52034146   0.560   6.496   1.225  0.3150 -0.4049 -0.3558
   44MOL   C52134147   0.623   6.726   1.197  0.3651 -0.4854 -0.6720
   44MOL   C52234148   0.723   6.814   1.149  0.7125 -0.1310  0.5703
   44MOL   C52334149   0.690   6.945   1.114  0.0690 -0.2909 -0.3897
   44MOL   C52434150   0.559   6.993   1.129 -0.2529  0.7106  0.1936
   44MOL   C52534151   0.521   7.134   1.080 -0.6045 -0.3583 -0.6144
   44MOL   O52634152   0.406   7.178   1.064  0.0078 -0.0063 -0.6947
   44MOL   O52734153   0.640   7.209   1.065  0.1464 -0.2294  0.6226
   44MOL   C52834154   0.464   6.902   1.173 -0.2124 -0.0745  0.2264
   44MOL   C52934155   0.486   6.768   1.206 -0.2454 -0.2363 -0.0761
   44MOL   H53034156   1.033   6.362   1.121 -0.7793  0.7601  0.4671
   44MOL   H53134157   0.907   6.412   1.012 -1.5525 -1.1375 -0.3820
   44MOL   H53234158   1.049   6.219   0.924 -1.2260 -1.9071 -0.7023
   44MOL   H53334159   1.008   6.123   1.071  0.0020 -0.6318 -0.0661
   44MOL   H53434160   0.816   6.218   0.865  0.9390  0.3150 -0.3003
   44MOL   H53534161   0.930   5.939   0.911 -0.3835 -0.0166 -0.6255
   44MOL   H53634162   0.776   5.962   0.834  0.6575 -0.2530 -0.0981
   44MOL   H53734163   0.650   6.098   0.988  1.0671 -3.1893 -1.0364
   44MOL   H53834164   0.754   6.043   1.117 -2.0264 -0.5452  0.0767
   44MOL   H53934165   0.631   6.256   1.193 -0.5280 -1.6713 -0.2589
   44MOL   H54034166   0.663   6.327   1.046 -0.4233 -1.3960 -1.8105
   44MOL   H54134167   0.875   6.217   1.244  1.2395  0.9521 -0.0325
   44MOL   H54234168   0.740   6.400   1.376  0.6239  1.3170  0.7642
   44MOL   H54334169   0.909   6.420   1.342  0.7445  2.1263 -1.2638
   44MOL   H54434170   0.823   6.773   1.160 -0.7672 -4.2621 -0.4229
   44MOL   H54534171   0.768   6.998   1.061 -0.9851  1.9663  0.2570
   44MOL   H54634172   0.363   6.939   1.185  0.7077  1.9193  2.1497
   44MOL   H54734173   0.409   6.694   1.222 -3.7560  3.3570  0.5868
   44MOL   C54834174   0.916   7.477   0.676  0.2619 -0.3232  0.0729
   44MOL   C54934175   0.786   7.467   0.758 -0.1920 -0.1564  0.3071
   44MOL   C55034176   0.743   7.326   0.783  0.3361 -0.2979 -0.2399
   44MOL   C55134177   0.613   7.328   0.863 -0.0925 -0.9386  0.1101
   44MOL   O55234178   0.624   7.345   1.003 -0.0223  0.2235 -0.1993
   44MOL   C55334179   0.722   7.256   0.637  0.0065 -0.0902 -0.1155
   44MOL   C55434180   0.845   7.281   0.542 -0.3841 -0.1218 -0.1264
   44MOL   C55534181   0.890   7.425   0.531 -0.3683  0.1618  0.0603
   44MOL   C55634182   1.013   7.451   0.440  0.1674  0.9246  0.1726
   44MOL   O55734183   1.130   7.408   0.503 -0.4430 -0.0517  0.2810
   44MOL   C55834184   1.241   7.497   0.514  0.5824  0.4096 -0.0773
   44MOL   O55934185   1.243   7.599   0.447  0.1006  0.6173 -0.0413
   44MOL   C56034186   1.356   7.441   0.591  0.0446 -0.2986  1.1105
   44MOL   C56134187   1.347   7.329   0.674 -0.2113 -0.7251 -0.0578
   44MOL   C56234188   1.447   7.286   0.761  0.2125 -0.0110 -0.1383
   44MOL   C56334189   1.566   7.356   0.766  0.6952 -0.0472  0.4877
   44MOL   C56434190   1.668   7.311   0.861  0.3706 -0.5563  0.0666
   44MOL   O56534191   1.649   7.215   0.936 -0.4287 -0.5481  0.0096
   44MOL   O56634192   1.779   7.384   0.865  0.1890 -0.7280 -0.5709
   44MOL   C56734193   1.584   7.470   0.682  0.4399 -0.1149 -0.1557
   44MOL   C56834194   1.477   7.515   0.601  0.6826 -0.1276 -0.0387
   44MOL   H56934195   0.930   7.585   0.679 -2.1318  0.0090  0.5813
   44MOL   H57034196   1.004   7.428   0.718  0.6586  0.9314  0.7133
   44MOL   H57134197   0.804   7.511   0.857  1.4211 -2.5139  1.1142
   44MOL   H57234198   0.704   7.529   0.722  0.0811  0.8724  1.4156
   44MOL   H57334199   0.819   7.271   0.838  3.1518  2.5658 -1.0949
   44MOL   H57434200   0.557   7.416   0.831  1.1347  0.0478  0.6531
   44MOL   H57534201   0.536   7.253   0.842 -2.6047  1.4032  0.6089
   44MOL   H57634202   0.694   7.151   0.648 -0.4398  0.2763  2.5805
   44MOL   H57734203   0.630   7.298   0.598  0.3200  2.3485  1.6597
   44MOL   H57834204   0.822   7.233   0.447  1.0763 -0.2102 -0.4537
   44MOL   H57934205   0.927   7.228   0.592  0.6567  0.7755 -0.8565
   44MOL   H58034206   0.804   7.474   0.484 -0.1974 -2.0079 -2.6089
   44MOL   H58134207   1.005   7.405   0.341 -1.3607  0.0048  0.7106
   44MOL   H58234208   1.012   7.559   0.422  1.9827  0.8204 -0.7408
   44MOL   H58334209   1.258   7.269   0.689 -0.9377  0.1719 -0.6642
   44MOL   H58434210   1.436   7.204   0.831 -0.7279  0.2344  0.0057
   44MOL   H58534211   1.682   7.514   0.687  0.3092 -0.1068  4.0349
   44MOL   H58634212   1.486   7.599   0.533 -0.1492 -1.0969 -1.3747
   44MOL   C58734213   1.939   7.361   1.465  0.5293  0.5369  0.4206
   44MOL   C58834214   1.850   7.405   1.345  0.0198  0.7021 -0.4663
   44MOL   C58934215   1.913   7.397   1.202 -0.5249 -0.4903 -0.1572
   44MOL   C59034216   1.824   7.434   1.086  0.3031 -0.1645  0.5487
   44MOL   O59134217   1.873   7.360   0.977  1.0078  0.5922 -0.0219
   44MOL   C59234218   2.057   7.465   1.206 -0.4809  0.4314  0.5815
   44MOL   C59334219   2.137   7.423   1.332 -0.3498 -0.1934  0.5343
   44MOL   C59434220   2.067   7.441   1.470  0.2223 -0.3460 -0.3714
   44MOL   C59534221   2.157   7.402   1.588  0.6706 -0.2914  0.6667
   44MOL   O59634222   2.280   7.455   1.579  0.0049 -0.0585  0.0433
   44MOL   C59734223   2.356   7.487   1.685 -0.0534  0.2531  0.0178
   44MOL   O59834224   2.322   7.463   1.798 -0.1439 -0.0864  0.1063
   44MOL   C59934225   2.490   7.531   1.645 -0.4143  0.3267  0.0478
   44MOL   C60034226   2.518   7.561   1.509 -0.9285 -0.6164  0.5951
   44MOL   C60134227   2.652   7.604   1.475  0.1017 -0.0333 -0.8143
   44MOL   C60234228   2.750   7.613   1.579  0.9610 -0.7009  0.3590
   44MOL   C60334229   2.892   7.645   1.548  0.8774  0.0645 -0.2319
   44MOL   O60434230   2.980   7.646   1.627 -0.5141 -0.1541 -0.3087
   44MOL   O60534231   2.902   7.691   1.424  0.0036 -0.2155  0.3135
   44MOL   C60634232   2.714   7.576   1.714  0.2772 -0.3709  0.0831
   44MOL   C60734233   2.588   7.536   1.744  0.5866  0.4287  0.1795
   44MOL   H60834234   1.875   7.374   1.553  0.1665  2.1286 -0.0562
   44MOL   H60934235   1.967   7.256   1.466 -0.1499  0.3575  0.7337
   44MOL   H61034236   1.760   7.343   1.348 -0.6184  1.5030 -2.4162
   44MOL   H61134237   1.819   7.507   1.367  3.0128  0.9203  3.1359
   44MOL   H61234238   1.941   7.292   1.190  2.0016  0.1036  0.1728
   44MOL   H61334239   1.720   7.421   1.115  0.4800  0.1406  1.3288
   44MOL   H61434240   1.840   7.538   1.057 -0.3531 -0.0456  0.6162
   44MOL   H61534241   2.108   7.442   1.112  0.9635  0.6475  1.3066
   44MOL   H61634242   2.056   7.574   1.212  3.5863  0.7376 -2.6251
   44MOL   H61734243   2.231   7.479   1.331 -1.2599  1.4157 -2.3572
   44MOL   H61834244   2.169   7.320   1.321  0.3673  0.1238 -0.4637
   44MOL   H61934245   2.040   7.546   1.483 -1.6816 -1.1691  2.7757
   44MOL   H62034246   2.100   7.435   1.675 -1.6665  0.7028 -1.1921
   44MOL   H62134247   2.172   7.295   1.604  0.5589 -0.2320  1.1955
   44MOL   H62234248   2.447   7.547   1.429 -0.6141  1.5198 -0.0857
   44MOL   H62334249   2.682   7.632   1.375  0.6511 -0.9446 -0.9055
   44MOL   H62434250   2.785   7.577   1.796  1.7156 -1.5783 -1.1130
   44MOL   H62534251   2.571   7.507   1.847 -2.5193  0.6479 -0.2061
   44MOL   C62634252   2.974   7.920   0.920  0.3546  0.4151  0.0211
   44MOL   C62734253   3.040   7.926   1.056 -0.0917  0.4853 -0.0354
   44MOL   C62834254   2.980   7.822   1.154  0.8099 -0.0699  1.1888
   44MOL   C62934255   3.043   7.844   1.297  0.2972  0.1676  0.5380
   44MOL   O63034256   3.044   7.719   1.372 -0.0776  0.1031 -0.0183
   44MOL   C63134257   2.820   7.836   1.154 -0.6837 -0.5635  0.5304
   44MOL   C63234258   2.760   7.832   1.015  0.4564  0.4956  0.2120
   44MOL   C63334259   2.830   7.939   0.924  0.4585  0.5675  0.0390
   44MOL   C63434260   2.779   7.933   0.775 -0.8683 -0.4546  0.3051
   44MOL   O63534261   2.785   7.803   0.720 -0.7615  0.0085 -0.1453
   44MOL   C63634262   2.760   7.777   0.589 -0.5967 -0.2932  0.6843
   44MOL   O63734263   2.729   7.873   0.515 -0.3855  0.3219 -0.2242
   44MOL   C63834264   2.774   7.642   0.539  0.8530  0.8638 -0.3429
   44MOL   C63934265   2.740   7.616   0.402  0.5743  0.4901 -0.1146
   44MOL   C64034266   2.776   7.492   0.351 -0.7598  0.5994  0.6705
   44MOL   C64134267   2.824   7.382   0.427 -0.3258 -0.5401  0.8529
   44MOL   C64234268   2.855   7.251   0.358  0.5343  0.1258 -0.6042
   44MOL   O64334269   2.804   7.214   0.248  0.0536  0.3698  0.0242
   44MOL   O64434270   2.943   7.168   0.421  0.0225  0.3359  0.6732
   44MOL   C64534271   2.849   7.408   0.566 -1.1534  0.2751  0.0353
   44MOL   C64634272   2.823   7.537   0.626 -0.5063 -0.4918  0.5286
   44MOL   H64734273   3.009   7.994   0.847 -1.9756  1.3793 -0.1515
   44MOL   H64834274   3.004   7.823   0.880  0.8732  0.4604  0.2903
   44MOL   H64934275   3.148   7.922   1.062 -0.1952  1.0301  3.4186
   44MOL   H65034276   3.011   8.019   1.104 -2.7121 -1.3152  2.0527
   44MOL   H65134277   3.016   7.726   1.117 -0.9389 -0.0827 -0.5229
   44MOL   H65234278   3.150   7.863   1.301  0.2726  0.7058 -1.0761
   44MOL   H65334279   2.982   7.921   1.345 -0.5187 -1.1551  1.6929
   44MOL   H65434280   2.782   7.756   1.218 -2.6688 -1.4351 -1.6735
   44MOL   H65534281   2.790   7.935   1.188 -0.1498 -0.8121  1.7537
   44MOL   H65634282   2.654   7.857   1.012  0.3596  0.3748  1.8206
   44MOL   H65734283   2.767   7.729   0.980  1.9238  2.0774 -4.5326
   44MOL   H65834284   2.815   0.005   0.963 -0.1591  0.7742 -0.7202
   44MOL   H65934285   2.681   7.980   0.778 -0.6370  0.1898 -1.5254
   44MOL   H66034286   2.836   7.993   0.704 -0.1491 -0.8349  0.5625
   44MOL   H66134287   2.704   7.689   0.331  0.4873 -1.5786 -2.2144
   44MOL   H66234288   2.747   7.473   0.248 -2.0136  0.4645  1.0356
   44MOL   H66334289   2.891   7.324   0.619  1.7273  2.0182  0.6184
   44MOL   H66434290   2.838   7.556   0.731  0.8548  0.8527  0.1069
   44MOL   C66534291   3.161   6.788   0.663 -0.7688  0.6586 -0.4545
   44MOL   C66634292   3.109   6.840   0.533 -0.6382 -0.3344  0.1281
   44MOL   C66734293   2.955   6.881   0.535  0.1259  0.2046 -0.0972
   44MOL   C66834294   2.896   6.940   0.402 -0.0885  0.5820 -0.2170
   44MOL   O66934295   2.979   7.046   0.345 -0.5026 -0.3994  0.1194
   44MOL   C67034296   2.890   6.747   0.560  0.1097  0.0410 -0.1678
   44MOL   C67134297   2.930   6.678   0.688  0.1226 -0.7503 -0.1428
   44MOL   C67234298   3.081   6.669   0.706  0.3505  0.3740 -0.0534
   44MOL   C67334299   3.126   6.625   0.846  0.0746 -0.4209  0.0177
   44MOL   O67434300   3.103   6.722   0.945 -0.2031  0.5946 -0.2475
   44MOL   C67534301   2.994   6.696   1.028  0.2033  0.2615 -0.2209
   44MOL   O67634302   2.899   6.617   0.994  0.3788  0.7265 -0.2575
   44MOL   C67734303   2.997   6.766   1.158  0.3296 -0.1805 -0.8040
   44MOL   C67834304   2.887   6.761   1.249 -0.2850  0.0799 -0.6291
   44MOL   C67934305   2.909   6.801   1.382 -0.3006  0.1905  0.1567
   44MOL   C68034306   3.030   6.874   1.415  1.0811  0.3199 -0.2959
   44MOL   C68134307   3.048   6.925   1.558 -0.6699  0.0893  0.7165
   44MOL   O68234308   3.156   6.968   1.593  0.3574  0.0085  0.1264
   44MOL   O68334309   2.950   6.910   1.648 -0.3619  0.5227  0.4712
   44MOL   C68434310   3.134   6.900   1.319 -0.7883  0.2991  0.4090
   44MOL   C68534311   3.105   6.850   1.189  0.1922 -0.2069  0.9110
   44MOL   H68634312   3.269   6.776   0.655 -0.7017  0.4618  0.6471
   44MOL   H68734313   3.146   6.868   0.735 -2.0140  1.1255 -1.2097
   44MOL   H68834314   3.171   6.928   0.518 -0.7130  0.2080  2.7794
   44MOL   H68934315   3.121   6.770   0.450  0.6700  1.4660 -1.2555
   44MOL   H69034316   2.937   6.948   0.619 -1.6136 -0.9109  0.4504
   44MOL   H69134317   2.877   6.869   0.322  1.3077 -0.6510  0.4958
   44MOL   H69234318   2.796   6.979   0.419 -0.4480 -0.6685  0.6035
   44MOL   H69334319   2.782   6.748   0.549  0.1863  0.8322 -0.8933
   44MOL   H69434320   2.920   6.682   0.478 -0.1280  0.2593 -0.4294
   44MOL   H69534321   2.887   6.578   0.688  0.0765 -0.7322  0.1382
   44MOL   H69634322   2.880   6.728   0.772 -0.9930 -1.4087 -0.4028
   44MOL   H69734323   3.107   6.581   0.646 -0.7547  0.4228 -0.6220
   44MOL   H69834324   3.068   6.536   0.871  1.4675 -1.5561 -0.6985
   44MOL   H69934325   3.232   6.601   0.856  0.3795  0.7971 -0.1642
   44MOL   H70034326   2.797   6.705   1.227  0.0729 -1.2381  1.1232
   44MOL   H70134327   2.828   6.790   1.453 -0.8238  0.0246 -0.4616
   44MOL   H70234328   3.226   6.956   1.326  0.0846 -1.1023  0.3712
   44MOL   H70334329   3.186   6.858   1.118 -1.2786  0.8636 -0.7215
   44MOL   C70434330   3.105   6.811   2.236 -0.3714  0.1617 -0.1446
   44MOL   C70534331   3.099   6.762   2.092  0.8623 -0.7087 -0.1506
   44MOL   C70634332   3.027   6.867   2.004 -0.0221 -0.0251 -0.2712
   44MOL   C70734333   3.018   6.826   1.862  0.2057 -0.2521  0.8337
   44MOL   O70834334   2.997   6.946   1.788  0.4311 -0.5961  0.4431
   44MOL   C70934335   2.882   6.896   2.060 -0.7757 -0.4678 -0.5566
   44MOL   C71034336   2.884   6.933   2.209 -0.7253 -0.1928 -0.4638
   44MOL   C71134337   2.965   6.833   2.296  0.6561 -0.2131  0.4415
   44MOL   C71234338   2.970   6.878   2.439  0.3316  0.1846 -0.5831
   44MOL   O71334339   2.851   6.850   2.508 -0.2855 -0.3105 -0.1930
   44MOL   C71434340   2.825   6.894   2.626  0.0741 -0.5998  0.5814
   44MOL   O71534341   2.909   6.953   2.695 -0.0375  0.9285 -0.3854
   44MOL   C71634342   2.688   6.856   2.673 -1.0761  0.0286  0.6792
   44MOL   C71734343   2.652   6.864   2.806  0.4858 -0.0567  0.2682
   44MOL   C71834344   2.526   6.810   2.853 -0.1796 -0.4268 -0.0413
   44MOL   C71934345   2.438   6.747   2.765 -0.1868  0.6252  0.3439
   44MOL   C72034346   2.304   6.692   2.803  0.1912 -0.5963 -0.3611
   44MOL   O72134347   2.218   6.657   2.723 -0.0646  0.2326  0.0098
   44MOL   O72234348   2.297   6.689   2.937  0.5502  0.6599  0.2246
   44MOL   C72334349   2.472   6.731   2.631 -0.1309 -0.6775  0.2874
   44MOL   C72434350   2.594   6.786   2.584  0.1972 -0.2143  0.3300
   44MOL   H72534351   3.143   6.739   2.309 -0.9446  0.2931  0.2907
   44MOL   H72634352   3.162   6.904   2.244  0.0659 -0.0599 -0.7079
   44MOL   H72734353   3.205   6.751   2.068  1.2798  2.7934 -0.1470
   44MOL   H72834354   3.055   6.662   2.091 -2.9928  0.8935 -1.1441
   44MOL   H72934355   3.087   6.958   2.007  2.3481 -1.4223 -3.2112
   44MOL   H73034356   3.105   6.777   1.820 -0.4256  2.8209 -4.4868
   44MOL   H73134357   2.934   6.756   1.862  0.3054 -0.4763 -2.5085
   44MOL   H73234358   2.828   6.970   2.002 -0.4545  0.0929 -0.1394
   44MOL   H73334359   2.824   6.806   2.039 -0.7547 -0.4994 -0.4806
   44MOL   H73434360   2.785   6.930   2.254  1.1378 -1.9905  3.9084
   44MOL   H73534361   2.929   7.031   2.226 -1.5179  0.4381 -1.9887
   44MOL   H73634362   2.906   6.741   2.292 -1.1136  0.9361 -0.4955
   44MOL   H73734363   3.053   6.828   2.490 -1.2705 -1.0098  0.8924
   44MOL   H73834364   3.000   6.982   2.451  2.0218 -0.3508 -0.0043
   44MOL   H73934365   2.719   6.907   2.879  0.2909 -0.2355  0.5552
   44MOL   H74034366   2.502   6.811   2.958 -0.9079 -1.2845 -0.1886
   44MOL   H74134367   2.413   6.674   2.560  1.4123  0.2131 -1.7712
   44MOL   H74234368   2.613   6.768   2.479 -1.9415 -2.3150  0.2399
   44MOL   C74334369   2.094   6.116   3.089 -0.5747 -0.3774 -0.4041
   44MOL   C74434370   2.198   6.225   3.102  0.2145  0.3404 -0.0294
   44MOL   C74534371   2.153   6.360   3.040 -0.4151  0.8374 -0.6838
   44MOL   C74634372   2.240   6.491   3.054 -0.0098  0.4394 -0.8094
   44MOL   O74734373   2.185   6.601   2.985 -0.2768  0.1003 -0.3615
   44MOL   C74834374   2.134   6.328   2.889  0.2209  0.1321  0.7211
   44MOL   C74934375   2.027   6.222   2.868  0.4492  0.1128  0.3642
   44MOL   C75034376   2.044   6.093   2.945 -0.5738  0.0705 -0.5579
   44MOL   C75134377   1.910   6.018   2.947  0.0085 -0.1604 -0.1074
   44MOL   O75234378   1.899   5.948   2.827  0.1266 -0.3361 -0.0363
   44MOL   C75334379   1.806   5.853   2.816 -0.6284 -0.4137 -0.2266
   44MOL   O75434380   1.745   5.814   2.919  0.1891 -0.7653  0.1448
   44MOL   C75534381   1.790   5.798   2.678 -0.3496 -0.0896  0.8398
   44MOL   C75634382   1.900   5.800   2.587 -0.5334  0.1748 -0.3906
   44MOL   C75734383   1.890   5.725   2.470  0.0465  0.3345 -0.2578
   44MOL   C75834384   1.767   5.657   2.443 -0.8609 -0.6292 -0.0837
   44MOL   C75934385   1.759   5.572   2.319 -0.0064  0.2958 -0.2340
   44MOL   O76034386   1.674   5.589   2.234 -0.1668  0.0717  0.0720
   44MOL   O76134387   1.860   5.482   2.313  0.4909 -0.3153  0.2972
   44MOL   C76234388   1.663   5.659   2.534  0.6282 -0.2236 -0.3789
   44MOL   C76334389   1.669   5.736   2.646 -0.2371 -0.0266  0.0242
   44MOL   H76434390   2.136   6.027   3.136  0.7055  0.6168  0.3721
   44MOL   H76534391   2.013   6.138   3.157 -1.2460 -0.5286 -1.1498
   44MOL   H76634392   2.229   6.245   3.204 -0.4878  1.1883  0.0204
   44MOL   H76734393   2.289   6.190   3.054  0.0091 -1.0286  0.5493
   44MOL   H76834394   2.058   6.381   3.089 -1.4620 -1.6428 -1.5739
   44MOL   H76934395   2.260   6.511   3.160 -0.3240  1.6605 -0.9805
   44MOL   H77034396   2.342   6.472   3.019  1.3246  1.3362  2.3198
   44MOL   H77134397   2.097   6.414   2.834  1.6921  0.6520  0.5096
   44MOL   H77234398   2.224   6.296   2.835 -0.3843  0.2195 -0.3579
   44MOL   H77334399   2.046   6.204   2.762 -1.8966  1.4953 -0.3409
   44MOL   H77434400   1.927   6.261   2.886  0.1576  0.3355 -1.6616
   44MOL   H77534401   2.129   6.048   2.893 -0.7134 -0.7821 -0.0686
   44MOL   H77634402   1.914   5.947   3.029 -2.0700 -1.9353 -1.4744
   44MOL   H77734403   1.836   6.094   2.974  1.8700  0.7624  2.5670
   44MOL   H77834404   1.994   5.843   2.617 -0.8862 -0.0317  1.0298
   44MOL   H77934405   1.984   5.712   2.418 -0.3655  0.1893 -0.9719
   44MOL   H78034406   1.573   5.603   2.515 -0.6228  1.4157  0.5920
   44MOL   H78134407   1.582   5.756   2.707 -0.1953 -1.6974  0.6306
   44MOL   H78234408   1.858   5.441   2.228 -0.1632 -0.6588  0.4776
   45MOL     C134409   6.420   0.505   4.882 -0.5163  0.2274 -0.1080
   45MOL     C234410   6.298   0.433   4.823 -0.1554 -0.1718  0.2788
   45MOL     C334411   6.196   0.527   4.749  0.2141 -0.8713 -0.3310
   45MOL     C434412   6.061   0.459   4.710 -0.4961  0.6761 -0.3340
   45MOL     O534413   5.990   0.451   4.837  0.2031  0.1922  0.2344
   45MOL     C634414   6.174   0.670   4.816  0.3760  0.6906  0.2488
   45MOL     C734415   6.295   0.737   4.879  0.6971 -0.9496  0.0298
   45MOL     C834416   6.371   0.632   4.959  0.4093  0.9284  0.2813
   45MOL     C934417   6.478   0.689   5.050 -0.8438 -0.0683  0.6951
   45MOL    O1034418   6.487   0.594   5.154 -0.5832  0.4706 -0.0060
   45MOL    C1134419   6.563   0.615   5.258 -0.1930 -1.0240  0.0697
   45MOL    O1234420   6.637   0.714   5.268 -0.2926  0.4051 -0.1389
   45MOL    C1334421   6.535   0.509   5.355 -0.2499 -0.2333 -0.2280
   45MOL    C1434422   6.419   0.432   5.353  0.2419  0.2203  0.6978
   45MOL    C1534423   6.399   0.327   5.436  0.6874 -0.1121 -0.9097
   45MOL    C1634424   6.495   0.300   5.531  0.1119 -0.2608 -0.4052
   45MOL    C1734425   6.483   0.180   5.612  0.3791  0.6817 -0.5602
   45MOL    O1834426   6.390   0.095   5.615 -0.2565  0.3859  0.1915
   45MOL    O1934427   6.589   0.160   5.695  1.0616  0.7726  0.1923
   45MOL    C2034428   6.617   0.372   5.533  0.1689 -0.6665  0.3308
   45MOL    C2134429   6.635   0.478   5.448  0.3814 -0.2748 -0.7501
   45MOL    H2234430   6.468   0.434   4.950  0.5744  0.5913 -0.4927
   45MOL    H2334431   6.486   0.531   4.799 -1.0035  0.6219 -0.3699
   45MOL    H2434432   6.323   0.361   4.745  1.3724  1.2715 -0.5889
   45MOL    H2534433   6.237   0.392   4.904 -0.7247  1.4799  0.7006
   45MOL    H2634434   6.248   0.550   4.656 -0.7595  0.0208 -0.6614
   45MOL    H2734435   6.015   0.502   4.621  0.6366  1.4400 -0.5678
   45MOL    H2834436   6.088   0.356   4.686 -1.4380  0.6586 -1.3279
   45MOL    H2934437   6.130   0.726   4.733 -1.6629 -1.6961 -0.3435
   45MOL    H3034438   6.097   0.670   4.894  1.8059 -1.4211  1.6994
   45MOL    H3134439   6.269   0.825   4.938  1.6110 -0.9367  0.4199
   45MOL    H3234440   6.370   0.775   4.809 -1.2425  0.8426 -1.1568
   45MOL    H3334441   6.296   0.591   5.027  0.8027  1.8457  1.2822
   45MOL    H3434442   6.574   0.709   5.001 -0.7238 -0.4897  0.7615
   45MOL    H3534443   6.441   0.781   5.096 -0.1028  1.5456 -1.7857
   45MOL    H3634444   6.343   0.457   5.280 -0.5953  0.0808  1.5020
   45MOL    H3734445   6.314   0.262   5.423 -0.0274  0.9111 -1.4272
   45MOL    H3834446   6.698   0.345   5.599  0.1372  0.4161  0.8240
   45MOL    H3934447   6.729   0.532   5.449  0.8310 -1.0174 -1.6170
   45MOL    H4034448   5.902   0.427   4.811  0.1960  2.1591 -1.6619
   45MOL    C4134449   6.948   0.056   5.959 -0.0521  0.6349 -0.0508
   45MOL    C4234450   6.801   0.031   5.921  0.0497 -0.1712  0.6863
   45MOL    C4334451   6.787   7.983   5.795 -0.2375  0.2724  0.3717
   45MOL    C4434452   6.641   7.972   5.743  0.7572  0.0869 -0.5828
   45MOL    O4534453   6.558   0.039   5.783  0.0937 -0.7942  0.1003
   45MOL    C4634454   6.883   8.012   5.678  0.1155 -0.0085  0.5594
   45MOL    C4734455   7.027   0.016   5.724  0.7999  0.4590 -0.3135
   45MOL    C4834456   7.031   0.110   5.838 -0.9813 -0.2055 -0.4221
   45MOL    C4934457   7.173   0.130   5.882 -0.6626 -0.0127  0.2064
   45MOL    O5034458   7.177   0.252   5.953 -0.0699  0.2257  0.0497
   45MOL    C5134459   7.262   0.263   6.054  0.7711 -0.8025  0.3111
   45MOL    O5234460   7.317   0.171   6.111 -0.2287  0.2960  0.1611
   45MOL    C5334461   7.271   0.404   6.109 -0.1692  0.6312 -0.5296
   45MOL    C5434462   7.382   0.440   6.189  0.4902 -0.0826 -0.6295
   45MOL    C5534463   7.393   0.567   6.251 -0.0980 -0.2845  0.1639
   45MOL    C5634464   7.283   0.653   6.234 -0.3996  0.1859 -0.3508
   45MOL    C5734465   7.297   0.787   6.293 -0.6468 -0.1645 -0.2301
   45MOL    O5834466   7.388   0.821   6.370  0.0870  0.1535 -0.0644
   45MOL    O5934467   7.188   0.856   6.259 -0.1510 -0.6088 -0.0151
   45MOL    C6034468   7.170   0.617   6.150  0.2020  0.2899 -0.6243
   45MOL    C6134469   7.164   0.488   6.091  0.7223 -0.4560  0.6979
   45MOL    H6234470   6.936   0.131   6.037 -1.5117  0.1488  0.2082
   45MOL    H6334471   7.002   8.011   6.010 -0.8133  0.2322  0.1163
   45MOL    H6434472   6.749   8.020   6.005 -0.4227 -0.6900  0.1178
   45MOL    H6534473   6.763   0.133   5.910  1.2642  0.1210 -0.8764
   45MOL    H6634474   6.816   7.880   5.817  0.4724  0.4561  0.3199
   45MOL    H6734475   6.635   7.953   5.636 -0.1037  2.1912 -0.9429
   45MOL    H6834476   6.605   7.879   5.788  0.1593 -0.1800 -1.6065
   45MOL    H6934477   6.893   7.919   5.621  0.8972 -0.8204  1.9757
   45MOL    H7034478   6.842   0.050   5.610 -1.9759 -1.8163 -0.2272
   45MOL    H7134479   7.089   0.055   5.644 -1.4728  3.3382 -0.7487
   45MOL    H7234480   7.083   7.963   5.756 -0.1704  0.1036  0.4370
   45MOL    H7334481   6.994   0.208   5.811 -0.4866  0.7524  2.2109
   45MOL    H7434482   7.195   0.030   5.920  0.1196 -0.3182 -0.9994
   45MOL    H7534483   7.237   0.143   5.794  1.9578 -2.5060  1.6457
   45MOL    H7634484   7.454   0.365   6.217  0.3757 -0.2237 -0.7113
   45MOL    H7734485   7.479   0.600   6.308 -0.5984  1.3319  0.0007
   45MOL    H7834486   7.080   0.676   6.142 -0.5154 -0.8919 -1.4176
   45MOL    H7934487   7.073   0.459   6.041  0.7777  1.2369 -0.4533
   45MOL    C8034488   7.116   1.385   6.523  0.0830  0.3004 -0.2687
   45MOL    C8134489   7.092   1.258   6.443 -0.9129  0.7834  0.2667
   45MOL    C8234490   7.216   1.219   6.362  0.4572  0.4067 -0.6048
   45MOL    C8334491   7.200   1.094   6.263  0.5480 -0.0567 -0.4426
   45MOL    O8434492   7.169   0.984   6.346  0.4382  0.1444 -0.6190
   45MOL    C8534493   7.251   1.341   6.280 -0.8517 -0.5791  0.0291
   45MOL    C8634494   7.273   1.475   6.359 -0.8650  0.5984 -0.1169
   45MOL    C8734495   7.149   1.509   6.440  0.1689  0.3273  0.4091
   45MOL    C8834496   7.162   1.638   6.527  0.1113 -0.5736  0.7481
   45MOL    O8934497   7.030   1.689   6.547  0.1490 -0.0496 -0.3433
   45MOL    C9034498   7.000   1.763   6.651 -0.2023 -0.3191  0.1400
   45MOL    O9134499   7.081   1.811   6.733  0.0168 -0.5271  0.1977
   45MOL    C9234500   6.853   1.797   6.655 -0.6623 -0.7032 -0.2752
   45MOL    C9334501   6.813   1.918   6.717 -0.8317 -0.0997  0.2942
   45MOL    C9434502   6.679   1.953   6.713 -0.4631 -0.1503 -0.0821
   45MOL    C9534503   6.578   1.881   6.645  0.1869 -0.1500  0.9305
   45MOL    C9634504   6.435   1.921   6.658  0.5457 -0.0200 -0.2183
   45MOL    O9734505   6.402   2.039   6.682 -0.1383  0.3089 -0.3804
   45MOL    O9834506   6.347   1.823   6.635 -0.4682  0.3461  1.0923
   45MOL    C9934507   6.626   1.759   6.578  0.1006 -0.2903 -0.2021
   45MOL   C10034508   6.758   1.720   6.588 -1.1124  0.3918 -0.0575
   45MOL   H10134509   7.024   1.408   6.577  0.4024 -1.2727  0.9644
   45MOL   H10234510   7.196   1.378   6.597  1.3305  2.7182 -1.3132
   45MOL   H10334511   7.057   1.182   6.513  1.7938 -1.8177 -1.0830
   45MOL   H10434512   7.012   1.285   6.375 -0.1447  0.8349 -0.6353
   45MOL   H10534513   7.293   1.199   6.437 -0.2514 -2.6990 -0.6404
   45MOL   H10634514   7.125   1.087   6.185 -1.0464 -1.3287  1.1483
   45MOL   H10734515   7.294   1.066   6.215  0.1536  0.6567 -1.6305
   45MOL   H10834516   7.348   1.321   6.236 -0.8025  2.1816 -1.2462
   45MOL   H10934517   7.164   1.338   6.214 -1.5376  2.3679  0.7268
   45MOL   H11034518   7.302   1.554   6.289  0.5094  0.8147  0.6761
   45MOL   H11134519   7.358   1.461   6.425 -0.9738 -2.3395 -0.5430
   45MOL   H11234520   7.067   1.530   6.371  1.4127 -0.0525 -1.2371
   45MOL   H11334521   7.207   1.618   6.624  0.3772 -0.9527  0.5437
   45MOL   H11434522   7.214   1.724   6.484 -0.3680  0.3965  2.0756
   45MOL   H11534523   6.893   1.984   6.749 -0.5469 -0.0414 -0.5283
   45MOL   H11634524   6.648   2.048   6.754  0.7698  0.3044 -0.1752
   45MOL   H11734525   6.551   1.697   6.529 -0.7352 -0.5182  1.3370
   45MOL   H11834526   6.780   1.628   6.535 -0.1992  0.3777  0.3496
   45MOL   C11934527   5.804   2.007   6.708 -0.6545 -0.4771  0.2521
   45MOL   C12034528   5.960   2.002   6.701  0.4698 -0.9353 -0.1450
   45MOL   C12134529   6.003   1.868   6.770  0.2368 -0.3764 -1.1581
   45MOL   C12234530   6.154   1.856   6.760 -0.7897 -0.0116  0.1432
   45MOL   O12334531   6.201   1.860   6.628  0.4462 -0.4923 -0.0603
   45MOL   C12434532   5.951   1.864   6.911  0.1324  1.0634  0.2779
   45MOL   C12534533   5.800   1.882   6.921  0.4724 -0.2580  0.2943
   45MOL   C12634534   5.760   2.009   6.853  0.2887 -0.1246  0.7134
   45MOL   C12734535   5.613   2.045   6.883  0.0188 -0.3716  0.3265
   45MOL   O12834536   5.523   1.947   6.832 -0.0343 -0.0392  0.3945
   45MOL   C12934537   5.465   1.970   6.717  0.0777 -1.2904 -0.3042
   45MOL   O13034538   5.458   2.088   6.663 -0.7291  0.4130 -0.3212
   45MOL   C13134539   5.376   1.852   6.680  1.8379  0.3995  0.1791
   45MOL   C13234540   5.403   1.725   6.725 -0.4682 -0.7171 -0.1806
   45MOL   C13334541   5.320   1.616   6.691  0.1270  0.7082  0.0736
   45MOL   C13434542   5.202   1.640   6.614  0.0400 -0.5470  0.2080
   45MOL   C13534543   5.102   1.537   6.599  0.1802 -0.2031  0.2678
   45MOL   O13634544   4.985   1.572   6.567 -0.1306 -0.5184 -0.1435
   45MOL   O13734545   5.140   1.412   6.617 -0.8143  0.3432 -0.4416
   45MOL   C13834546   5.168   1.775   6.568  0.1733  0.9481  0.2586
   45MOL   C13934547   5.262   1.878   6.598  0.8378 -0.5567  0.4183
   45MOL   H14034548   5.761   2.098   6.666 -0.7362 -0.6618 -0.0710
   45MOL   H14134549   5.758   1.926   6.652  0.2986 -0.2876 -0.8230
   45MOL   H14234550   5.998   2.012   6.600  0.5084 -0.0750 -0.0485
   45MOL   H14334551   6.004   2.092   6.743 -0.5663 -0.9166  0.9422
   45MOL   H14434552   5.948   1.788   6.720 -2.4847  1.8171 -1.8461
   45MOL   H14534553   6.210   1.934   6.812 -0.3488  1.6290 -2.7079
   45MOL   H14634554   6.176   1.759   6.805 -2.4303  0.3612  1.8126
   45MOL   H14734555   5.983   1.775   6.965  2.8585  1.7283 -0.1810
   45MOL   H14834556   6.001   1.944   6.966  2.0217  0.7745 -0.9711
   45MOL   H14934557   5.777   1.890   7.027 -0.3566  2.6539 -0.0465
   45MOL   H15034558   5.741   1.802   6.877  0.2067 -0.1825  0.5146
   45MOL   H15134559   5.818   2.091   6.895  2.1016 -1.3450  0.6550
   45MOL   H15234560   5.592   2.048   6.990 -0.3953  0.5986  0.2226
   45MOL   H15334561   5.594   2.149   6.855 -1.9510 -0.4608  1.2538
   45MOL   H15434562   5.492   1.700   6.782  0.6091 -0.1624 -1.5684
   45MOL   H15534563   5.346   1.517   6.726 -2.2249  0.3114  0.8224
   45MOL   H15634564   5.078   1.803   6.515  0.9598  2.3571 -0.3722
   45MOL   H15734565   5.257   1.977   6.555  0.0682 -1.1582 -0.9076
   45MOL   C15834566   5.059   0.917   6.759 -0.3293  0.2344 -0.3894
   45MOL   C15934567   5.036   1.043   6.676 -0.1014  0.5787  0.0684
   45MOL   C16034568   5.014   1.166   6.769 -0.3916 -0.7002 -0.4844
   45MOL   C16134569   4.952   1.286   6.685  0.3236 -0.2278 -0.6248
   45MOL   O16234570   5.041   1.313   6.572  0.2402 -0.5119 -0.0391
   45MOL   C16334571   4.921   1.140   6.897  0.0859  0.5054  0.4276
   45MOL   C16434572   4.971   1.021   6.976 -0.0456  0.9538  0.0227
   45MOL   C16534573   4.963   0.894   6.878  0.5648 -0.0339  0.0591
   45MOL   C16634574   5.010   0.775   6.960 -0.1302 -0.5096  0.2107
   45MOL   O16734575   5.149   0.775   6.981 -0.1667 -0.4307  0.3373
   45MOL   C16834576   5.201   0.741   7.098 -0.1145  0.0440  0.0226
   45MOL   O16934577   5.138   0.687   7.192  0.2048  0.5940  0.0846
   45MOL   C17034578   5.346   0.781   7.102  0.3444  0.0296 -0.4970
   45MOL   C17134579   5.434   0.716   7.190  0.2555  0.3691  0.5585
   45MOL   C17234580   5.567   0.759   7.193  0.1632 -0.1386  0.6300
   45MOL   C17334581   5.618   0.858   7.110  0.1061 -0.6227 -0.4670
   45MOL   C17434582   5.765   0.891   7.111  0.5187 -0.5128  0.6585
   45MOL   O17534583   5.812   0.964   7.023  0.4147  0.4488  0.5591
   45MOL   O17634584   5.819   0.845   7.221 -0.3588  0.4820 -0.2243
   45MOL   C17734585   5.529   0.919   7.012 -0.3971 -0.5165 -0.4351
   45MOL   C17834586   5.394   0.887   7.017 -0.4234  0.5724  0.0400
   45MOL   H17934587   5.080   0.822   6.708  2.1762  1.1696 -1.1632
   45MOL   H18034588   5.157   0.944   6.798 -0.3468  2.0613 -1.5372
   45MOL   H18134589   5.116   1.062   6.604  0.5834 -0.1846  0.6237
   45MOL   H18234590   4.944   1.028   6.618 -0.0835  0.1179  0.1574
   45MOL   H18334591   5.115   1.199   6.795 -0.7479 -0.1063  0.1701
   45MOL   H18434592   4.850   1.256   6.663 -0.9599  1.3325  2.8986
   45MOL   H18534593   4.937   1.373   6.748  0.3227  0.7891 -2.0301
   45MOL   H18634594   4.923   1.231   6.957 -0.2833 -0.3697  1.7848
   45MOL   H18734595   4.817   1.128   6.867  0.4655  3.0704 -2.1535
   45MOL   H18834596   4.905   1.008   7.063  0.2410 -0.2483  0.0693
   45MOL   H18934597   5.068   1.032   7.024 -0.3951  0.3748  0.8728
   45MOL   H19034598   4.862   0.877   6.842 -0.2153  1.3125  1.5061
   45MOL   H19134599   4.966   0.788   7.058  0.3697 -0.3793  0.4180
   45MOL   H19234600   4.958   0.686   6.925 -0.7448  0.2813 -0.9163
   45MOL   H19334601   5.404   0.636   7.256  1.6370 -0.0306  0.7150
   45MOL   H19434602   5.644   0.708   7.249  0.8688  1.7971  1.4669
   45MOL   H19534603   5.567   0.985   6.935 -1.0423 -0.5622 -0.7990
   45MOL   H19634604   5.331   0.936   6.944 -2.6727 -1.1490  0.7477
   45MOL   C19734605   6.036   1.300   7.153  0.2562  0.4509 -0.5884
   45MOL   C19834606   5.963   1.174   7.190 -0.8247 -0.8341 -0.1268
   45MOL   C19934607   6.018   1.114   7.320  0.4679 -0.3986 -0.2656
   45MOL   C20034608   5.950   0.983   7.353 -0.5290 -0.4333 -0.1477
   45MOL   O20134609   5.955   0.888   7.248 -0.0772 -0.7535 -0.1055
   45MOL   C20234610   6.167   1.093   7.310  0.5436 -0.2162 -0.3758
   45MOL   C20334611   6.238   1.222   7.279 -0.1123 -0.8975  0.3297
   45MOL   C20434612   6.187   1.270   7.144  0.5087  0.0666 -0.3199
   45MOL   C20534613   6.258   1.401   7.103  0.0868 -0.0995 -0.1364
   45MOL   O20634614   6.390   1.383   7.056  0.3555  0.1230 -0.1952
   45MOL   C20734615   6.450   1.485   6.989 -0.9110 -0.1632  0.2455
   45MOL   O20834616   6.396   1.594   6.976  0.7232 -0.2777  0.8251
   45MOL   C20934617   6.594   1.468   6.962 -0.1706 -0.4728  0.5290
   45MOL   C21034618   6.649   1.342   6.968  0.3340  0.0971  0.4946
   45MOL   C21134619   6.781   1.312   6.925 -0.1232 -0.3214 -0.2630
   45MOL   C21234620   6.869   1.422   6.895  0.6462 -0.5523  0.7493
   45MOL   C21334621   7.015   1.397   6.857 -0.4000 -0.1672 -0.6232
   45MOL   O21434622   7.091   1.486   6.822 -0.3373  0.0899  0.0871
   45MOL   O21534623   7.044   1.263   6.866  0.5856 -0.7588 -0.2453
   45MOL   C21634624   6.810   1.553   6.892 -0.2616 -0.1157 -0.6531
   45MOL   C21734625   6.676   1.571   6.923 -0.5563 -0.2070  0.6417
   45MOL   H21834626   5.993   1.322   7.056 -0.0362  0.7504 -0.3919
   45MOL   H21934627   6.002   1.379   7.220  2.1907  0.2280  0.6965
   45MOL   H22034628   5.855   1.191   7.194 -0.4842  1.0528  2.2136
   45MOL   H22134629   5.990   1.096   7.119  0.4097 -0.7158  0.2097
   45MOL   H22234630   5.998   1.178   7.406 -1.3019 -1.1836 -0.0601
   45MOL   H22334631   5.992   0.936   7.442 -2.9514 -1.9329  0.2432
   45MOL   H22434632   5.845   0.998   7.376 -0.8952 -3.5130  0.4727
   45MOL   H22534633   6.207   1.057   7.404  1.3252  3.2883  0.7005
   45MOL   H22634634   6.191   1.007   7.247 -1.7885 -0.8587 -0.4489
   45MOL   H22734635   6.338   1.180   7.280  0.3782  0.2376  0.3531
   45MOL   H22834636   6.220   1.294   7.359  0.2999 -0.5537  0.1147
   45MOL   H22934637   6.204   1.200   7.062 -1.7189 -1.4705  0.4785
   45MOL   H23034638   6.199   1.442   7.022  1.7280 -0.7349 -1.6990
   45MOL   H23134639   6.260   1.483   7.175  0.1043 -0.8991  0.7838
   45MOL   H23234640   6.588   1.264   7.011 -0.9063 -0.9038 -2.9023
   45MOL   H23334641   6.815   1.210   6.935 -1.1161 -0.9238 -2.7382
   45MOL   H23434642   6.875   1.639   6.885 -0.2205 -0.0487  0.3914
   45MOL   H23534643   6.643   1.673   6.935 -0.2304 -0.1563  1.1210
   45MOL   C23634644   7.577   1.246   6.634 -0.1642  0.3764  0.5403
   45MOL   C23734645   7.446   1.284   6.705  0.2522  0.1099 -0.6388
   45MOL   C23834646   7.420   1.189   6.828  0.1528  0.1636 -0.2227
   45MOL   C23934647   7.283   1.231   6.899  0.9328  0.4977  0.2947
   45MOL   O24034648   7.175   1.219   6.803  0.4764  0.9179 -0.3786
   45MOL   C24134649   7.426   1.041   6.788  0.2307  0.1510  0.7651
   45MOL   C24234650   7.546   0.996   6.703 -0.2351 -0.1839 -0.5039
   45MOL   C24334651   7.582   1.100   6.583  0.1809 -0.4632  0.1999
   45MOL   C24434652   7.725   1.086   6.527  0.2168 -0.2167  0.4988
   45MOL   O24534653   7.719   0.982   6.428 -0.3418  0.2328 -0.3435
   45MOL   C24634654   7.828   0.913   6.398  0.4071  0.4684  0.4819
   45MOL   O24734655   7.939   0.942   6.447  0.0128 -0.2425 -0.4915
   45MOL   C24834656   7.806   0.798   6.305  0.2064  0.1210  0.5543
   45MOL   C24934657   7.906   0.703   6.288  0.5424  0.3580  0.4852
   45MOL   C25034658   7.895   0.595   6.200 -0.1641 -0.2252 -0.5333
   45MOL   C25134659   7.787   0.585   6.110  0.8434  0.2603 -0.3910
   45MOL   C25234660   7.794   0.479   6.000 -0.6460 -0.8061 -0.2151
   45MOL   O25334661   7.888   0.404   5.976  0.4882 -0.0993  0.2985
   45MOL   O25434662   7.678   0.464   5.934 -0.7061 -0.5810  0.1924
   45MOL   C25534663   7.685   0.677   6.122  0.7447 -0.0277 -0.1410
   45MOL   C25634664   7.684   0.776   6.227 -0.7014 -0.2165  0.7283
   45MOL   H25734665   7.596   1.307   6.546 -0.3344  0.1116  0.3201
   45MOL   H25834666   7.657   1.270   6.705  0.3887 -2.0771  0.8098
   45MOL   H25934667   7.457   1.389   6.731 -3.0240  0.1152  0.9416
   45MOL   H26034668   7.365   1.270   6.633  0.0213 -0.3457 -0.2952
   45MOL   H26134669   7.494   1.212   6.905 -2.2220 -0.7308  2.4330
   45MOL   H26234670   7.264   1.162   6.982 -0.2317 -2.3760 -2.2582
   45MOL   H26334671   7.286   1.333   6.935  0.9540  1.2635 -1.8153
   45MOL   H26434672   7.429   0.994   6.886 -1.6537  0.6541  1.0937
   45MOL   H26534673   7.334   1.008   6.739  0.5401  1.4998 -0.7513
   45MOL   H26634674   7.532   0.894   6.665 -0.8833 -0.0883 -0.5180
   45MOL   H26734675   7.633   0.986   6.769 -0.8336 -1.7005  0.0903
   45MOL   H26834676   7.506   1.087   6.506 -0.2957  0.0821  0.5747
   45MOL   H26934677   7.763   1.165   6.462 -2.5606 -0.1424 -1.1115
   45MOL   H27034678   7.800   1.056   6.600 -1.5206 -0.3149  2.2808
   45MOL   H27134679   7.999   0.711   6.343  0.1933  2.6809  0.8223
   45MOL   H27234680   7.974   0.525   6.176  0.6582  0.8871 -1.0947
   45MOL   H27334681   7.599   0.675   6.056  1.0840  1.6455 -0.6508
   45MOL   H27434682   7.600   0.842   6.242  0.0264  0.6698  0.9813
   45MOL   C27534683   7.711   7.913   5.766 -0.5436  0.8034 -0.1419
   45MOL   C27634684   7.629   8.035   5.812  0.3693 -0.1332 -0.0257
   45MOL   C27734685   7.703   0.129   5.788  0.2664  0.2996 -0.6083
   45MOL   C27834686   7.639   0.241   5.874 -0.5140  0.2679 -0.4001
   45MOL   O27934687   7.687   0.362   5.823 -0.2488  0.0255  0.1109
   45MOL   C28034688   7.858   0.135   5.810  0.7975 -0.5445  0.4253
   45MOL   C28134689   7.925   0.009   5.747 -0.1355 -0.2142  0.2440
   45MOL   C28234690   7.861   7.923   5.797  0.6065 -0.0915 -0.2829
   45MOL   C28334691   7.941   7.806   5.750 -0.5719  0.6639  0.2210
   45MOL   O28434692   7.932   7.689   5.821 -0.0606  0.4814 -0.8507
   45MOL   C28534693   7.980   7.678   5.946 -0.2213 -0.4631 -0.5739
   45MOL   O28634694   0.015   7.763   5.999  0.4137 -0.7239  0.1866
   45MOL   C28734695   7.955   7.550   6.011  0.2082  0.3872 -0.0016
   45MOL   C28834696   7.842   7.472   5.972 -0.1427  0.6785  0.4815
   45MOL   C28934697   7.821   7.353   6.036 -0.2510 -0.4430  0.6540
   45MOL   C29034698   7.913   7.305   6.133  0.1556  0.9362  0.2792
   45MOL   C29134699   7.895   7.164   6.192 -0.2215 -1.0169 -1.1527
   45MOL   O29234700   7.939   7.137   6.305  0.9994  0.9458  0.0515
   45MOL   O29334701   7.821   7.086   6.123  0.2109 -0.2214 -0.4537
   45MOL   C29434702   8.021   7.382   6.171  0.2180 -0.6427  0.4442
   45MOL   C29534703   0.010   7.502   6.106  0.2648 -0.1199  0.6443
   45MOL   H29634704   7.663   7.825   5.808 -0.3738  0.4312 -0.7124
   45MOL   H29734705   7.687   7.895   5.661 -0.2086  1.0083 -0.2551
   45MOL   H29834706   7.535   0.017   5.759  1.1659  4.0116 -0.2106
   45MOL   H29934707   7.608   8.027   5.919 -0.0617 -0.0614 -0.1041
   45MOL   H30034708   7.680   0.151   5.684 -1.6075 -0.1122 -0.2848
   45MOL   H30134709   7.530   0.231   5.877 -0.5833  1.3166  2.1700
   45MOL   H30234710   7.670   0.230   5.978 -0.5217  0.5293 -0.3693
   45MOL   H30334711   7.899   0.223   5.761 -1.0088 -0.4194 -0.9309
   45MOL   H30434712   7.871   0.146   5.917  1.7760  2.5006  0.0532
   45MOL   H30534713   8.033   0.003   5.762 -0.0861  0.4981  0.1642
   45MOL   H30634714   7.920   0.024   5.639  1.9422  2.1386  0.4405
   45MOL   H30734715   7.878   7.936   5.904  0.7948 -0.3982 -0.2743
   45MOL   H30834716   7.900   7.778   5.653 -1.0492  0.9128  0.3503
   45MOL   H30934717   0.010   7.834   5.741 -0.7621  0.8179 -1.6619
   45MOL   H31034718   7.773   7.497   5.893 -0.8713  0.9347  1.2027
   45MOL   H31134719   7.728   7.304   6.011 -1.0613 -0.2448  3.1444
   45MOL   H31234720   0.055   7.346   6.245  0.8685  0.7598  0.5480
   45MOL   H31334721   0.097   7.562   6.128  0.4524  0.1468 -0.8093
   45MOL   C31434722   7.690   6.538   6.185 -1.1978 -1.0252 -0.4682
   45MOL   C31534723   7.721   6.688   6.163 -0.7547  0.2538  0.5603
   45MOL   C31634724   7.869   6.723   6.191 -0.6293  0.3644 -0.5763
   45MOL   C31734725   7.897   6.871   6.153 -0.3347  0.0634 -0.3362
   45MOL   O31834726   7.797   6.956   6.195 -0.1122 -0.1703  0.1096
   45MOL   C31934727   7.899   6.680   6.334 -0.6424 -0.3008 -0.5860
   45MOL   C32034728   7.868   6.528   6.360  0.3027  0.4730  0.5542
   45MOL   C32134729   7.729   6.487   6.329  0.2558 -0.3639  0.4303
   45MOL   C32234730   7.693   6.333   6.339 -0.2196  0.0860 -0.6446
   45MOL   O32334731   7.744   6.257   6.233  0.7171  0.7877 -0.2033
   45MOL   C32434732   7.842   6.169   6.248  0.0246 -0.1828  0.0724
   45MOL   O32534733   7.907   6.143   6.348  0.1427  0.5235  0.4049
   45MOL   C32634734   7.865   6.099   6.115 -0.0442  0.1434  0.2209
   45MOL   C32734735   7.776   6.124   6.005 -0.3880 -0.0831  0.2938
   45MOL   C32834736   7.807   6.064   5.880  0.0944 -0.4266 -0.3296
   45MOL   C32934737   7.912   5.975   5.862  0.4072 -0.4607 -0.3517
   45MOL   C33034738   7.958   5.925   5.730  0.3489  0.7953  0.8322
   45MOL   O33134739   0.009   5.842   5.701  0.1083  0.1498  0.2133
   45MOL   O33234740   7.894   5.998   5.631  0.9386  0.5295 -0.1292
   45MOL   C33334741   7.991   5.944   5.976 -0.5132  0.5138 -0.7780
   45MOL   C33434742   7.969   6.003   6.102 -0.6218  0.0632 -0.0829
   45MOL   H33534743   7.585   6.518   6.164 -2.0502  2.0708  0.4873
   45MOL   H33634744   7.740   6.469   6.118 -0.1706 -0.4549 -0.2880
   45MOL   H33734745   7.685   6.722   6.066 -0.9760 -0.1928  0.4853
   45MOL   H33834746   7.667   6.751   6.233 -1.0692  1.9579 -1.1921
   45MOL   H33934747   7.932   6.661   6.127 -0.8676 -0.6991  0.1982
   45MOL   H34034748   7.996   6.891   6.193 -1.4064  1.1421  1.8913
   45MOL   H34134749   7.892   6.875   6.044 -2.2537  2.2651 -0.2257
   45MOL   H34234750   8.006   6.694   6.351 -0.6075 -1.2946  0.0403
   45MOL   H34334751   7.854   6.739   6.413  2.5105  0.4776  0.6950
   45MOL   H34434752   7.892   6.521   6.466 -0.7597 -0.3678  0.7495
   45MOL   H34534753   7.942   6.471   6.304 -0.1115  1.6855 -1.2656
   45MOL   H34634754   7.663   6.539   6.398 -0.4427  1.5780 -1.6391
   45MOL   H34734755   7.725   6.304   6.439 -1.2834  1.0915 -0.0082
   45MOL   H34834756   7.585   6.326   6.328 -0.1658 -0.0642 -1.0788
   45MOL   H34934757   7.686   6.180   6.021 -0.5127 -1.0734  3.5029
   45MOL   H35034758   7.739   6.084   5.798 -2.3140  2.1166  2.1721
   45MOL   H35134759   0.035   5.871   5.968 -1.1291 -0.1143 -1.1984
   45MOL   H35234760   0.003   5.989   6.184 -3.2922  3.1235  2.8643
   45MOL   C35334761   7.986   6.098   5.054 -0.2117  0.0041 -0.1945
   45MOL   C35434762   7.936   6.097   5.201 -0.4280  0.0158  0.3973
   45MOL   C35534763   0.020   6.066   5.298  0.7419  0.0586  0.6120
   45MOL   C35634764   8.017   6.071   5.447 -0.4457  0.6095 -0.3039
   45MOL   O35734765   7.928   5.970   5.487 -0.3222  0.2961 -0.3694
   45MOL   C35834766   0.085   5.928   5.250  0.3590  0.4905 -0.5479
   45MOL   C35934767   0.133   5.931   5.102  0.8112  0.0863  0.5583
   45MOL   C36034768   0.020   5.967   5.011 -0.2233 -0.0424  0.4153
   45MOL   C36134769   0.053   5.966   4.860 -0.0079 -0.2013 -0.6835
   45MOL   O36234770   7.971   5.972   4.772 -0.2964  0.2236  0.2128
   45MOL   C36334771   7.931   6.084   4.710  0.3622  0.5449  0.7362
   45MOL   O36434772   7.983   6.193   4.731 -0.1272 -0.2401 -0.3475
   45MOL   C36534773   7.817   6.070   4.613 -0.6082 -0.2165  0.3705
   45MOL   C36634774   7.758   5.946   4.595  0.3382 -0.1634  0.4046
   45MOL   C36734775   7.665   5.924   4.491  0.1984  1.0707  0.2617
   45MOL   C36834776   7.623   6.036   4.405 -0.0644  0.1121 -0.2660
   45MOL   C36934777   7.536   6.017   4.289 -0.5730 -0.2511  0.0734
   45MOL   O37034778   7.486   5.904   4.265 -0.4942 -0.1382 -0.1702
   45MOL   O37134779   7.520   6.121   4.205  0.2396  0.3110 -0.3042
   45MOL   C37234780   7.668   6.162   4.448 -0.4252  0.9685  0.7359
   45MOL   C37334781   7.774   6.178   4.537 -0.2537 -1.0389  0.0032
   45MOL   H37434782   7.910   6.109   4.977 -1.6310  2.1636  1.4489
   45MOL   H37534783   0.017   6.184   5.043  0.1930 -0.3272 -0.3719
   45MOL   H37634784   7.900   6.193   5.237  0.4755  0.6954 -0.4969
   45MOL   H37734785   7.866   6.015   5.217 -1.6755  1.0589  0.4018
   45MOL   H37834786   0.104   6.133   5.278  2.0193 -1.6108  0.2128
   45MOL   H37934787   0.076   6.066   5.502 -0.3023  0.3601 -0.5662
   45MOL   H38034788   7.976   6.169   5.469 -0.5042  0.5674 -0.2261
   45MOL   H38134789   0.173   5.897   5.306 -0.8856  2.3282  2.5881
   45MOL   H38234790   0.020   5.842   5.269  1.7409 -0.8938 -1.9688
   45MOL   H38334791   0.158   5.831   5.067 -2.0950 -0.1344 -1.0699
   45MOL   H38434792   0.221   5.993   5.084  0.1708  0.6766 -0.5976
   45MOL   H38534793   7.975   5.894   5.018  1.1294 -1.3885  2.6568
   45MOL   H38634794   0.127   6.045   4.845 -0.6899  0.2500 -1.7293
   45MOL   H38734795   0.108   5.873   4.845  1.3324  0.6563 -1.1975
   45MOL   H38834796   7.779   5.861   4.659 -0.6826 -2.9281 -2.7561
   45MOL   H38934797   7.614   5.830   4.478  1.6322  0.2741  0.3062
   45MOL   H39034798   7.622   6.241   4.391  2.5245  1.7648 -0.6381
   45MOL   H39134799   7.814   6.274   4.566 -0.7851  0.0438 -2.7795
   45MOL   C39234800   7.755   5.791   3.833  0.2349  0.3232  0.7473
   45MOL   C39334801   7.699   5.929   3.853  0.5782  0.6014  0.4174
   45MOL   C39434802   7.587   5.934   3.963  0.3707 -0.5300  0.0369
   45MOL   C39534803   7.526   6.070   3.973 -0.8407  0.0176  0.0762
   45MOL   O39634804   7.437   6.087   4.080  0.1765  0.1057  0.5081
   45MOL   C39734805   7.485   5.822   3.937 -0.6699  0.6826  0.2110
   45MOL   C39834806   7.551   5.686   3.925 -0.4399  0.6351 -0.1649
   45MOL   C39934807   7.648   5.684   3.805 -0.3642  0.2322  0.5918
   45MOL   C40034808   7.707   5.540   3.795 -0.3348  0.1833  0.7013
   45MOL   O40134809   7.785   5.497   3.904  0.0006 -0.1964 -0.5449
   45MOL   C40234810   7.837   5.371   3.907 -0.2353 -0.3186 -0.1642
   45MOL   O40334811   7.803   5.278   3.829 -0.8063  0.1417  0.2186
   45MOL   C40434812   7.922   5.347   4.024 -0.2080 -0.2809  0.0536
   45MOL   C40534813   8.020   5.245   4.024 -0.0626  0.1439 -0.0519
   45MOL   C40634814   0.082   5.235   4.127  0.8043  0.7969 -0.2460
   45MOL   C40734815   0.079   5.322   4.237  0.1608 -1.2798 -0.0037
   45MOL   C40834816   0.193   5.340   4.338  0.1861 -0.2908 -0.0033
   45MOL   O40934817   0.209   5.439   4.401  0.1270  0.3287 -0.6870
   45MOL   O41034818   0.275   5.231   4.339 -0.0637  0.5178  0.1340
   45MOL   C41134819   8.014   5.423   4.240  0.5048 -0.0293  0.4354
   45MOL   C41234820   7.922   5.436   4.132  0.0511 -0.3806  0.0858
   45MOL   H41334821   7.831   5.800   3.755  0.3708  2.6355  1.1090
   45MOL   H41434822   7.810   5.769   3.924 -1.9797 -2.1521  1.5424
   45MOL   H41534823   7.787   5.989   3.876  2.1722 -1.8590  0.9706
   45MOL   H41634824   7.670   5.969   3.756 -0.8472 -0.4042  0.4294
   45MOL   H41734825   7.633   5.908   4.059  1.1285 -1.7389 -0.6453
   45MOL   H41834826   7.606   6.144   3.976 -0.7846 -0.1307  3.5713
   45MOL   H41934827   7.466   6.087   3.883 -0.0779 -3.4850 -1.1386
   45MOL   H42034828   7.406   5.818   4.011 -0.0370  1.3359  0.9315
   45MOL   H42134829   7.438   5.836   3.839  1.2428 -1.3907 -1.0532
   45MOL   H42234830   7.484   5.603   3.905 -1.3692  1.7423 -1.7398
   45MOL   H42334831   7.585   5.666   4.027 -0.9732 -0.0855 -0.1251
   45MOL   H42434832   7.597   5.695   3.709 -0.7779  0.2989  0.8203
   45MOL   H42534833   7.623   5.473   3.776 -1.2814  1.5191  0.0277
   45MOL   H42634834   7.780   5.535   3.715 -2.0183 -1.4332 -0.7652
   45MOL   H42734835   8.028   5.177   3.940  2.0524 -0.4063  0.5726
   45MOL   H42834836   0.158   5.159   4.122 -0.6351 -0.7419  0.9185
   45MOL   H42934837   8.013   5.503   4.313 -1.8924  2.6576 -2.4246
   45MOL   H43034838   7.859   5.523   4.149  0.1622 -0.2121 -0.3433
   45MOL   C43134839   0.674   5.237   4.777 -0.3760 -0.5582  0.2120
   45MOL   C43234840   0.586   5.206   4.658 -0.4311  0.2764 -0.4368
   45MOL   C43334841   0.445   5.257   4.666 -0.3974  0.2315 -0.0620
   45MOL   C43434842   0.348   5.202   4.561  0.4291 -0.3997  0.3759
   45MOL   O43534843   0.387   5.252   4.437 -0.7263  0.2016  0.5220
   45MOL   C43634844   0.389   5.216   4.803  0.8047 -0.0031  0.3434
   45MOL   C43734845   0.471   5.254   4.924  1.0384 -0.6257 -0.9796
   45MOL   C43834846   0.617   5.207   4.914  0.5633  0.5849  0.0172
   45MOL   C43934847   0.706   5.236   5.034  0.7455  0.4502  0.1283
   45MOL   O44034848   0.642   5.194   5.152 -0.2200  0.6264 -0.3552
   45MOL   C44134849   0.675   5.262   5.266 -0.6391 -0.0118  0.0148
   45MOL   O44234850   0.748   5.361   5.277  0.3556 -0.5079 -0.3791
   45MOL   C44334851   0.617   5.201   5.387  0.3944  0.2474  0.0013
   45MOL   C44434852   0.532   5.087   5.381 -0.0486 -0.5417 -0.3453
   45MOL   C44534853   0.480   5.032   5.499 -0.3718  0.7795 -0.3400
   45MOL   C44634854   0.510   5.096   5.630  0.3021  0.7191  0.5154
   45MOL   C44734855   0.477   5.037   5.764 -0.0666 -0.6257 -0.4835
   45MOL   O44834856   0.530   5.062   5.874  0.0796  0.2888  0.1565
   45MOL   O44934857   0.382   4.949   5.739  0.3448  0.3793  0.0708
   45MOL   C45034858   0.594   5.210   5.628  0.7006 -0.8276 -0.1227
   45MOL   C45134859   0.643   5.268   5.513  0.0364  0.2915 -0.4458
   45MOL   H45234860   0.757   5.172   4.752  0.2658 -0.0252  0.9236
   45MOL   H45334861   0.709   5.340   4.776  3.2771 -1.7500 -0.4590
   45MOL   H45434862   0.639   5.233   4.567  0.9185 -1.2747 -0.1434
   45MOL   H45534863   0.573   5.098   4.645 -0.0081  0.3714 -1.7503
   45MOL   H45634864   0.462   5.364   4.653  0.3433 -0.1703 -2.5344
   45MOL   H45734865   0.351   5.094   4.557  1.8409 -0.3299 -1.2366
   45MOL   H45834866   0.247   5.231   4.590  1.6820  1.3448  3.1454
   45MOL   H45934867   0.289   5.255   4.822  1.1897  0.1912  1.9656
   45MOL   H46034868   0.379   5.107   4.803  0.2316  0.0387  1.4535
   45MOL   H46134869   0.420   5.225   5.016  1.3452  0.3186 -0.5067
   45MOL   H46234870   0.471   5.362   4.937 -3.1590 -0.6151 -0.3163
   45MOL   H46334871   0.610   5.098   4.909  0.8020  0.4417  2.0108
   45MOL   H46434872   0.801   5.183   5.028  1.4544  1.7956 -0.7399
   45MOL   H46534873   0.733   5.341   5.041  0.7243  0.3948  1.1546
   45MOL   H46634874   0.513   5.039   5.286  0.8845 -0.4037 -0.6106
   45MOL   H46734875   0.415   4.947   5.480 -0.1765  0.3040  1.0823
   45MOL   H46834876   0.618   5.255   5.723 -0.9704 -1.7159  0.7497
   45MOL   H46934877   0.710   5.352   5.515  0.1276  0.2213 -0.5423
   45MOL   C47034878   7.929   5.042   5.808 -0.8469 -0.6714 -0.0937
   45MOL   C47134879   0.009   5.018   5.900  0.5050 -0.3198 -0.2173
   45MOL   C47234880   0.116   4.926   5.829  0.4490 -0.6504 -0.4696
   45MOL   C47334881   0.239   4.907   5.924  0.1893 -0.4207 -0.0003
   45MOL   O47434882   0.347   4.854   5.855 -0.3681 -0.1434 -0.1301
   45MOL   C47534883   0.047   4.795   5.797 -0.3801  1.5576 -0.3441
   45MOL   C47634884   7.968   4.821   5.703 -0.2516  0.3941 -0.0087
   45MOL   C47734885   7.866   4.912   5.765 -0.8617  0.6059 -0.1732
   45MOL   C47834886   7.747   4.939   5.668  0.0570  0.4589  0.0333
   45MOL   O47934887   7.713   4.819   5.621 -0.1360  0.6673 -0.6251
   45MOL   C48034888   7.610   4.749   5.666  0.0320  0.1689  0.0653
   45MOL   O48134889   7.549   4.777   5.766 -0.1459  0.2491  0.3195
   45MOL   C48234890   7.584   4.629   5.588  0.5144 -0.5601  0.4870
   45MOL   C48334891   7.484   4.535   5.621 -0.1388  0.0979 -0.0590
   45MOL   C48434892   7.459   4.424   5.541 -0.0652 -0.2299  0.2634
   45MOL   C48534893   7.536   4.397   5.425  0.5004 -0.0117 -0.5519
   45MOL   C48634894   7.510   4.263   5.364 -0.3409  0.3717  0.0565
   45MOL   O48734895   7.423   4.182   5.400 -0.2531  0.0710 -0.6927
   45MOL   O48834896   7.610   4.230   5.283 -0.0707 -0.4309  0.0051
   45MOL   C48934897   7.635   4.491   5.387 -0.6332 -0.2538  0.2731
   45MOL   C49034898   7.658   4.605   5.470  0.4118  0.4378  0.0330
   45MOL   H49134899   7.855   5.108   5.852  0.2195  0.1705  0.4657
   45MOL   H49234900   7.968   5.095   5.720  2.6430 -1.8718  0.6645
   45MOL   H49334901   0.052   5.113   5.933 -0.8225  0.6900 -1.3657
   45MOL   H49434902   8.013   4.973   5.994  0.6036 -1.1058 -0.5643
   45MOL   H49534903   0.157   4.982   5.745  3.6245 -1.0580  0.7164
   45MOL   H49634904   0.278   4.998   5.969 -2.0912 -0.0061  1.1824
   45MOL   H49734905   0.209   4.845   6.008 -0.0322  1.5343  1.4017
   45MOL   H49834906   0.112   4.728   5.741 -0.1915 -1.9014  3.7282
   45MOL   H49934907   0.008   4.745   5.886  2.8958  1.7965  1.2798
   45MOL   H50034908   7.924   4.723   5.684 -3.1439  1.4684  0.9776
   45MOL   H50134909   8.004   4.848   5.604  0.7989 -1.1917 -0.0856
   45MOL   H50234910   7.830   4.862   5.855 -0.0749  0.9023  0.3129
   45MOL   H50334911   7.663   4.980   5.725 -0.3718 -0.9007  0.3986
   45MOL   H50434912   7.787   5.003   5.590  3.8979 -0.7655  0.8782
   45MOL   H50534913   7.415   4.538   5.704  0.9472 -0.4325  0.8710
   45MOL   H50634914   7.374   4.359   5.556  0.4205 -0.6552  1.1758
   45MOL   H50734915   7.692   4.494   5.295  1.5869 -2.8299  1.4931
   45MOL   H50834916   7.727   4.679   5.432  0.4993  0.4811  0.2744
   45MOL   C50934917   8.015   4.148   5.071 -0.2907 -0.4092  0.4665
   45MOL   C51034918   7.874   4.095   5.101  1.0329  0.0964 -0.5034
   45MOL   C51134919   7.857   4.076   5.251 -0.2346 -0.3150  0.1572
   45MOL   C51234920   7.715   4.018   5.287  0.3243 -0.3970  0.3691
   45MOL   O51334921   7.612   4.088   5.225  0.0468  0.2070 -0.7041
   45MOL   C51434922   7.952   3.974   5.298  0.9508  0.1110 -0.1863
   45MOL   C51534923   0.059   4.024   5.274  0.5981  0.1638  0.2844
   45MOL   C51634924   0.089   4.062   5.126 -1.0206  0.1061 -0.6676
   45MOL   C51734925   0.228   4.135   5.114 -0.1363  0.2913 -0.5275
   45MOL   O51834926   0.235   4.163   4.972  0.2803  0.8497  0.0853
   45MOL   C51934927   0.316   4.259   4.919  0.0699  0.4550 -0.4275
   45MOL   O52034928   0.390   4.327   4.988  0.7699 -0.2436 -0.3923
   45MOL   C52134929   0.299   4.265   4.773 -0.2920 -0.3508 -0.3298
   45MOL   C52234930   0.376   4.360   4.703  0.4149  0.5980 -0.9432
   45MOL   C52334931   0.355   4.381   4.569 -0.1026  0.0863  0.2254
   45MOL   C52434932   0.257   4.307   4.497  0.6766  0.6707  0.6330
   45MOL   C52534933   0.230   4.333   4.351  0.3464  0.5299 -0.0989
   45MOL   O52634934   0.158   4.254   4.289 -0.3363 -0.6554  0.4270
   45MOL   O52734935   0.305   4.432   4.293  0.1852 -0.3653  0.7249
   45MOL   C52834936   0.182   4.213   4.571  0.4138 -0.1464 -0.4161
   45MOL   C52934937   0.216   4.180   4.704  0.0937  0.1841  0.0925
   45MOL   H53034938   8.027   4.162   4.964  0.4548 -2.1985  0.2938
   45MOL   H53134939   8.014   4.246   5.119  1.0621 -0.1821  0.0562
   45MOL   H53234940   7.801   4.170   5.069  1.7947  1.4972  0.9510
   45MOL   H53334941   7.846   4.008   5.041 -1.9910 -0.6652  1.8606
   45MOL   H53434942   7.872   4.168   5.307  1.6095  0.4461 -1.5405
   45MOL   H53534943   7.711   3.916   5.251  2.8875 -1.2415  2.2927
   45MOL   H53634944   7.700   4.019   5.395  1.2798  2.6741  0.5286
   45MOL   H53734945   7.929   3.963   5.404  2.1990  1.9183  0.2958
   45MOL   H53834946   7.926   3.884   5.242 -0.0446 -0.3018  0.9109
   45MOL   H53934947   0.132   3.959   5.323 -2.4012 -1.9473  2.0898
   45MOL   H54034948   0.090   4.113   5.330  1.2751  0.1273 -0.0286
   45MOL   H54134949   0.096   3.979   5.056 -1.6680 -0.2976 -0.2576
   45MOL   H54234950   0.235   4.228   5.171  0.3923 -0.5855  0.8517
   45MOL   H54334951   0.302   4.061   5.144  0.0742  0.5979 -0.2869
   45MOL   H54434952   0.443   4.428   4.756  0.7066  0.0593 -0.6150
   45MOL   H54534953   0.408   4.466   4.529 -2.7321  1.8630  0.3662
   45MOL   H54634954   0.102   4.160   4.522  0.3146 -1.3884  1.0429
   45MOL   H54734955   0.162   4.105   4.759  0.3023 -1.1895 -1.5315
   45MOL   C54834956   0.213   4.472   3.721  0.2463  0.6365 -0.2895
   45MOL   C54934957   0.211   4.444   3.870 -0.2640  0.1939  0.1111
   45MOL   C55034958   0.352   4.444   3.930 -0.5198  0.0561  0.1641
   45MOL   C55134959   0.363   4.387   4.071  0.3503  0.2324 -0.5091
   45MOL   O55234960   0.266   4.446   4.156 -0.2977 -0.2362  0.7156
   45MOL   C55334961   0.463   4.362   3.843 -0.1047 -0.0749  0.7656
   45MOL   C55434962   0.459   4.405   3.694  0.1229 -0.0392  0.9386
   45MOL   C55534963   0.313   4.373   3.644  0.6150 -0.2346 -0.1387
   45MOL   C55634964   0.295   4.388   3.487 -0.0761  0.1072 -0.9171
   45MOL   O55734965   0.381   4.292   3.418  0.4171  0.0326  0.7836
   45MOL   C55834966   0.357   4.265   3.297  0.5064  0.3179  0.4229
   45MOL   O55934967   0.272   4.328   3.234  0.4974 -0.3226 -0.8412
   45MOL   C56034968   0.431   4.148   3.235 -0.4143  0.5166 -0.1530
   45MOL   C56134969   0.550   4.093   3.288  0.2862  0.3766  0.7598
   45MOL   C56234970   0.620   3.988   3.228 -0.3420 -0.3156 -0.0361
   45MOL   C56334971   0.580   3.944   3.105  0.0788 -0.0528 -0.4261
   45MOL   C56434972   0.651   3.829   3.039  0.6809  0.0649  0.3619
   45MOL   O56534973   0.728   3.754   3.098 -0.5571 -0.0353 -0.2761
   45MOL   O56634974   0.612   3.810   2.909  0.7174  0.0288 -0.3588
   45MOL   C56734975   0.464   4.003   3.047  0.5837  0.5969 -0.0786
   45MOL   C56834976   0.391   4.101   3.108 -0.4259 -0.3863 -0.5928
   45MOL   H56934977   0.112   4.475   3.679  0.4868  0.6888 -0.8742
   45MOL   H57034978   0.243   4.575   3.699 -0.5160  0.5493 -1.7907
   45MOL   H57134979   0.139   4.509   3.920 -1.3614 -1.6464  0.9907
   45MOL   H57234980   0.177   4.341   3.885 -0.5266 -0.1597 -2.6276
   45MOL   H57334981   0.384   4.548   3.926 -1.1748  0.1996 -2.0446
   45MOL   H57434982   0.362   4.278   4.075  0.4192  0.2746  0.9674
   45MOL   H57534983   0.463   4.402   4.110  0.7556 -1.6050 -0.7957
   45MOL   H57634984   0.564   4.366   3.884  1.1669 -1.2816 -2.1130
   45MOL   H57734985   0.438   4.257   3.856 -1.5657 -0.0333 -1.4861
   45MOL   H57834986   0.527   4.347   3.633 -1.3439 -2.2263  1.3280
   45MOL   H57934987   0.463   4.511   3.668 -0.9955  0.1409  1.4328
   45MOL   H58034988   0.285   4.272   3.673  1.6667  0.2422  2.7733
   45MOL   H58134989   0.190   4.362   3.472  0.2240 -0.3513 -2.3241
   45MOL   H58234990   0.304   4.491   3.453 -0.6687  0.4076 -0.1740
   45MOL   H58334991   0.578   4.141   3.381 -0.6480  0.8240  0.8166
   45MOL   H58434992   0.708   3.945   3.272 -2.5010 -3.9799  0.8975
   45MOL   H58534993   0.421   3.968   2.954 -3.8910  1.1853  1.6502
   45MOL   H58634994   0.300   4.136   3.061 -2.0328 -1.2440  1.7780
   45MOL   C58734995   0.383   3.261   2.709 -0.1134  0.0920 -0.5595
   45MOL   C58834996   0.379   3.406   2.763  0.3208  0.4760 -0.0099
   45MOL   C58934997   0.517   3.463   2.804 -0.4062  0.9489  0.0294
   45MOL   C59034998   0.508   3.608   2.861  0.7176  0.0933  0.2864
   45MOL   O59134999   0.634   3.673   2.857 -0.3082  0.3546  0.6885
   45MOL   C59235000   0.606   3.366   2.879  0.3091 -0.6516  0.1455
   45MOL   C59335001   0.609   3.225   2.814  0.0299 -0.3747 -0.4635
   45MOL   C59435002   0.467   3.174   2.801  0.0415  0.8232 -0.2992
   45MOL   C59535003   0.473   3.036   2.744 -0.3513  0.8630  0.8253
   45MOL   O59635004   0.550   3.033   2.622 -0.0423  0.0120  0.0250
   45MOL   C59735005   0.672   2.975   2.616 -0.2523  0.2143  0.5104
   45MOL   O59835006   0.715   2.893   2.697 -0.3773  0.2233  0.2619
   45MOL   C59935007   0.734   3.010   2.491  0.3205 -0.1284  0.0237
   45MOL   C60035008   0.866   2.959   2.458 -0.5229 -0.0823  0.2602
   45MOL   C60135009   0.927   2.982   2.336 -0.1075 -0.2593 -0.8878
   45MOL   C60235010   0.859   3.069   2.245 -0.4767 -0.3066 -0.3725
   45MOL   C60335011   0.919   3.107   2.113  0.1703 -0.3960  0.0165
   45MOL   O60435012   0.881   3.207   2.052  0.5744  0.3283 -0.1186
   45MOL   O60535013   0.999   3.016   2.060  0.1654 -1.0295 -0.1820
   45MOL   C60635014   0.730   3.125   2.280  0.5693 -0.1616  1.1066
   45MOL   C60735015   0.672   3.102   2.401  0.3002  0.3139 -0.4635
   45MOL   H60835016   0.283   3.220   2.695 -0.3852 -0.1444  1.7911
   45MOL   H60935017   0.414   3.257   2.605 -0.2398  0.3588 -0.6076
   45MOL   H61035018   0.337   3.460   2.678  0.4474 -1.1645 -1.1552
   45MOL   H61135019   0.305   3.414   2.842  1.8535  2.1269  1.2805
   45MOL   H61235020   0.568   3.488   2.710  1.8630  1.5661  1.3750
   45MOL   H61335021   0.441   3.666   2.796  1.1180 -0.9590 -1.0949
   45MOL   H61435022   0.471   3.597   2.963  1.4687 -2.2518  0.3238
   45MOL   H61535023   0.704   3.413   2.880  0.5915 -1.1580 -1.5968
   45MOL   H61635024   0.558   3.354   2.976  2.7197 -0.5998  1.3869
   45MOL   H61735025   0.663   3.165   2.887 -1.6975 -0.0597  1.1328
   45MOL   H61835026   0.666   3.228   2.721 -2.2765 -0.7385 -1.9205
   45MOL   H61935027   0.429   3.173   2.904 -0.1737 -2.1181 -0.3740
   45MOL   H62035028   0.530   2.974   2.814  1.2526 -0.1775 -1.3373
   45MOL   H62135029   0.375   2.989   2.729  0.6248 -1.6622  2.0586
   45MOL   H62235030   0.925   2.898   2.525 -0.4197  0.9803  1.1448
   45MOL   H62335031   1.029   2.950   2.319  0.2097 -0.8595  1.8425
   45MOL   H62435032   0.678   3.195   2.217  1.7449 -0.4514 -0.2025
   45MOL   H62535033   0.574   3.146   2.417 -0.0177  0.4495 -2.6427
   45MOL   C62635034   1.248   3.435   2.052  0.0323 -0.1894  0.4035
   45MOL   C62735035   1.226   3.318   1.953  0.3110  0.2286 -0.0637
   45MOL   C62835036   1.261   3.188   2.028 -0.3650 -0.3935 -0.4048
   45MOL   C62935037   1.212   3.061   1.955  0.7548  0.8064  0.1535
   45MOL   O63035038   1.068   3.059   1.938  0.6204  0.0725 -0.2286
   45MOL   C63135039   1.407   3.188   2.073 -0.0106 -0.4140 -0.0784
   45MOL   C63235040   1.451   3.321   2.145  0.3799  0.0585  0.6984
   45MOL   C63335041   1.400   3.451   2.086 -0.1625  0.5504 -0.0870
   45MOL   C63435042   1.423   3.564   2.192 -0.4932 -1.4435 -0.9131
   45MOL   O63535043   1.361   3.688   2.164  0.1178  0.5062  0.0561
   45MOL   C63635044   1.365   3.784   2.264  0.5869  0.0216 -0.2905
   45MOL   O63735045   1.438   3.773   2.359 -0.3580 -0.5700 -0.0415
   45MOL   C63835046   1.272   3.900   2.237 -0.3367 -1.0010 -0.5672
   45MOL   C63935047   1.275   4.008   2.323 -0.1098 -0.4438  0.1588
   45MOL   C64035048   1.184   4.116   2.298 -0.2049  0.5043 -0.2040
   45MOL   C64135049   1.098   4.119   2.181  0.0493 -0.1368  0.6408
   45MOL   C64235050   1.018   4.236   2.143 -0.4491 -0.2819  0.3079
   45MOL   O64335051   1.035   4.346   2.190  0.1073 -0.0903  0.1061
   45MOL   O64435052   0.933   4.216   2.040  0.7632  1.0014 -0.0597
   45MOL   C64535053   1.104   4.012   2.097 -0.0172 -0.2161  1.0905
   45MOL   C64635054   1.194   3.907   2.122 -0.4876 -0.4244 -0.3283
   45MOL   H64735055   1.214   3.530   2.012 -0.7530 -1.2835 -1.6145
   45MOL   H64835056   1.190   3.421   2.143  0.4157  0.4053  0.7440
   45MOL   H64935057   1.121   3.326   1.924  0.3755  2.1232  0.1224
   45MOL   H65035058   1.290   3.315   1.865  0.4676  0.2457  0.0500
   45MOL   H65135059   1.211   3.189   2.125  1.7602 -2.7297  0.7356
   45MOL   H65235060   1.264   3.039   1.862  0.4339 -0.0575  0.1737
   45MOL   H65335061   1.236   2.978   2.021  1.4793  0.5277 -0.4546
   45MOL   H65435062   1.419   3.105   2.143  1.4246  0.6782  1.0059
   45MOL   H65535063   1.472   3.164   1.989 -1.3454  1.9132 -1.8067
   45MOL   H65635064   1.559   3.319   2.147  0.3714  0.5358  1.5728
   45MOL   H65735065   1.413   3.320   2.247  0.3601 -0.7403  0.6906
   45MOL   H65835066   1.443   3.483   1.991 -1.2513 -3.1015 -1.9118
   45MOL   H65935067   1.391   3.534   2.292  0.1049  0.0827 -0.2516
   45MOL   H66035068   1.530   3.581   2.205 -0.8944  1.0743 -0.7320
   45MOL   H66135069   1.345   4.012   2.406 -0.9926 -1.5030  0.9606
   45MOL   H66235070   1.172   4.208   2.353 -0.3818  0.8134 -0.7570
   45MOL   H66335071   1.039   4.011   2.010  0.8608 -0.7071  0.4311
   45MOL   H66435072   1.183   3.830   2.046 -1.2175 -0.2884 -0.3629
   45MOL   C66535073   0.800   4.312   1.605  0.1601 -0.1046  0.0833
   45MOL   C66635074   0.842   4.310   1.750  0.1347  0.4716  0.9255
   45MOL   C66735075   0.781   4.423   1.829 -0.0509 -0.2564  0.3296
   45MOL   C66835076   0.839   4.421   1.972 -0.6378 -1.1066 -0.2956
   45MOL   O66935077   0.808   4.307   2.043 -0.6006  0.2533 -0.3194
   45MOL   C67035078   0.797   4.556   1.758 -0.0989 -1.0866 -0.9462
   45MOL   C67135079   0.745   4.553   1.614  0.0847  0.6531 -0.1053
   45MOL   C67235080   0.822   4.446   1.532  0.5232  0.3945  0.7405
   45MOL   C67335081   0.769   4.440   1.383  0.2232  0.0492 -0.4371
   45MOL   O67435082   0.725   4.576   1.341  0.1242  0.2141  0.1607
   45MOL   C67535083   0.805   4.655   1.268  0.9599  0.7408  0.0905
   45MOL   O67635084   0.923   4.630   1.241 -0.1389  0.2036 -0.1182
   45MOL   C67735085   0.731   4.780   1.230  0.2170 -0.0233  0.5444
   45MOL   C67835086   0.793   4.872   1.142  0.8368 -0.2432 -0.3620
   45MOL   C67935087   0.738   4.996   1.115 -0.2255 -0.7353 -0.6025
   45MOL   C68035088   0.617   5.035   1.176  0.3539  0.4620  1.1102
   45MOL   C68135089   0.550   5.173   1.153  0.1179 -0.3326 -0.5785
   45MOL   O68235090   0.451   5.207   1.214  0.0531 -0.1385 -0.2679
   45MOL   O68335091   0.616   5.246   1.058 -0.4955  0.1801  0.3504
   45MOL   C68435092   0.553   4.945   1.260  0.5514  0.2315  0.1513
   45MOL   C68535093   0.611   4.824   1.291 -0.1549  0.4975  0.2095
   45MOL   H68635094   0.849   4.232   1.550  0.3048 -1.1717  1.7064
   45MOL   H68735095   0.695   4.288   1.591  0.0571 -0.8597  1.9413
   45MOL   H68835096   0.807   4.214   1.787 -0.1410 -0.1324 -0.8284
   45MOL   H68935097   0.948   4.322   1.773  0.3472  1.4216 -0.4313
   45MOL   H69035098   0.672   4.423   1.835 -0.4146  0.4024 -4.4416
   45MOL   H69135099   0.946   4.440   1.971 -0.5077 -1.8274 -0.2306
   45MOL   H69235100   0.804   4.510   2.024  0.1529  0.4513 -2.3650
   45MOL   H69335101   0.748   4.630   1.821  2.3901 -1.0430  1.0088
   45MOL   H69435102   0.902   4.585   1.766  0.0961 -2.3244  1.5955
   45MOL   H69535103   0.765   4.651   1.570  0.9750  0.2854 -0.5426
   45MOL   H69635104   0.637   4.542   1.620  0.0045  1.0369 -0.6988
   45MOL   H69735105   0.922   4.486   1.520  0.5956  0.0536  0.2051
   45MOL   H69835106   0.842   4.405   1.310  1.3268  0.9521  0.2060
   45MOL   H69935107   0.686   4.371   1.388  1.0436 -0.9469 -0.4967
   45MOL   H70035108   0.891   4.849   1.103 -0.8769 -2.8548 -3.3484
   45MOL   H70135109   0.788   5.063   1.046 -0.9084 -0.0746 -0.4658
   45MOL   H70235110   0.459   4.966   1.309  0.4934 -0.6815  0.4553
   45MOL   H70335111   0.570   4.766   1.372 -0.0099  0.1885  0.0632
   45MOL   C70435112   0.693   5.782   1.367 -0.1455 -0.6257  0.0047
   45MOL   C70535113   0.733   5.665   1.271  0.8888  0.2370 -0.9249
   45MOL   C70635114   0.610   5.599   1.194  1.6106 -0.1727 -0.1181
   45MOL   C70735115   0.658   5.467   1.140  0.3517  0.1944 -0.6441
   45MOL   O70835116   0.574   5.396   1.050 -0.7711  0.5417  0.4937
   45MOL   C70935117   0.489   5.574   1.288  0.3572 -0.0359  0.3458
   45MOL   C71035118   0.455   5.702   1.374  0.4732 -0.2649  0.9940
   45MOL   C71135119   0.579   5.740   1.461  0.9662  0.0775  0.4339
   45MOL   C71235120   0.555   5.844   1.568 -0.3049 -0.3778  0.8601
   45MOL   O71335121   0.502   5.955   1.500  0.2392  0.4116 -0.0392
   45MOL   C71435122   0.422   6.053   1.562 -0.3412 -0.1706 -0.0363
   45MOL   O71535123   0.411   6.057   1.683  0.0265  0.0490 -0.8456
   45MOL   C71635124   0.357   6.145   1.455  0.2923  0.5437  0.0272
   45MOL   C71735125   0.400   6.129   1.317 -0.5541  0.2678 -0.1584
   45MOL   C71835126   0.335   6.210   1.217 -0.8609 -0.3798 -0.1296
   45MOL   C71935127   0.231   6.302   1.251  0.4201 -0.3176 -0.2388
   45MOL   C72035128   0.173   6.386   1.136 -0.2343 -0.0327 -0.1544
   45MOL   O72135129   0.199   6.361   1.017 -0.8631  0.1342 -0.7366
   45MOL   O72235130   0.101   6.489   1.190  0.1250  0.1413  0.1230
   45MOL   C72335131   0.183   6.310   1.381  0.1751  0.2707 -0.1040
   45MOL   C72435132   0.250   6.237   1.483  0.2061  0.3586 -0.0695
   45MOL   H72535133   0.775   5.816   1.431 -1.2904  1.4606  0.4293
   45MOL   H72635134   0.651   5.861   1.304  1.0596 -0.1954 -0.2619
   45MOL   H72735135   0.814   5.693   1.204  1.0435 -0.5614 -1.0812
   45MOL   H72835136   0.788   5.596   1.335  1.9589 -0.5591 -2.6560
   45MOL   H72935137   0.580   5.675   1.121  0.3156 -1.5947 -1.1138
   45MOL   H73035138   0.757   5.472   1.095  0.8433  0.0608  0.4106
   45MOL   H73135139   0.674   5.397   1.222 -2.2935 -0.0190 -0.2641
   45MOL   H73235140   0.400   5.546   1.232  1.1361 -1.1563 -0.3755
   45MOL   H73335141   0.510   5.482   1.343  0.0236 -1.0778 -1.2243
   45MOL   H73435142   0.384   5.675   1.452  0.6639 -1.7972  0.6585
   45MOL   H73535143   0.417   5.785   1.314  1.5604  0.0501  0.7370
   45MOL   H73635144   0.612   5.659   1.525 -1.2247  1.0722  2.9035
   45MOL   H73735145   0.495   5.809   1.652  0.7916 -1.4294  1.2190
   45MOL   H73835146   0.650   5.869   1.614  0.7137  0.9652 -1.8561
   45MOL   H73935147   0.485   6.068   1.291 -1.6947 -0.7311 -1.6732
   45MOL   H74035148   0.383   6.215   1.120 -0.1956 -0.9667  0.1701
   45MOL   H74135149   0.099   6.372   1.409  0.5897 -0.7746  3.7663
   45MOL   H74235150   0.213   6.228   1.584  1.6419  0.9580  0.5085
   45MOL   C74335151   0.070   7.034   0.921 -0.8472 -0.6301 -0.0889
   45MOL   C74435152   0.140   6.930   1.017  0.2605 -0.4536  0.0565
   45MOL   C74535153   0.048   6.810   1.032  0.0276 -0.6895  0.7185
   45MOL   C74635154   0.115   6.693   1.093  0.3600 -0.1041 -0.5091
   45MOL   O74735155   0.044   6.575   1.089 -0.0463  0.5453  0.2832
   45MOL   C74835156   7.959   6.861   1.111 -0.5554  0.8116 -0.3641
   45MOL   C74935157   7.882   6.975   1.037 -0.1948  0.5647 -0.0464
   45MOL   C75035158   7.981   7.088   0.987 -0.4544  0.8378  0.2375
   45MOL   C75135159   7.915   7.200   0.896 -0.8620  0.0989 -0.5498
   45MOL   O75235160   7.842   7.145   0.790 -0.2049  0.1982  0.6521
   45MOL   C75335161   7.713   7.166   0.784  1.0132 -0.0656  0.2278
   45MOL   O75435162   7.656   7.246   0.859 -0.6593 -0.5179  0.1830
   45MOL   C75535163   7.648   7.093   0.672  0.6356  0.0638 -0.1657
   45MOL   C75635164   7.513   7.054   0.671 -0.1688 -0.4547  0.1842
   45MOL   C75735165   7.459   6.988   0.563 -0.0369 -0.1764 -0.3761
   45MOL   C75835166   7.533   6.935   0.458  0.5871 -0.0697 -0.2928
   45MOL   C75935167   7.465   6.856   0.346 -0.1361  0.2960 -0.2177
   45MOL   O76035168   7.349   6.820   0.359 -0.2654 -0.0707 -0.0018
   45MOL   O76135169   7.547   6.838   0.239 -0.0771  0.1978 -0.1997
   45MOL   C76235170   7.669   6.971   0.455 -0.1442  0.4483 -0.1801
   45MOL   C76335171   7.723   7.054   0.558 -0.2385  0.3979 -0.6093
   45MOL   H76435172   0.133   7.122   0.905 -1.7899 -0.3112 -2.1408
   45MOL   H76535173   0.048   7.012   0.817 -1.1854 -2.7570  0.4252
   45MOL   H76635174   0.233   6.894   0.972 -0.5700 -1.1663 -1.1124
   45MOL   H76735175   0.164   6.974   1.113  0.5074 -0.1566 -0.1425
   45MOL   H76835176   0.016   6.788   0.930  1.3572  3.7220 -0.7841
   45MOL   H76935177   0.211   6.679   1.044 -0.4022 -0.3486 -1.9431
   45MOL   H77035178   0.139   6.718   1.197  2.1964  1.1970 -1.2131
   45MOL   H77135179   7.899   6.771   1.127  0.0335  0.1161 -1.9366
   45MOL   H77235180   7.990   6.886   1.212 -0.4780  0.5724 -0.3288
   45MOL   H77335181   7.804   7.017   1.101  0.9242 -0.2286  1.8653
   45MOL   H77435182   7.832   6.928   0.952  1.4035 -0.6356 -0.3459
   45MOL   H77535183   8.027   7.130   1.076 -1.5221  0.0211  1.1876
   45MOL   H77635184   7.859   7.278   0.946  0.4680  2.9065 -3.2958
   45MOL   H77735185   7.986   7.268   0.849 -0.9543  0.9848  0.5855
   45MOL   H77835186   7.442   7.086   0.746  0.3528  0.2807  0.3695
   45MOL   H77935187   7.356   6.958   0.562  0.6248 -2.5537  0.5235
   45MOL   H78035188   7.728   6.937   0.371 -0.4851  0.5305 -0.4561
   45MOL   H78135189   7.828   7.077   0.554  0.1359 -1.1355 -0.1775
   45MOL   H78235190   7.507   6.793   0.166  2.0684 -3.2592  0.6359
   46MOL     C135191   1.378   5.720   4.739  0.6010 -0.2013 -0.2088
   46MOL     C235192   1.314   5.819   4.843  0.0249  0.0849  0.5746
   46MOL     C335193   1.255   5.760   4.961  0.3779  0.2902 -0.4558
   46MOL     C435194   1.196   5.865   5.056 -0.0099 -0.0151  0.0071
   46MOL     O535195   1.293   5.954   5.106 -0.7168  0.8793  0.3058
   46MOL     C635196   1.136   5.672   4.905  0.3316 -0.7483  0.5597
   46MOL     C735197   1.193   5.564   4.818  0.1110  0.2999  0.2602
   46MOL     C835198   1.268   5.621   4.691 -0.2240 -0.7139 -0.3499
   46MOL     C935199   1.331   5.514   4.600 -0.3375  0.0370  0.2462
   46MOL    O1035200   1.424   5.439   4.680  0.4554  0.1245 -0.2960
   46MOL    C1135201   1.450   5.309   4.642  0.2343  0.0200  0.4966
   46MOL    O1235202   1.409   5.256   4.536 -0.1173  0.6562  0.4638
   46MOL    C1335203   1.538   5.241   4.735  0.3870 -0.2405 -0.2410
   46MOL    C1435204   1.622   5.307   4.823 -0.3320  0.0439  0.0702
   46MOL    C1535205   1.717   5.241   4.904  0.4595  0.6229 -0.1013
   46MOL    C1635206   1.716   5.100   4.906  0.4491 -0.0799 -0.1261
   46MOL    C1735207   1.799   5.022   4.997 -0.9281  0.0591  0.1434
   46MOL    O1835208   1.797   4.899   5.001  0.3419 -0.1068  0.5222
   46MOL    O1935209   1.872   5.102   5.080  0.1635 -0.0572 -0.1436
   46MOL    C2035210   1.629   5.031   4.822 -0.5092  0.0692  0.0893
   46MOL    C2135211   1.541   5.098   4.737 -0.0350 -0.7425 -0.8417
   46MOL    H2235212   1.415   5.783   4.659  1.9979  0.4104  0.9055
   46MOL    H2335213   1.471   5.679   4.778  2.0003  2.0419 -1.0916
   46MOL    H2435214   1.395   5.882   4.879 -0.2732  0.2915  0.8896
   46MOL    H2535215   1.242   5.885   4.795 -0.7607 -1.3509 -0.2640
   46MOL    H2635216   1.331   5.711   5.022  0.7937  3.0312  1.3147
   46MOL    H2735217   1.116   5.928   5.016 -1.3175 -1.2306  0.6731
   46MOL    H2835218   1.157   5.804   5.138  0.9559 -0.9947 -0.2492
   46MOL    H2935219   1.085   5.624   4.989 -1.2735  1.6925  1.0435
   46MOL    H3035220   1.063   5.726   4.846  0.4645 -0.5213  0.6037
   46MOL    H3135221   1.118   5.493   4.785  0.5534 -1.1558  2.3168
   46MOL    H3235222   1.261   5.504   4.879  2.4070  2.5064 -0.0258
   46MOL    H3335223   1.197   5.683   4.638 -1.0734 -0.3819  1.1439
   46MOL    H3435224   1.256   5.441   4.571 -1.2429  0.9067  0.4013
   46MOL    H3535225   1.374   5.562   4.512  0.2363  0.3774  0.7126
   46MOL    H3635226   1.622   5.415   4.827  1.3346  0.0849 -0.7470
   46MOL    H3735227   1.769   5.314   4.964  1.9055 -0.4287 -0.0606
   46MOL    H3835228   1.629   4.923   4.829  1.4165  0.1212  0.9837
   46MOL    H3935229   1.467   5.048   4.677 -0.8997 -1.4102  0.7493
   46MOL    H4035230   1.376   5.910   5.100 -1.6861 -1.4156  2.4867
   46MOL    C4135231   1.907   5.319   5.500  0.3224 -0.0613  0.8626
   46MOL    C4235232   1.958   5.206   5.403 -0.2151  0.4684  0.4536
   46MOL    C4335233   1.838   5.109   5.369  0.6014  0.0377 -0.1835
   46MOL    C4435234   1.867   4.980   5.287  0.5274 -0.0530  0.5769
   46MOL    O4535235   1.941   5.018   5.177  0.3249  0.4633 -0.0443
   46MOL    C4635236   1.763   5.064   5.497  0.2963 -0.1003 -1.0638
   46MOL    C4735237   1.714   5.182   5.576  0.3498  0.4742 -0.2677
   46MOL    C4835238   1.827   5.277   5.621 -0.7921  0.0607  0.1926
   46MOL    C4935239   1.771   5.390   5.700 -0.4324 -0.2588 -0.2719
   46MOL    O5035240   1.687   5.342   5.806 -0.0598 -0.1493  0.8094
   46MOL    C5135241   1.558   5.387   5.807 -0.6177  0.6876  0.0948
   46MOL    O5235242   1.524   5.485   5.753  0.0228  0.3405 -0.5855
   46MOL    C5335243   1.470   5.309   5.897 -0.3542  0.3712  0.3530
   46MOL    C5435244   1.330   5.345   5.904 -0.0069  0.1910  0.6238
   46MOL    C5535245   1.234   5.263   5.973 -0.1862  0.7672 -0.4172
   46MOL    C5635246   1.286   5.157   6.052 -0.2161 -0.2368  0.7298
   46MOL    C5735247   1.187   5.091   6.146 -0.1301  0.3992 -0.9421
   46MOL    O5835248   1.099   5.153   6.211 -0.6318 -0.3285 -0.3963
   46MOL    O5935249   1.210   4.968   6.159 -0.2923 -0.0992 -0.0132
   46MOL    C6035250   1.421   5.124   6.047 -0.2502 -0.2504  0.0594
   46MOL    C6135251   1.510   5.188   5.964 -0.2416 -0.2997 -0.5138
   46MOL    H6235252   1.991   5.386   5.516  0.8343 -0.6426  0.6031
   46MOL    H6335253   1.836   5.371   5.435  1.6161  2.4615  1.4323
   46MOL    H6435254   2.007   5.245   5.314 -2.8854  0.2457 -1.1736
   46MOL    H6535255   2.029   5.140   5.454 -3.6016 -0.8465  3.7558
   46MOL    H6635256   1.776   5.180   5.315  2.3796  1.5491 -0.2768
   46MOL    H6735257   1.906   4.898   5.347 -0.0939 -2.7605 -2.5498
   46MOL    H6835258   1.776   4.932   5.251  0.8344  0.2096 -0.5725
   46MOL    H6935259   1.680   4.998   5.473 -0.8449  0.4133  1.3372
   46MOL    H7035260   1.822   4.999   5.561 -1.3258 -0.9021 -0.3576
   46MOL    H7135261   1.656   5.146   5.660 -0.8523  1.0222 -0.8478
   46MOL    H7235262   1.642   5.242   5.520  0.8544  0.0930 -1.3504
   46MOL    H7335263   1.885   5.214   5.689  0.4740 -1.2570 -2.0721
   46MOL    H7435264   1.842   5.456   5.749  1.7026 -0.7480 -2.5859
   46MOL    H7535265   1.720   5.459   5.633 -2.2066  0.0836  1.4148
   46MOL    H7635266   1.303   5.435   5.850  0.9074  0.2026  0.1636
   46MOL    H7735267   1.129   5.288   5.973 -0.1272  1.0399 -1.4837
   46MOL    H7835268   1.458   5.030   6.086 -0.6434 -0.2616  0.4107
   46MOL    H7935269   1.605   5.145   5.936 -0.0702 -0.5597  0.4381
   46MOL    C8035270   1.002   4.739   6.703  0.0372 -0.1079 -1.5931
   46MOL    C8135271   1.075   4.837   6.616 -0.1944  0.2127  0.3402
   46MOL    C8235272   1.059   4.809   6.466 -0.0517 -0.3774 -0.3914
   46MOL    C8335273   1.141   4.910   6.386 -0.0012  0.0588 -0.1527
   46MOL    O8435274   1.100   4.906   6.247  0.1607 -0.0368 -0.5497
   46MOL    C8535275   1.100   4.666   6.432 -0.0991  0.4841  0.6695
   46MOL    C8635276   1.008   4.570   6.514 -0.0559  0.4757  0.1201
   46MOL    C8735277   1.024   4.601   6.666  0.3561 -0.2116  0.4624
   46MOL    C8835278   0.936   4.513   6.761  0.0424 -0.1435  0.3541
   46MOL    O8935279   0.799   4.544   6.751  0.3098  0.1346  0.1603
   46MOL    C9035280   0.723   4.515   6.866  0.4911  0.1351 -0.1244
   46MOL    O9135281   0.772   4.470   6.971 -0.5238  0.0120 -0.2411
   46MOL    C9235282   0.578   4.542   6.852 -0.3502 -0.0933 -0.1748
   46MOL    C9335283   0.493   4.528   6.959  0.2175  0.1468 -0.0917
   46MOL    C9435284   0.356   4.556   6.956  0.0992 -0.4166 -0.9211
   46MOL    C9535285   0.304   4.622   6.843 -0.3601  0.5953 -0.3039
   46MOL    C9635286   0.158   4.636   6.833 -0.2589  0.1348  0.3373
   46MOL    O9735287   0.090   4.671   6.925 -0.1611 -0.1470 -0.0384
   46MOL    O9835288   0.110   4.618   6.707 -0.0210 -0.0380  0.2309
   46MOL    C9935289   0.390   4.654   6.734 -0.0789  0.3163  0.5750
   46MOL   C10035290   0.526   4.613   6.741 -0.0517 -0.2504  0.0560
   46MOL   H10135291   1.044   4.757   6.802 -0.7489 -2.3871 -0.8167
   46MOL   H10235292   0.896   4.761   6.711  0.2087  0.7809 -1.6837
   46MOL   H10335293   1.040   4.939   6.637  0.7612  0.5165  0.4738
   46MOL   H10435294   1.182   4.851   6.635 -0.3243  3.2861 -0.8264
   46MOL   H10535295   0.954   4.808   6.438 -0.1538  0.7089 -0.0712
   46MOL   H10635296   1.113   5.011   6.418 -0.6496 -0.1272 -0.1418
   46MOL   H10735297   1.246   4.887   6.402  0.3662  2.1106  0.6531
   46MOL   H10835298   1.106   4.642   6.326 -1.7680 -1.4977  0.9835
   46MOL   H10935299   1.200   4.653   6.472  0.5742  1.1914 -0.7393
   46MOL   H11035300   1.038   4.465   6.504  2.0730  0.9786  0.8990
   46MOL   H11135301   0.902   4.573   6.490 -0.0830  0.0406  0.1865
   46MOL   H11235302   1.124   4.570   6.695 -0.9957 -3.6811  1.6976
   46MOL   H11335303   0.946   4.407   6.737 -0.7981  0.1546 -1.4071
   46MOL   H11435304   0.968   4.514   6.865 -1.2757  0.1645  0.7634
   46MOL   H11535305   0.530   4.480   7.049 -0.8218 -1.6864 -0.6129
   46MOL   H11635306   0.287   4.542   7.037 -0.3873  2.3716 -0.8070
   46MOL   H11735307   0.343   4.697   6.646  3.3441  1.9456 -0.5411
   46MOL   H11835308   0.599   4.641   6.666 -0.1334  3.3525  1.2243
   46MOL   C11935309   7.748   4.925   6.345  0.6200 -0.2874 -1.1826
   46MOL   C12035310   7.864   4.910   6.441 -0.1859 -0.2024  0.4602
   46MOL   C12135311   7.885   4.764   6.508  0.6495  0.1052 -0.3238
   46MOL   C12235312   7.970   4.775   6.636 -0.3366  0.5534 -0.2455
   46MOL   O12335313   7.995   4.643   6.686  0.1759  0.2014  0.1838
   46MOL   C12435314   7.748   4.704   6.537  0.1057  0.5643  0.4700
   46MOL   C12535315   7.644   4.708   6.422  1.0169  0.7970 -0.0810
   46MOL   C12635316   7.615   4.853   6.395  0.5186 -0.5032  0.2614
   46MOL   C12735317   7.495   4.842   6.294 -0.2255 -0.1246  0.3115
   46MOL   O12835318   7.537   4.782   6.170  0.3070  0.3173 -0.3451
   46MOL   C12935319   7.461   4.696   6.114 -0.0513  1.0074  0.1906
   46MOL   O13035320   7.335   4.682   6.145  0.3304  0.0677 -0.2036
   46MOL   C13135321   7.545   4.604   6.033 -0.3323  0.7319  0.4129
   46MOL   C13235322   7.672   4.635   5.991  1.7529  0.1913  0.0969
   46MOL   C13335323   7.742   4.546   5.910 -0.1289  0.8854 -0.0556
   46MOL   C13435324   7.689   4.424   5.860 -0.2969  0.4962  0.4168
   46MOL   C13535325   7.753   4.344   5.755 -0.3828  0.4112 -0.0964
   46MOL   O13635326   7.741   4.222   5.744  0.5127  0.2608 -0.0755
   46MOL   O13735327   7.836   4.419   5.669 -0.6511 -0.0954 -0.2651
   46MOL   C13835328   7.564   4.387   5.914  0.2747 -0.4717  0.5299
   46MOL   C13935329   7.493   4.481   5.995 -0.0406  0.0386  0.4595
   46MOL   H14035330   7.724   5.029   6.324 -0.1632 -0.0784  0.6710
   46MOL   H14135331   7.775   4.883   6.248  1.2581  0.9210 -1.5317
   46MOL   H14235332   7.949   4.941   6.380 -0.9726  0.2559 -0.4044
   46MOL   H14335333   7.843   4.976   6.525  0.5602 -0.1681  0.6273
   46MOL   H14435334   7.938   4.694   6.443  0.2639 -0.2069 -0.3021
   46MOL   H14535335   0.033   4.817   6.615 -1.0735  2.0885 -0.6932
   46MOL   H14635336   7.915   4.836   6.707 -2.6505 -1.8461  0.0797
   46MOL   H14735337   7.749   4.604   6.580  0.1319  0.2966 -0.1501
   46MOL   H14835338   7.717   4.756   6.628 -0.0908  0.1114  0.6642
   46MOL   H14935339   7.551   4.663   6.456  1.2013 -0.3576 -1.0682
   46MOL   H15035340   7.689   4.649   6.342  3.1979  2.1079  0.1398
   46MOL   H15135341   7.577   4.902   6.485 -1.3367 -0.9979 -0.2490
   46MOL   H15235342   7.415   4.787   6.345  1.4784 -1.4583  1.5918
   46MOL   H15335343   7.453   4.942   6.284  1.8844  0.8200  0.7005
   46MOL   H15435344   7.714   4.731   6.015  2.2445  0.2577 -1.0414
   46MOL   H15535345   7.837   4.576   5.866  0.2847 -0.4549 -0.1076
   46MOL   H15635346   7.525   4.291   5.882 -0.6105 -0.1534  0.6429
   46MOL   H15735347   7.393   4.454   6.025 -0.0026 -0.6027  0.0180
   46MOL   C15835348   0.151   4.589   5.340  0.9465  0.0875  0.9105
   46MOL   C15935349   0.055   4.479   5.394 -0.1752 -0.0497  0.2228
   46MOL   C16035350   0.076   4.443   5.539 -0.5602  0.2027 -0.0495
   46MOL   C16135351   8.028   4.320   5.575 -0.2289 -0.0109 -0.7180
   46MOL   O16235352   7.888   4.336   5.563 -0.2738 -0.9496 -0.1372
   46MOL   C16335353   0.226   4.427   5.571 -0.2819 -0.5019  0.3352
   46MOL   C16435354   0.311   4.543   5.522  0.0756  0.4837 -0.3602
   46MOL   C16535355   0.299   4.548   5.371 -0.5363 -0.4003 -0.2404
   46MOL   C16635356   0.405   4.641   5.315  0.0563 -0.6866 -0.4454
   46MOL   O16735357   0.378   4.664   5.181  0.5369  0.6729 -0.3561
   46MOL   C16835358   0.328   4.782   5.141  0.3632  0.2988  0.1128
   46MOL   O16935359   0.323   4.879   5.217 -0.0120 -0.0232  0.1609
   46MOL   C17035360   0.280   4.781   5.008  0.5360  0.4913  0.3080
   46MOL   C17135361   0.269   4.656   4.938  0.5705 -0.7434  0.2088
   46MOL   C17235362   0.230   4.660   4.802 -0.0564  0.0090  0.3245
   46MOL   C17335363   0.189   4.780   4.736 -0.0841 -0.5190  0.0945
   46MOL   C17435364   0.141   4.796   4.590 -0.6537 -0.0896 -0.2486
   46MOL   O17535365   0.142   4.903   4.527 -0.0415 -0.2977 -0.0919
   46MOL   O17635366   0.134   4.671   4.525  0.2798 -0.0484  0.2299
   46MOL   C17735367   0.204   4.900   4.803  0.1856  0.3862 -0.7459
   46MOL   C17835368   0.251   4.903   4.940  1.0305  0.5703 -0.0199
   46MOL   H17935369   0.125   4.601   5.235 -0.1104  1.0006  1.2724
   46MOL   H18035370   0.112   4.682   5.382  0.7880 -0.0691  1.1094
   46MOL   H18135371   7.986   4.507   5.385  0.1166  0.9381 -0.2739
   46MOL   H18235372   0.064   4.387   5.337  0.5256 -0.3798  0.8521
   46MOL   H18335373   0.048   4.535   5.591  0.4517 -0.7707  2.3159
   46MOL   H18435374   0.022   4.235   5.514 -0.1937 -0.4377 -0.1006
   46MOL   H18535375   8.034   4.286   5.678 -1.6636 -0.7548 -0.8646
   46MOL   H18635376   0.243   4.410   5.678 -0.4055 -2.2032  0.0976
   46MOL   H18735377   0.256   4.337   5.516  1.5629 -1.0112  2.1239
   46MOL   H18835378   0.417   4.539   5.547 -0.1946  1.0055  0.9527
   46MOL   H18935379   0.275   4.634   5.569 -1.4471 -0.5063  0.4075
   46MOL   H19035380   0.313   4.454   5.318 -0.2624 -0.3762 -0.2097
   46MOL   H19135381   0.422   4.731   5.373 -1.0271  0.1806 -1.4546
   46MOL   H19235382   0.501   4.589   5.324 -0.1050 -0.6230  2.0928
   46MOL   H19335383   0.297   4.562   4.982 -0.8477 -1.2109  0.1294
   46MOL   H19435384   0.225   4.565   4.750  0.2318  1.1233 -1.8113
   46MOL   H19535385   0.179   4.998   4.765 -1.0772  0.6913  0.8041
   46MOL   H19635386   0.264   5.000   4.986 -1.6256  1.1300 -0.3668
   46MOL   C19735387   0.097   4.876   3.974 -0.2355  0.0653  0.2406
   46MOL   C19835388   0.079   4.851   4.126  0.5364  0.2956 -0.2188
   46MOL   C19935389   0.036   4.709   4.153 -0.3410  0.8769  0.1771
   46MOL   C20035390   0.030   4.671   4.310  0.1682  0.3852 -0.2440
   46MOL   O20135391   0.157   4.669   4.375  0.9753 -0.0160  0.2869
   46MOL   C20235392   7.942   4.680   4.074  0.0474 -0.5449 -0.4882
   46MOL   C20335393   7.944   4.714   3.925  0.0742  0.0848 -0.3742
   46MOL   C20435394   7.998   4.861   3.901  0.5913  0.2520  0.1982
   46MOL   C20535395   8.002   4.923   3.761 -0.1164 -0.2914 -0.1905
   46MOL   O20635396   0.058   4.855   3.673 -0.2544 -0.8933  0.0752
   46MOL   C20735397   0.004   4.769   3.589  0.0142  0.6093  0.1830
   46MOL   O20835398   7.921   4.735   3.592  0.0340 -0.3639 -0.1072
   46MOL   C20935399   0.086   4.741   3.470 -0.5267  0.7366 -0.9953
   46MOL   C21035400   0.216   4.797   3.461 -0.5349  0.2079  0.1643
   46MOL   C21135401   0.308   4.762   3.363  0.2784  0.7928  0.3477
   46MOL   C21235402   0.263   4.690   3.249  0.6754 -0.4683  0.6378
   46MOL   C21335403   0.351   4.652   3.133 -0.4644 -0.2440 -0.2995
   46MOL   O21435404   0.311   4.629   3.021 -0.4447  0.5026  0.2262
   46MOL   O21535405   0.481   4.656   3.166 -0.6135 -0.2513 -0.2685
   46MOL   C21635406   0.127   4.646   3.247 -0.1112 -0.1960 -0.4604
   46MOL   C21735407   0.044   4.665   3.358  0.8546 -0.1551  0.0825
   46MOL   H21835408   0.146   4.973   3.964 -0.5752  0.2237  0.1169
   46MOL   H21935409   0.172   4.806   3.938  1.4790  1.4243  1.0799
   46MOL   H22035410   0.171   4.882   4.175 -0.1186 -0.0602  1.2596
   46MOL   H22135411   0.009   4.925   4.166  3.4640  2.7551  0.5184
   46MOL   H22235412   0.115   4.650   4.107 -1.6536 -0.0207 -0.9585
   46MOL   H22335413   8.008   4.750   4.358 -0.5036  0.2756 -0.8595
   46MOL   H22435414   7.996   4.588   4.313  1.3210 -0.6607 -1.6539
   46MOL   H22535415   7.915   4.575   4.087 -0.2032 -0.1812  2.2287
   46MOL   H22635416   7.861   4.726   4.131 -1.1625 -1.0839 -1.7493
   46MOL   H22735417   7.843   4.704   3.885  0.1706 -1.0373 -0.3652
   46MOL   H22835418   8.009   4.645   3.871  3.4016  1.5628  1.5844
   46MOL   H22935419   7.925   4.922   3.954  0.7226  0.7703 -0.2163
   46MOL   H23035420   7.901   4.916   3.722 -0.2592 -0.9294  0.2710
   46MOL   H23135421   8.030   5.028   3.775  2.1345 -0.9155  0.2935
   46MOL   H23235422   0.252   4.862   3.538 -0.8962 -0.1510  0.6409
   46MOL   H23335423   0.405   4.809   3.379 -0.6633  2.3218  1.7385
   46MOL   H23435424   0.087   4.596   3.160  2.2154  0.5613 -1.9854
   46MOL   H23535425   7.981   4.622   3.356  1.4068 -1.3453 -2.3800
   46MOL   C23635426   0.924   4.287   3.153  0.0649  0.3720 -0.4933
   46MOL   C23735427   0.798   4.334   3.076  0.2575 -0.5057  0.6770
   46MOL   C23835428   0.750   4.477   3.112 -0.7664 -0.9666 -0.1696
   46MOL   C23935429   0.619   4.508   3.038 -0.0838  0.0287  0.1096
   46MOL   O24035430   0.571   4.641   3.046  0.2108 -0.5738  0.2998
   46MOL   C24135431   0.744   4.496   3.266  0.5488  0.3350 -0.4230
   46MOL   C24235432   0.863   4.444   3.347 -0.0095  0.5437  0.6696
   46MOL   C24335433   0.893   4.293   3.299 -0.1547  0.2784  0.7087
   46MOL   C24435434   1.005   4.220   3.384 -0.2226  0.2546 -0.1213
   46MOL   O24535435   0.968   4.195   3.515  0.1961  0.8140 -0.1253
   46MOL   C24635436   1.008   4.292   3.602  0.2046 -0.0034 -0.0007
   46MOL   O24735437   1.085   4.380   3.573 -0.2677 -0.0779  0.0013
   46MOL   C24835438   0.945   4.274   3.733 -0.0767  0.2570  0.2518
   46MOL   C24935439   0.931   4.389   3.811  0.3347 -0.0959 -0.5019
   46MOL   C25035440   0.854   4.374   3.931  0.0798 -0.8601  0.2459
   46MOL   C25135441   0.808   4.250   3.979 -0.5577  0.2383  0.4917
   46MOL   C25235442   0.738   4.255   4.110  0.1664  0.2271 -0.6250
   46MOL   O25335443   0.724   4.362   4.173 -0.0132 -0.0889 -0.0616
   46MOL   O25435444   0.705   4.139   4.160 -0.0471 -0.1686 -0.3343
   46MOL   C25535445   0.828   4.133   3.901 -0.0774  0.1500  0.1967
   46MOL   C25635446   0.894   4.150   3.778 -0.2689  0.9489 -0.2513
   46MOL   H25735447   0.947   4.187   3.116 -2.4425  0.2349 -1.8089
   46MOL   H25835448   1.015   4.345   3.142  1.1887 -1.6014 -2.1354
   46MOL   H25935449   0.813   4.335   2.968 -1.4571  0.4240  0.4281
   46MOL   H26035450   0.716   4.268   3.105 -0.5618  0.4960  0.6798
   46MOL   H26135451   0.825   4.541   3.066 -1.6320  0.4779  0.3866
   46MOL   H26235452   0.646   4.476   2.937  0.5932 -2.7060  1.0988
   46MOL   H26335453   0.536   4.449   3.078  0.5971 -1.9577 -1.3065
   46MOL   H26435454   0.726   4.600   3.292 -0.2772  0.1185 -0.1110
   46MOL   H26535455   0.657   4.440   3.299  1.1643 -0.2525  0.2241
   46MOL   H26635456   0.837   4.430   3.452  0.2926 -0.1153  0.6616
   46MOL   H26735457   0.948   4.512   3.337 -0.0528  0.8733  2.4711
   46MOL   H26835458   0.806   4.233   3.325 -0.2462 -1.1829 -2.7287
   46MOL   H26935459   0.994   4.120   3.342  1.4554  0.4094 -0.9534
   46MOL   H27035460   1.105   4.255   3.359  0.6573 -1.2591  1.1921
   46MOL   H27135461   0.961   4.488   3.782  3.3826 -1.5571 -2.6035
   46MOL   H27235462   0.841   4.458   3.997  1.5329 -0.7229  0.3686
   46MOL   H27335463   0.801   4.031   3.926  1.6108  0.0414  1.6885
   46MOL   H27435464   0.915   4.064   3.717  0.4967  0.7526  0.2813
   46MOL   C27535465   1.121   4.296   4.487 -0.2801 -0.8638 -0.0849
   46MOL   C27635466   1.010   4.185   4.488  0.9831  0.5677 -0.0071
   46MOL   C27735467   0.880   4.233   4.411  0.1844  0.4907 -0.2931
   46MOL   C27835468   0.770   4.117   4.401  1.4478  0.6297  0.5589
   46MOL   O27935469   0.661   4.143   4.311 -0.8425 -0.2335  0.2775
   46MOL   C28035470   0.830   4.363   4.479 -0.1651 -0.0384 -0.0212
   46MOL   C28135471   0.938   4.470   4.474 -0.0981  0.2191 -0.0370
   46MOL   C28235472   1.071   4.436   4.531  0.3684 -0.7463 -0.7672
   46MOL   C28335473   1.178   4.542   4.506 -0.2053 -0.2463  0.5851
   46MOL   O28435474   1.312   4.527   4.549  0.1694  0.0938  0.0690
   46MOL   C28535475   1.397   4.630   4.528 -0.5055 -0.0443  0.0206
   46MOL   O28635476   1.375   4.725   4.453  0.7722  0.3824  0.3512
   46MOL   C28735477   1.521   4.610   4.608 -0.0806  0.1173 -0.2324
   46MOL   C28835478   1.552   4.484   4.664  0.1022  0.1409  0.7053
   46MOL   C28935479   1.668   4.470   4.746 -0.1059  0.0993  0.1639
   46MOL   C29035480   1.751   4.582   4.770 -0.1540  0.0204 -0.6771
   46MOL   C29135481   1.862   4.563   4.864  0.1915 -0.2573 -0.0048
   46MOL   O29235482   1.872   4.462   4.932  0.0225  0.3643 -0.0027
   46MOL   O29335483   1.960   4.661   4.868 -0.0420  0.0771 -0.1086
   46MOL   C29435484   1.724   4.705   4.709 -0.1092  0.4264  0.3567
   46MOL   C29535485   1.606   4.724   4.630 -0.7189  0.1838  0.5154
   46MOL   H29635486   1.218   4.267   4.528  0.5170  0.1727 -1.1763
   46MOL   H29735487   1.149   4.312   4.382 -1.0731 -1.9597 -0.4665
   46MOL   H29835488   1.058   4.099   4.442  1.8463 -0.1729  2.2236
   46MOL   H29935489   0.982   4.153   4.589 -1.1188 -1.8477 -1.2870
   46MOL   H30035490   0.918   4.265   4.313 -4.2840  1.4292 -1.8440
   46MOL   H30135491   0.810   4.019   4.375 -0.1295  0.2296 -0.4192
   46MOL   H30235492   0.741   4.103   4.505  0.2518 -1.6592 -0.0579
   46MOL   H30335493   0.732   4.384   4.436 -0.5869 -2.0349 -0.1125
   46MOL   H30435494   0.810   4.341   4.584 -0.6354  0.7820  0.0655
   46MOL   H30535495   0.908   4.557   4.532 -1.8443 -1.8411  2.2532
   46MOL   H30635496   0.948   4.521   4.378  2.2959 -0.4088 -0.1579
   46MOL   H30735497   1.058   4.439   4.639  0.0893  0.4844 -0.8271
   46MOL   H30835498   1.165   4.553   4.398 -1.5364 -0.7307  0.6805
   46MOL   H30935499   1.143   4.640   4.538  1.0185 -0.4864  2.7481
   46MOL   H31035500   1.494   4.396   4.641  1.9965 -0.6912 -1.0331
   46MOL   H31135501   1.690   4.371   4.783  0.2213  0.7667  1.8260
   46MOL   H31235502   1.788   4.790   4.728  1.1125 -0.4194  0.1417
   46MOL   H31335503   1.569   4.818   4.593  1.7477 -0.3284 -3.5804
   46MOL   C31435504   2.319   4.636   5.326 -0.2270  0.3657 -0.3664
   46MOL   C31535505   2.249   4.699   5.197 -0.2799 -0.3788 -0.1699
   46MOL   C31635506   2.102   4.658   5.199  0.0571  0.0207 -0.3992
   46MOL   C31735507   2.027   4.718   5.081 -0.1325 -0.1345 -0.2045
   46MOL   O31835508   2.061   4.646   4.969 -0.5560 -1.0494 -0.0744
   46MOL   C31935509   2.090   4.503   5.211  0.2027 -0.2670 -0.6836
   46MOL   C32035510   2.167   4.447   5.334  0.3454  0.1963 -0.2128
   46MOL   C32135511   2.319   4.480   5.328  0.9518  0.1902 -0.5382
   46MOL   C32235512   2.411   4.406   5.434 -0.4392 -0.7168  0.3203
   46MOL   O32335513   2.363   4.400   5.562 -0.0916 -0.3623 -0.4540
   46MOL   C32435514   2.379   4.510   5.641 -0.5798 -0.6535 -0.3732
   46MOL   O32535515   2.454   4.603   5.609  0.2037 -0.3678 -0.0875
   46MOL   C32635516   2.288   4.510   5.756 -0.1890  0.0022 -0.2002
   46MOL   C32735517   2.216   4.398   5.787  0.8941 -0.5373  0.5992
   46MOL   C32835518   2.127   4.397   5.894 -0.8715  0.4163  0.2616
   46MOL   C32935519   2.103   4.513   5.968 -0.3053  0.1108  0.1169
   46MOL   C33035520   2.018   4.511   6.094 -0.1592 -0.1423 -0.1240
   46MOL   O33135521   2.013   4.606   6.171  0.6645  0.3297 -0.1923
   46MOL   O33235522   1.968   4.389   6.110 -0.2373 -0.0585  0.4438
   46MOL   C33335523   2.165   4.633   5.930 -0.3801 -0.1317 -0.3831
   46MOL   C33435524   2.264   4.630   5.828  0.3196 -0.0371 -0.2270
   46MOL   H33535525   2.425   4.660   5.337  0.0874 -0.6838 -1.0614
   46MOL   H33635526   2.271   4.677   5.415 -0.6055  1.3065 -0.9970
   46MOL   H33735527   2.265   4.806   5.200  1.9768 -0.6179 -2.5672
   46MOL   H33835528   2.298   4.680   5.102 -0.4673  0.2851 -0.4010
   46MOL   H33935529   2.052   4.701   5.286 -1.3911 -1.3223 -0.5329
   46MOL   H34035530   1.920   4.718   5.104 -0.1376  0.2430 -0.2375
   46MOL   H34135531   2.050   4.822   5.059  1.1360 -0.0473  1.4355
   46MOL   H34235532   1.985   4.479   5.228 -0.1246  1.0319 -0.8302
   46MOL   H34335533   2.107   4.453   5.116  1.3073 -0.8708 -0.1767
   46MOL   H34435534   2.142   4.341   5.344  2.7766 -0.4481 -0.8184
   46MOL   H34535535   2.131   4.493   5.426 -0.7260  0.8433 -0.9508
   46MOL   H34635536   2.356   4.453   5.229  1.4160  1.4679 -0.7196
   46MOL   H34735537   2.437   4.308   5.392  0.0954 -0.5493  0.2551
   46MOL   H34835538   2.507   4.457   5.438 -1.2021  0.9198 -1.5681
   46MOL   H34935539   2.226   4.305   5.733  0.5983 -1.4896  2.1598
   46MOL   H35035540   2.075   4.304   5.912  0.1071 -0.5038 -1.5251
   46MOL   H35135541   2.158   4.726   5.986 -0.5109 -0.9802  1.0394
   46MOL   H35235542   2.320   4.712   5.785  1.5394 -0.5225  0.4414
   46MOL   C35335543   1.646   4.147   6.526 -0.0275 -0.0701 -0.8305
   46MOL   C35435544   1.721   4.273   6.462 -0.1059  0.6192  0.4923
   46MOL   C35535545   1.861   4.232   6.416 -0.4543  0.6326 -0.3689
   46MOL   C35635546   1.946   4.337   6.340 -0.0085 -0.0914  0.1161
   46MOL   O35735547   1.875   4.366   6.220  0.2103 -0.1487  0.5362
   46MOL   C35835548   1.943   4.178   6.543 -0.2094  0.6912 -0.0503
   46MOL   C35935549   1.870   4.062   6.610  0.0399  0.2788 -0.7862
   46MOL   C36035550   1.719   4.087   6.643  0.8834  0.0930 -0.4199
   46MOL   C36135551   1.655   3.946   6.692  0.5664  0.2482  0.0153
   46MOL   O36235552   1.514   3.946   6.723  0.1501 -0.4099  0.1284
   46MOL   C36335553   1.420   3.911   6.630 -0.4251  0.6141  0.0998
   46MOL   O36435554   1.437   3.881   6.512 -0.0973  0.3894  0.7718
   46MOL   C36535555   1.288   3.903   6.689 -0.7373 -0.0814  0.0092
   46MOL   C36635556   1.265   3.946   6.823  0.0514  0.4491 -0.3188
   46MOL   C36735557   1.147   3.922   6.881  0.0432 -1.4822 -0.0855
   46MOL   C36835558   1.037   3.865   6.816 -0.3592 -0.5403  0.7530
   46MOL   C36935559   0.911   3.816   6.893 -0.1481 -0.5451  0.5985
   46MOL   O37035560   0.864   3.884   6.989  0.1655 -0.0693  0.6860
   46MOL   O37135561   0.857   3.705   6.851 -0.1107  0.5036 -0.0212
   46MOL   C37235562   1.053   3.839   6.676 -0.3779 -0.2077 -0.2684
   46MOL   C37335563   1.182   3.850   6.618 -0.2855  0.4634  0.0809
   46MOL   H37435564   1.549   4.186   6.557 -0.5350 -1.2014 -0.9493
   46MOL   H37535565   1.623   4.075   6.447 -0.0728 -0.6994 -0.2551
   46MOL   H37635566   1.653   4.298   6.380 -0.9061  0.6916  1.1675
   46MOL   H37735567   1.721   4.356   6.533 -1.4606  1.6453 -0.6818
   46MOL   H37835568   1.860   4.144   6.352  1.7054 -0.6615  1.2804
   46MOL   H37935569   1.961   4.426   6.401 -1.6452  0.5325 -0.3451
   46MOL   H38035570   2.047   4.302   6.320  0.2313  0.0852  1.0007
   46MOL   H38135571   2.038   4.134   6.514  0.9103  2.6472  0.5761
   46MOL   H38235572   1.957   4.262   6.611  0.0662  1.2299 -0.7747
   46MOL   H38335573   1.922   4.031   6.700 -0.9122 -2.2722 -1.0759
   46MOL   H38435574   1.874   3.974   6.547 -0.8715 -0.7846  0.6299
   46MOL   H38535575   1.717   4.160   6.725 -0.3060 -0.4806  0.0808
   46MOL   H38635576   1.678   3.864   6.624 -0.0755 -2.2932  2.7715
   46MOL   H38735577   1.707   3.914   6.782 -1.0920 -1.0232  0.5450
   46MOL   H38835578   1.339   3.992   6.886  0.2550  2.3040 -1.8754
   46MOL   H38935579   1.123   3.948   6.983 -1.5576 -0.3331 -0.7295
   46MOL   H39035580   0.969   3.794   6.626 -0.1853  0.1383 -0.9064
   46MOL   H39135581   1.198   3.812   6.518  0.6829 -1.8668  1.0957
   46MOL   C39235582   0.393   3.395   6.938  0.0964  0.1420 -0.0163
   46MOL   C39335583   0.510   3.466   6.871 -0.3993  0.1342 -0.2599
   46MOL   C39435584   0.505   3.622   6.894  0.8975  0.1001  0.9741
   46MOL   C39535585   0.630   3.700   6.842 -0.2980  0.2944 -0.0946
   46MOL   O39635586   0.735   3.661   6.922  0.6906  0.0804 -0.6890
   46MOL   C39735587   0.370   3.668   6.836  0.4136 -0.1095 -0.5716
   46MOL   C39835588   0.253   3.595   6.898 -0.3052  0.6002  0.5991
   46MOL   C39935589   0.262   3.443   6.875  0.3102  0.0080  0.1331
   46MOL   C40035590   0.131   3.374   6.929 -0.1047 -0.7891  0.1218
   46MOL   O40135591   0.152   3.231   6.921  0.3710  0.2110  0.4777
   46MOL   C40235592   0.084   3.164   6.823  0.2435  0.0475  0.2837
   46MOL   O40335593   8.023   3.212   6.756  0.3082  0.6270 -0.1461
   46MOL   C40435594   0.135   3.021   6.823 -0.4638 -0.4001 -0.0003
   46MOL   C40535595   0.043   2.923   6.782  0.4851  0.1520 -0.1487
   46MOL   C40635596   0.085   2.788   6.773 -0.3746 -0.3554  0.4801
   46MOL   C40735597   0.219   2.758   6.813 -0.0476  0.4732 -0.0084
   46MOL   C40835598   0.270   2.622   6.794 -0.0404  0.5892  0.0075
   46MOL   O40935599   0.388   2.595   6.829  0.3334 -0.3467  0.0473
   46MOL   O41035600   0.180   2.532   6.746 -0.3963 -0.4673 -0.4272
   46MOL   C41135601   0.311   2.861   6.851  0.5462 -0.4935  0.1986
   46MOL   C41235602   0.268   2.991   6.866 -0.6099 -0.8780 -0.5082
   46MOL   H41335603   0.409   3.287   6.931  4.2432  0.6958 -0.5893
   46MOL   H41435604   0.392   3.415   7.045 -0.4271  3.4002 -0.5787
   46MOL   H41535605   0.599   3.418   6.912 -1.5563 -0.0366  2.1474
   46MOL   H41635606   0.504   3.439   6.765 -0.1371 -0.9774  0.0065
   46MOL   H41735607   0.500   3.628   7.003 -0.2046 -0.2254  0.9536
   46MOL   H41835608   0.641   3.677   6.736  0.4810 -0.1066  0.0670
   46MOL   H41935609   0.627   3.809   6.849 -2.9618  0.2804 -0.5887
   46MOL   H42035610   0.350   3.774   6.850 -0.5352 -0.5179  1.3647
   46MOL   H42135611   0.375   3.652   6.729  1.0222 -0.8067 -0.4459
   46MOL   H42235612   0.156   3.628   6.859 -0.2223 -1.6996 -1.7515
   46MOL   H42335613   0.246   3.618   7.004  0.0381  1.8910  0.3446
   46MOL   H42435614   0.269   3.414   6.770 -1.6833  2.3133 -0.7060
   46MOL   H42535615   0.123   3.382   7.038  0.5601 -0.5508  0.1530
   46MOL   H42635616   0.037   3.412   6.890  0.3428 -0.6036 -0.7773
   46MOL   H42735617   7.981   2.954   6.745  0.4897 -1.3427 -1.4973
   46MOL   H42835618   0.018   2.706   6.750 -1.5394  0.7623 -0.1800
   46MOL   H42935619   0.415   2.844   6.875  0.9640  0.9471 -0.6085
   46MOL   H43035620   0.334   3.073   6.890 -3.4802  2.1235 -2.5943
   46MOL   C43135621   0.435   1.966   6.780 -0.1171 -0.0207 -0.3573
   46MOL   C43235622   0.363   2.086   6.844 -0.4116 -0.8347  0.2775
   46MOL   C43335623   0.344   2.196   6.732  0.1155  0.1947 -0.3604
   46MOL   C43435624   0.283   2.319   6.783  0.4119 -0.2220  0.1269
   46MOL   O43535625   0.244   2.417   6.680  0.0885  0.0420  0.6169
   46MOL   C43635626   0.468   2.233   6.652 -0.3389  0.4134  0.2637
   46MOL   C43735627   0.523   2.103   6.585  0.2644  0.4756  0.2490
   46MOL   C43835628   0.554   2.002   6.692  0.5543  0.0373 -0.0114
   46MOL   C43935629   0.623   1.872   6.635  0.0620 -0.3193 -0.0742
   46MOL   O44035630   0.634   1.772   6.735 -0.1707  0.4062  0.4571
   46MOL   C44135631   0.717   1.780   6.833  0.6404 -0.3825  0.0099
   46MOL   O44235632   0.788   1.878   6.853 -0.6475 -0.0547 -0.0081
   46MOL   C44335633   0.734   1.654   6.916  1.0590 -0.4608 -0.5206
   46MOL   C44435634   0.674   1.527   6.884  0.0435  0.3874 -0.5340
   46MOL   C44535635   0.718   1.411   6.945 -0.3902 -0.2365 -0.5746
   46MOL   C44635636   0.805   1.426   7.056  0.3640  0.4884 -0.0143
   46MOL   C44735637   0.870   1.311   7.120  0.1049  0.5482 -0.0804
   46MOL   O44835638   0.954   1.319   7.214  0.2095 -0.0923 -0.0668
   46MOL   O44935639   0.852   1.201   7.056  0.0874 -0.0662 -0.0398
   46MOL   C45035640   0.852   1.551   7.099 -0.0702  0.2260 -0.1194
   46MOL   C45135641   0.813   1.671   7.033 -0.0296  0.3166  0.5694
   46MOL   H45235642   0.465   1.890   6.852  1.8258  0.1189 -0.9949
   46MOL   H45335643   0.364   1.911   6.719  0.5712 -3.5883  1.9398
   46MOL   H45435644   0.266   2.067   6.892 -0.6529  2.4633  1.1685
   46MOL   H45535645   0.420   2.126   6.927 -0.8829 -0.0414  0.2246
   46MOL   H45635646   0.267   2.143   6.674  0.6001 -1.6890  0.6629
   46MOL   H45735647   0.193   2.294   6.839 -1.3067 -1.0690 -2.9193
   46MOL   H45835648   0.347   2.376   6.852 -2.1636  2.9179  0.0328
   46MOL   H45935649   0.436   2.302   6.574  1.2624 -1.6717 -2.3213
   46MOL   H46035650   0.544   2.280   6.713 -1.4254  1.9307  0.4844
   46MOL   H46135651   0.611   2.135   6.530 -0.5555  0.9447 -0.7945
   46MOL   H46235652   0.447   2.060   6.520 -1.4858  1.4765  1.5924
   46MOL   H46335653   0.626   2.049   6.759 -0.9159 -0.4240  1.9642
   46MOL   H46435654   0.568   1.837   6.549 -2.3147 -0.1777  1.3384
   46MOL   H46535655   0.722   1.897   6.598  0.0621  0.4510  0.4217
   46MOL   H46635656   0.611   1.517   6.797 -0.0689 -0.8010 -0.3349
   46MOL   H46735657   0.683   1.311   6.923  0.0587 -0.6726  0.6099
   46MOL   H46835658   0.915   1.572   7.184 -1.8727 -0.0030  1.2958
   46MOL   H46935659   0.842   1.771   7.063 -1.6071  0.4085  1.8190
   46MOL   C47035660   1.252   0.788   7.097 -0.5472  0.0377  0.2034
   46MOL   C47135661   1.124   0.871   7.062 -0.0596 -0.0096  1.0215
   46MOL   C47235662   1.153   1.005   6.991 -0.9438  0.0536  0.9991
   46MOL   C47335663   1.026   1.079   6.970  0.7424 -0.4953 -0.0241
   46MOL   O47435664   0.958   1.098   7.085 -0.2171 -0.2758  0.0051
   46MOL   C47535665   1.248   1.090   7.079 -1.1484  0.0987 -0.0684
   46MOL   C47635666   1.378   1.017   7.105  0.0279 -0.5387  0.4850
   46MOL   C47735667   1.353   0.882   7.175 -0.1167 -0.0904  0.2920
   46MOL   C47835668   1.488   0.816   7.200 -0.0727  0.5216  0.2932
   46MOL   O47935669   1.469   0.688   7.254  0.3177  0.5848 -0.6478
   46MOL   C48035670   1.571   0.605   7.260  0.2760  0.3497  0.6704
   46MOL   O48135671   1.673   0.618   7.193 -0.7656  0.0066 -0.0637
   46MOL   C48235672   1.551   0.486   7.353 -0.2859 -0.5347  0.0441
   46MOL   C48335673   1.614   0.366   7.320 -0.1115 -0.4031 -0.1557
   46MOL   C48435674   1.598   0.260   7.408  0.6539 -0.1980 -0.1892
   46MOL   C48535675   1.527   0.271   7.532 -0.4428 -0.2995 -0.2554
   46MOL   C48635676   1.506   0.153   7.623  0.2929  0.5671  0.0341
   46MOL   O48735677   1.410   0.139   7.696  0.0545  0.0167 -0.3549
   46MOL   O48835678   1.606   0.060   7.610  0.2304  0.3994  0.4993
   46MOL   C48935679   1.465   0.390   7.561  0.3476 -0.7169  0.0985
   46MOL   C49035680   1.472   0.500   7.472  0.1517 -0.1443 -0.8447
   46MOL   H49135681   1.226   0.699   7.156  3.9923 -2.4455 -1.3127
   46MOL   H49235682   1.306   0.746   7.012 -2.0778 -1.0868 -0.2477
   46MOL   H49335683   1.072   0.812   6.986 -1.3257  0.7259  1.3051
   46MOL   H49435684   1.066   0.892   7.152  0.3696  2.9316  0.6390
   46MOL   H49535685   1.209   0.984   6.900 -0.1312 -1.6788  1.8760
   46MOL   H49635686   1.041   1.175   6.920 -0.1080 -0.3851 -0.0800
   46MOL   H49735687   0.957   1.020   6.911  0.9684 -0.8532  0.0670
   46MOL   H49835688   1.276   1.186   7.035 -0.8415  0.9152  1.8833
   46MOL   H49935689   1.210   1.107   7.179 -0.8460 -0.1666  0.0912
   46MOL   H50035690   1.437   1.073   7.177 -1.0299 -1.6756  2.3175
   46MOL   H50135691   1.439   1.007   7.016  0.5741 -0.6799  0.8771
   46MOL   H50235692   1.314   0.904   7.274  0.8809  1.7385  0.3081
   46MOL   H50335693   1.540   0.807   7.105 -0.5907 -0.5848  0.1102
   46MOL   H50435694   1.547   0.877   7.268  2.2558 -0.5571 -0.7353
   46MOL   H50535695   1.674   0.352   7.232  0.4522 -1.0158  0.3151
   46MOL   H50635696   1.644   0.165   7.382 -1.1159 -0.7597 -1.3766
   46MOL   H50735697   1.408   0.391   7.653  0.1968 -1.6924  0.0219
   46MOL   H50835698   1.412   0.589   7.486  0.3027  0.1290 -1.9381
   46MOL   C50935699   1.254   7.886   7.342  0.0347 -0.3010  0.1980
   46MOL   C51035700   1.396   7.933   7.395  0.9561  0.0869  0.0416
   46MOL   C51135701   1.437   7.829   7.497 -0.6871  0.0270 -0.0763
   46MOL   C51235702   1.578   7.869   7.557 -0.0809 -0.5203  0.0988
   46MOL   O51335703   1.576   7.960   7.665  0.4374 -0.1159  0.1587
   46MOL   C51435704   1.332   7.804   7.612 -0.4748  0.5458 -0.5900
   46MOL   C51535705   1.194   7.764   7.554  0.1980 -0.0677 -0.0684
   46MOL   C51635706   1.153   7.879   7.453  0.1289 -0.2189 -0.1003
   46MOL   C51735707   1.009   7.859   7.401  0.1340 -0.5741 -0.7514
   46MOL   O51835708   0.981   7.972   7.315  0.0565 -0.3220  0.2423
   46MOL   C51935709   0.855   8.019   7.306 -0.7640 -0.0465 -0.4329
   46MOL   O52035710   0.766   7.988   7.382 -0.1063  0.0038  0.2311
   46MOL   C52135711   0.844   0.090   7.207  0.2480  0.4387  0.7445
   46MOL   C52235712   0.712   0.137   7.183  0.2282  0.5629 -0.9245
   46MOL   C52335713   0.695   0.237   7.086 -0.1282  0.0657 -0.6691
   46MOL   C52435714   0.804   0.300   7.018  0.2124  0.1903 -0.4466
   46MOL   C52535715   0.793   0.427   6.944 -0.7435  0.0838  0.1528
   46MOL   O52635716   0.876   0.518   6.950 -0.4379  0.1465  0.1491
   46MOL   O52735717   0.690   0.424   6.852  0.2419  0.5337 -0.2616
   46MOL   C52835718   0.937   0.253   7.042 -0.1406 -0.1939  0.1457
   46MOL   C52935719   0.953   0.139   7.125 -0.2391 -0.5312  0.2752
   46MOL   H53035720   1.221   7.970   7.282  0.3169  0.4140  1.0304
   46MOL   H53135721   1.249   7.793   7.286  0.4377 -0.6656  0.7613
   46MOL   H53235722   1.462   7.946   7.310 -0.4661 -1.3078 -1.3198
   46MOL   H53335723   1.390   8.035   7.433  1.0812 -0.0735  0.4915
   46MOL   H53435724   1.451   7.735   7.443  1.0660 -0.4595  1.1764
   46MOL   H53535725   1.623   7.786   7.610  3.6065  0.8133 -0.8011
   46MOL   H53635726   1.646   7.906   7.480  0.6197 -1.3104  0.3324
   46MOL   H53735727   1.361   7.725   7.681 -0.9296  0.0932 -0.9095
   46MOL   H53835728   1.329   7.894   7.674 -1.3022 -0.2444  0.5361
   46MOL   H53935729   1.128   7.749   7.640  1.1557 -1.0838  0.5022
   46MOL   H54035730   1.196   7.667   7.504 -0.1596  0.0572 -0.3232
   46MOL   H54135731   1.160   7.979   7.496 -2.8359 -0.2562  0.6250
   46MOL   H54235732   0.992   7.774   7.335  3.5024 -0.3516 -2.0109
   46MOL   H54335733   0.947   7.855   7.491 -1.6516  2.3212 -1.7716
   46MOL   H54435734   0.627   0.092   7.233  0.6069  1.5630  0.6451
   46MOL   H54535735   0.593   0.268   7.070 -0.4076  0.7641  2.1337
   46MOL   H54635736   1.026   0.287   6.991  0.7147 -1.7120  0.5817
   46MOL   H54735737   1.057   0.112   7.131  0.2533  0.8738 -1.4570
   46MOL   C54835738   0.851   0.708   6.341 -0.1622 -0.0695 -0.1629
   46MOL   C54935739   0.818   0.587   6.430 -0.1996 -0.2586  1.0688
   46MOL   C55035740   0.755   0.627   6.562 -0.7976 -0.2302  1.2172
   46MOL   C55135741   0.724   0.505   6.646 -0.9447  0.2461  0.3713
   46MOL   O55235742   0.688   0.549   6.773  0.0868  0.0096  0.1643
   46MOL   C55335743   0.847   0.727   6.636  0.1107 -0.9450 -0.0518
   46MOL   C55435744   0.869   0.849   6.551 -0.0614  0.6732 -0.4270
   46MOL   C55535745   0.940   0.807   6.418  0.6094  0.8451  0.1926
   46MOL   C55635746   0.988   0.923   6.332  0.9235  0.3250  0.8452
   46MOL   O55735747   1.078   0.996   6.405 -0.6001 -0.3539  0.1480
   46MOL   C55835748   1.187   1.045   6.329  0.0542  0.0839  0.0032
   46MOL   O55935749   1.209   1.023   6.208  0.1768  0.0393  0.0849
   46MOL   C56035750   1.266   1.135   6.411  0.2458 -0.3342  0.2661
   46MOL   C56135751   1.260   1.144   6.553  0.2206 -0.5074 -0.3518
   46MOL   C56235752   1.340   1.236   6.628 -0.6633  0.8039 -0.2475
   46MOL   C56335753   1.420   1.329   6.561 -0.0664 -0.3619  0.2175
   46MOL   C56435754   1.490   1.447   6.627 -0.6319  0.2569 -0.0549
   46MOL   O56535755   1.501   1.554   6.567  0.3126 -0.1859  0.7818
   46MOL   O56635756   1.518   1.420   6.757 -0.3030 -0.2250 -0.6424
   46MOL   C56735757   1.435   1.318   6.421 -1.0075 -0.2006  1.0617
   46MOL   C56835758   1.355   1.228   6.349  0.5234  0.2841 -0.3866
   46MOL   H56935759   0.901   0.667   6.253 -2.1286 -0.5964 -1.0617
   46MOL   H57035760   0.759   0.753   6.305 -0.2462 -2.1528 -2.7468
   46MOL   H57135761   0.763   0.512   6.373  0.8175 -0.1932 -0.0414
   46MOL   H57235762   0.912   0.537   6.453 -0.8697 -2.1915 -0.2446
   46MOL   H57335763   0.659   0.672   6.536 -1.3154 -1.7750  0.3682
   46MOL   H57435764   0.646   0.448   6.594 -0.7212 -0.2879  0.6138
   46MOL   H57535765   0.804   0.431   6.646 -1.4330 -0.3551 -3.1344
   46MOL   H57635766   0.806   0.768   6.729 -0.0783 -1.7582  0.2326
   46MOL   H57735767   0.941   0.679   6.663 -0.4550 -1.6431  0.7427
   46MOL   H57835768   0.930   0.921   6.605  0.5345 -0.9228  1.1137
   46MOL   H57935769   0.773   0.897   6.532 -0.2606  0.3597 -0.2188
   46MOL   H58035770   1.034   0.753   6.432  0.2848 -0.1025 -1.1732
   46MOL   H58135771   1.030   0.876   6.243  1.2123  0.7560  0.7543
   46MOL   H58235772   0.895   0.970   6.299 -0.4615 -2.8318  0.0311
   46MOL   H58335773   1.194   1.074   6.603 -0.2063 -1.1463 -1.7776
   46MOL   H58435774   1.320   1.229   6.734 -0.4570 -1.7583 -0.3302
   46MOL   H58535775   1.497   1.396   6.382  0.0184 -2.0136 -1.0785
   46MOL   H58635776   1.372   1.232   6.242 -2.2909 -0.1279 -0.8918
   46MOL   C58735777   1.617   1.535   7.254 -0.6756  0.0497 -0.3398
   46MOL   C58835778   1.631   1.568   7.099 -0.4987 -0.2949 -0.1017
   46MOL   C58935779   1.491   1.582   7.036  0.5088  0.2646 -0.1526
   46MOL   C59035780   1.494   1.614   6.886 -0.1631  0.2990 -0.8574
   46MOL   O59135781   1.591   1.521   6.832  0.3005  0.0970  0.9096
   46MOL   C59235782   1.412   1.450   7.063 -0.0100  0.1886 -0.7120
   46MOL   C59335783   1.382   1.427   7.213 -0.3928  0.0871 -0.4271
   46MOL   C59435784   1.524   1.413   7.293  0.1895  0.4069 -0.7740
   46MOL   C59535785   1.495   1.407   7.446  0.2430 -0.3478 -0.2900
   46MOL   O59635786   1.400   1.302   7.475  0.1174  0.3890 -0.2257
   46MOL   C59735787   1.437   1.186   7.528 -0.6819  0.2525 -0.0906
   46MOL   O59835788   1.553   1.166   7.574 -0.0816  0.5954 -0.4977
   46MOL   C59935789   1.322   1.082   7.526  0.4336 -0.2526 -0.2162
   46MOL   C60035790   1.208   1.107   7.443  0.3157  0.0220  0.8538
   46MOL   C60135791   1.098   1.020   7.440 -0.3448 -0.4161 -0.4597
   46MOL   C60235792   1.109   0.901   7.505 -0.3141  0.3089 -0.1290
   46MOL   C60335793   0.999   0.805   7.512  0.4119 -0.1367 -0.9416
   46MOL   O60435794   1.009   0.697   7.567  0.3071 -0.1687  0.3762
   46MOL   O60535795   0.884   0.852   7.459 -0.6284  0.5460 -0.3772
   46MOL   C60635796   1.226   0.862   7.582 -0.1508 -0.5120 -0.1751
   46MOL   C60735797   1.333   0.956   7.594  0.8648  0.1349  0.6687
   46MOL   H60835798   1.721   1.524   7.285 -0.7108 -0.0217 -0.2457
   46MOL   H60935799   1.575   1.619   7.308  1.0093  1.1943 -0.7840
   46MOL   H61035800   1.676   1.666   7.084  1.1239 -1.2973 -2.1126
   46MOL   H61135801   1.691   1.491   7.050 -0.6748 -0.7715  0.4347
   46MOL   H61235802   1.444   1.665   7.089 -1.1765 -0.7911  0.0365
   46MOL   H61335803   1.391   1.597   6.854  0.0446 -0.0468 -1.3455
   46MOL   H61435804   1.519   1.720   6.877 -0.4355  0.6997  2.3621
   46MOL   H61535805   1.312   1.456   7.020 -0.3199 -1.6103 -0.2944
   46MOL   H61635806   1.455   1.358   7.021 -0.3311 -0.0630 -0.4881
   46MOL   H61735807   1.318   1.340   7.229 -1.1373  0.5767 -0.7391
   46MOL   H61835808   1.334   1.510   7.264 -1.1140 -0.5726 -0.0236
   46MOL   H61935809   1.577   1.320   7.271  2.3541  0.9836  1.6855
   46MOL   H62035810   1.587   1.374   7.495  0.4367  0.4281 -0.1338
   46MOL   H62135811   1.460   1.500   7.488  0.1726 -0.3198 -0.4093
   46MOL   H62235812   1.186   1.194   7.384 -0.8475 -0.0682  1.1352
   46MOL   H62335813   1.015   1.035   7.373  0.9950  0.9469 -1.8644
   46MOL   H62435814   1.215   0.776   7.646  5.3308 -1.5890 -0.4877
   46MOL   H62535815   1.416   0.935   7.660 -0.1352  0.0765  1.9278
   46MOL   C62635816   0.560   1.011   7.167  0.7745 -0.6148 -0.0926
   46MOL   C62735817   0.611   0.908   7.269  0.1466  0.3771 -0.0693
   46MOL   C62835818   0.719   0.806   7.219  0.1024  0.4467 -0.5882
   46MOL   C62935819   0.759   0.700   7.330  0.0539  0.7850 -0.0044
   46MOL   O63035820   0.768   0.753   7.458 -0.0960 -0.7097 -0.6866
   46MOL   C63135821   0.667   0.749   7.085 -0.6735  0.2589 -0.7614
   46MOL   C63235822   0.647   0.865   6.978  0.1655 -0.2219 -0.3287
   46MOL   C63335823   0.530   0.957   7.029  0.1561 -0.3366  0.5467
   46MOL   C63435824   0.505   1.068   6.924 -0.4072 -0.1842  0.1783
   46MOL   O63535825   0.481   1.007   6.799  0.3768 -0.0360  0.4408
   46MOL   C63635826   0.354   0.997   6.750 -0.1221  0.4926 -0.3265
   46MOL   O63735827   0.253   1.043   6.801 -0.0628 -0.5325 -0.0724
   46MOL   C63835828   0.348   0.908   6.631 -0.1645 -0.3032  0.0135
   46MOL   C63935829   0.466   0.877   6.560 -0.1694 -0.1736 -0.6170
   46MOL   C64035830   0.460   0.805   6.444 -0.3998  0.4989  0.3402
   46MOL   C64135831   0.342   0.733   6.409  0.8202 -0.0791 -0.4015
   46MOL   C64235832   0.344   0.648   6.290  0.2984 -0.5066 -1.0329
   46MOL   O64335833   0.447   0.621   6.227 -0.6187  0.1399  0.3975
   46MOL   O64435834   0.230   0.589   6.264 -0.4646  0.2116 -0.2471
   46MOL   C64535835   0.226   0.756   6.483 -0.9377  0.3888 -0.5136
   46MOL   C64635836   0.226   0.843   6.594  0.0053  0.4910 -0.5594
   46MOL   H64735837   0.469   1.054   7.208  0.8866 -0.3497 -0.1198
   46MOL   H64835838   0.626   1.098   7.156  1.5860 -1.4986 -2.7642
   46MOL   H64935839   0.637   0.974   7.352  2.3467 -0.4458 -0.0816
   46MOL   H65035840   0.527   0.847   7.304  0.2825  0.0624 -0.2953
   46MOL   H65135841   0.801   0.875   7.201  0.3107  0.1516 -0.7912
   46MOL   H65235842   0.679   0.626   7.337  1.4760 -0.9767 -1.7629
   46MOL   H65335843   0.845   0.637   7.306 -0.2572  0.1682  0.4864
   46MOL   H65435844   0.735   0.671   7.051 -0.0126 -0.6085  2.4118
   46MOL   H65535845   0.581   0.685   7.101  0.3048 -0.8705  0.0830
   46MOL   H65635846   0.628   0.835   6.875 -1.4916  1.2553 -0.4687
   46MOL   H65735847   0.743   0.916   6.973 -0.2554  0.6603  0.3891
   46MOL   H65835848   0.435   0.904   7.022 -0.4323  0.8938 -1.2284
   46MOL   H65935849   0.426   1.127   6.971 -0.5595  1.9630 -2.7044
   46MOL   H66035850   0.583   1.141   6.903 -1.7944  0.6945 -2.0878
   46MOL   H66135851   0.563   0.916   6.586 -0.1375  0.1677 -1.2272
   46MOL   H66235852   0.552   0.790   6.390  0.1105  1.4879  0.9185
   46MOL   H66335853   0.136   0.699   6.468 -1.3229  0.5774  1.0070
   46MOL   H66435854   0.139   0.856   6.657 -0.1329  2.1428 -1.0522
   46MOL   C66535855   0.226   0.106   5.864 -0.0901 -0.2270  0.1075
   46MOL   C66635856   0.217   0.163   6.001  0.3688  0.5849 -0.7363
   46MOL   C66735857   0.251   0.313   6.005  0.4132  0.5545 -0.1444
   46MOL   C66835858   0.254   0.376   6.143  0.6716 -0.3341 -0.2382
   46MOL   O66935859   0.230   0.517   6.129  0.7921  0.9094  0.6907
   46MOL   C67035860   0.383   0.346   5.938  0.1578  0.3152 -0.0142
   46MOL   C67135861   0.398   0.286   5.795 -0.3802  0.1909 -0.7378
   46MOL   C67235862   0.355   0.138   5.792 -0.5875  0.5711  0.5417
   46MOL   C67335863   0.378   0.069   5.654  0.2704 -0.1990  0.1093
   46MOL   O67435864   0.271   0.127   5.585 -0.3893  0.9437  0.1164
   46MOL   C67535865   0.299   0.172   5.461 -0.1351 -0.1372 -0.3720
   46MOL   O67635866   0.404   0.152   5.397  0.2384  0.1044 -0.2105
   46MOL   C67735867   0.187   0.265   5.415 -0.1201  0.2943  1.1807
   46MOL   C67835868   0.066   0.272   5.498  0.2397  0.5560  0.7121
   46MOL   C67935869   7.995   0.356   5.465 -0.3320 -0.5377 -0.0156
   46MOL   C68035870   8.009   0.431   5.346  0.0354 -0.4422 -0.3250
   46MOL   C68135871   7.892   0.523   5.322  0.7799 -0.0365  0.5421
   46MOL   O68235872   7.773   0.503   5.354 -0.5437  0.2941 -0.1439
   46MOL   O68335873   7.937   0.634   5.253  0.2512 -0.2534  0.5997
   46MOL   C68435874   0.083   0.419   5.256 -0.5472  0.3800  0.7005
   46MOL   C68535875   0.193   0.331   5.288  0.6121 -0.2952  0.0539
   46MOL   H68635876   0.210   0.000   5.882  1.6407 -0.2095  1.9202
   46MOL   H68735877   0.147   0.140   5.797  0.7362 -1.2839 -1.4390
   46MOL   H68835878   0.120   0.141   6.046  0.3906  2.2699  0.1640
   46MOL   H68935879   0.281   0.110   6.072 -0.9108 -0.5009 -0.3745
   46MOL   H69035880   0.168   0.365   5.959  1.3600  2.2298  0.0063
   46MOL   H69135881   0.171   0.344   6.206  0.9808  0.3486  0.5445
   46MOL   H69235882   0.349   0.353   6.190  1.4334 -2.1117 -2.5910
   46MOL   H69335883   0.413   0.451   5.945  0.1781  0.2982  0.1436
   46MOL   H69435884   0.462   0.295   5.993 -0.4779 -0.1000  0.5225
   46MOL   H69535885   0.494   0.309   5.749 -0.7159  0.5164 -1.2843
   46MOL   H69635886   0.328   0.342   5.733 -0.8661 -1.2889 -1.5373
   46MOL   H69735887   0.420   0.079   5.857 -3.1583 -1.2637  1.5381
   46MOL   H69835888   0.478   0.072   5.610 -0.2700 -1.8555 -1.3055
   46MOL   H69935889   0.359   7.997   5.649 -2.7964  0.2687  0.5377
   46MOL   H70035890   0.065   0.215   5.589  0.0283 -1.1411 -0.3231
   46MOL   H70135891   7.908   0.367   5.527 -0.9865  1.3038 -1.2258
   46MOL   H70235892   0.097   0.472   5.162  0.1290 -0.4837  0.3046
   46MOL   H70335893   0.270   0.313   5.215  0.6765  1.2306 -0.2712
   46MOL   C70435894   7.609   1.149   5.328  0.4776  0.4105  0.0361
   46MOL   C70535895   7.739   1.067   5.343 -0.1365  0.3343  1.2503
   46MOL   C70635896   7.721   0.928   5.286 -0.0359 -0.2829  0.2668
   46MOL   C70735897   7.843   0.841   5.299  0.1510  0.2210 -0.3990
   46MOL   O70835898   7.832   0.730   5.216 -0.2038 -0.1862 -0.4133
   46MOL   C70935899   7.595   0.856   5.338  0.2084 -0.2094 -0.7326
   46MOL   C71035900   7.472   0.941   5.335 -0.1767  0.0890 -0.2613
   46MOL   C71135901   7.490   1.083   5.399 -0.2948 -0.2650  0.5323
   46MOL   C71235902   7.365   1.173   5.365  0.5651 -0.4725 -0.1926
   46MOL   O71335903   7.257   1.123   5.445 -0.1451  0.3898 -0.0871
   46MOL   C71435904   7.143   1.074   5.395 -0.2055  0.1707 -0.0468
   46MOL   O71535905   7.114   1.075   5.277  0.4695 -0.1544 -0.1714
   46MOL   C71635906   7.062   1.004   5.492 -0.7002 -0.8655  0.7826
   46MOL   C71735907   7.110   0.981   5.624 -0.3458 -0.0489 -0.3988
   46MOL   C71835908   7.039   0.895   5.714  0.3183  0.1209 -0.4033
   46MOL   C71935909   6.919   0.837   5.668  0.6753  1.3165 -0.8005
   46MOL   C72035910   6.841   0.751   5.761  0.5750 -0.4701  0.6494
   46MOL   O72135911   6.741   0.689   5.728 -0.0429  0.4836  0.2812
   46MOL   O72235912   6.894   0.752   5.887  0.0026 -0.3290  0.1882
   46MOL   C72335913   6.867   0.861   5.542  0.7850 -0.2874  0.1032
   46MOL   C72435914   6.939   0.953   5.453  0.3138  0.6127 -0.1968
   46MOL   H72535915   7.631   1.247   5.371 -1.5133  1.9983 -2.3548
   46MOL   H72635916   7.587   1.156   5.221  1.0689 -0.9922 -0.1898
   46MOL   H72735917   7.830   1.115   5.307 -0.3395 -0.5197 -0.4381
   46MOL   H72835918   7.762   1.061   5.450  1.1530  0.3293  0.9832
   46MOL   H72935919   7.707   0.941   5.178 -2.5388 -1.2108  0.4406
   46MOL   H73035920   7.933   0.892   5.264  1.7920 -1.4679  1.2844
   46MOL   H73135921   7.864   0.824   5.405  2.3231  1.1470 -0.6420
   46MOL   H73235922   7.573   0.763   5.286  0.1598 -0.5485 -0.1084
   46MOL   H73335923   7.607   0.823   5.441  0.5995  0.1418 -0.6629
   46MOL   H73435924   7.387   0.886   5.377  0.1546  0.7278  1.2957
   46MOL   H73535925   7.434   0.954   5.234  2.3994 -2.8230 -1.6815
   46MOL   H73635926   7.498   1.094   5.507  0.5855 -0.5681  0.5024
   46MOL   H73735927   7.385   1.279   5.381  0.7213 -0.0248 -3.0835
   46MOL   H73835928   7.336   1.172   5.260 -0.8090 -0.2031  0.1793
   46MOL   H73935929   7.206   1.020   5.654 -1.8186  1.9412  1.8705
   46MOL   H74035930   7.087   0.861   5.804  1.1664 -0.1601 -0.9578
   46MOL   H74135931   6.770   0.825   5.511  1.3526 -0.2327 -1.7728
   46MOL   H74235932   6.889   0.954   5.357 -0.0996 -0.8451 -0.0151
   46MOL   C74335933   6.688   0.806   6.409  0.2500  0.4036 -0.3605
   46MOL   C74435934   6.642   0.748   6.276  0.4855 -0.3822  0.0708
   46MOL   C74535935   6.763   0.745   6.179 -0.4129 -0.1990 -0.2932
   46MOL   C74635936   6.732   0.674   6.044 -0.5430 -0.0357  0.3805
   46MOL   O74735937   6.853   0.631   5.971  0.6661  0.1255 -0.5211
   46MOL   C74835938   6.812   0.887   6.159 -0.0289  0.3165 -0.4204
   46MOL   C74935939   6.860   0.951   6.286  0.3671 -0.4958  0.2837
   46MOL   C75035940   6.745   0.952   6.396  0.3817 -0.4354  0.2521
   46MOL   C75135941   6.793   1.014   6.523 -0.0319 -0.0226 -0.7346
   46MOL   O75235942   6.683   1.019   6.611 -0.0126 -0.2029  0.3214
   46MOL   C75335943   6.693   0.982   6.741  0.4057  0.1505  0.4743
   46MOL   O75435944   6.800   0.943   6.794  0.5565  0.2352  0.5631
   46MOL   C75535945   6.557   0.972   6.794 -0.0558  0.8149 -0.7805
   46MOL   C75635946   6.439   0.982   6.718 -0.0386 -0.2714  0.4817
   46MOL   C75735947   6.308   0.956   6.772  0.0544 -0.2236 -0.3447
   46MOL   C75835948   6.302   0.913   6.908  0.9971 -0.4791  0.1063
   46MOL   C75935949   6.169   0.883   6.974 -0.0540 -0.3937  0.4315
   46MOL   O76035950   6.159   0.832   7.081  0.1893  0.1387  0.2974
   46MOL   O76135951   6.063   0.924   6.897  0.0494 -0.4281  0.1734
   46MOL   C76235952   6.422   0.904   6.981  0.0040  0.6782  0.4459
   46MOL   C76335953   6.545   0.932   6.928  0.5966  0.8333  0.7323
   46MOL   H76435954   6.600   0.820   6.472  0.5869 -0.9109  0.4238
   46MOL   H76535955   6.761   0.741   6.458  0.3743  0.6279 -0.2517
   46MOL   H76635956   6.610   0.645   6.295  0.0043 -0.2399  0.0200
   46MOL   H76735957   6.557   0.796   6.229  0.7488 -0.3955 -0.4162
   46MOL   H76835958   6.847   0.692   6.223 -0.0519  0.1098 -0.6016
   46MOL   H76935959   6.673   0.585   6.063  0.8115 -1.1997 -0.7611
   46MOL   H77035960   6.673   0.741   5.981 -0.2977 -0.8048 -0.6707
   46MOL   H77135961   6.891   0.882   6.084 -0.9297 -0.4363 -1.3424
   46MOL   H77235962   6.734   0.947   6.113 -2.4686 -1.6842  0.9503
   46MOL   H77335963   6.891   1.055   6.274 -1.1670 -0.0867 -0.3724
   46MOL   H77435964   6.945   0.899   6.330  0.4348 -0.4140  0.2505
   46MOL   H77535965   6.668   1.009   6.344  2.2860  1.4854 -0.5567
   46MOL   H77635966   6.863   0.937   6.557  0.3644  1.3619  1.7040
   46MOL   H77735967   6.836   1.113   6.506 -2.0567  0.7370 -1.6436
   46MOL   H77835968   6.451   1.011   6.614 -1.8366 -2.5990 -0.4348
   46MOL   H77935969   6.225   0.975   6.706 -1.3148 -2.6396  0.6345
   46MOL   H78035970   6.408   0.870   7.083  0.3437 -1.6816 -0.2559
   46MOL   H78135971   6.634   0.910   6.986  1.6724  0.2219 -1.0822
   46MOL   H78235972   5.983   0.908   6.944  0.1266  0.8644  0.7507
   47MOL     C135973   4.552   2.279   4.785  0.8036 -0.2668 -0.1489
   47MOL     C235974   4.683   2.251   4.845  0.2329 -0.7219 -0.4608
   47MOL     C335975   4.672   2.214   4.995  0.5315  0.2299  0.1411
   47MOL     C435976   4.812   2.191   5.061 -0.2675  0.2631 -0.4901
   47MOL     O535977   4.889   2.308   5.061  0.1436  0.0823 -0.2010
   47MOL     C635978   4.603   2.329   5.072  0.6781 -0.4447 -0.4919
   47MOL     C735979   4.464   2.355   5.013 -0.3898  0.2735  0.6414
   47MOL     C835980   4.479   2.397   4.861 -0.0834  0.4436  0.3784
   47MOL     C935981   4.338   2.435   4.798 -0.9529  0.3108  0.6503
   47MOL    O1035982   4.348   2.433   4.659  0.7907 -0.1020  0.0071
   47MOL    C1135983   4.399   2.539   4.596 -0.0367  0.1682  0.4906
   47MOL    O1235984   4.460   2.633   4.657  0.1500 -0.1827  0.1353
   47MOL    C1335985   4.387   2.527   4.448 -0.0045 -0.5558  0.0009
   47MOL    C1435986   4.310   2.426   4.387  0.4468  0.1067  0.3851
   47MOL    C1535987   4.312   2.404   4.245  0.1278  0.0974  0.7745
   47MOL    C1635988   4.376   2.495   4.159 -0.1076  0.1296 -0.1595
   47MOL    C1735989   4.385   2.472   4.010 -0.3410  0.5619 -0.1683
   47MOL    O1835990   4.338   2.376   3.951  0.3320  0.7045 -0.2942
   47MOL    O1935991   4.446   2.572   3.944  0.2006  0.1897 -0.3594
   47MOL    C2035992   4.453   2.596   4.223 -0.3317 -0.1907  0.2461
   47MOL    C2135993   4.455   2.615   4.362 -0.8848  0.6254  0.8115
   47MOL    H2235994   4.567   2.293   4.678 -0.4062 -0.7854 -0.4011
   47MOL    H2335995   4.494   2.187   4.787 -1.3711  1.0661  0.9503
   47MOL    H2435996   4.730   2.164   4.800  0.6039 -0.4235 -0.6526
   47MOL    H2535997   4.751   2.333   4.821 -1.2511  0.1118 -1.9016
   47MOL    H2635998   4.610   2.125   5.005  2.4271 -1.0758  0.5143
   47MOL    H2735999   4.807   2.152   5.163 -0.5308  0.7047 -0.3356
   47MOL    H2836000   4.871   2.119   5.004  0.0754 -0.3288  0.5949
   47MOL    H2936001   4.595   2.289   5.173  0.9371 -1.1429 -0.7410
   47MOL    H3036002   4.656   2.424   5.081  1.1518 -0.3392 -3.8446
   47MOL    H3136003   4.411   2.436   5.063 -0.0746  1.7251 -1.3550
   47MOL    H3236004   4.405   2.265   5.035  0.3548 -0.9803 -2.2644
   47MOL    H3336005   4.536   2.490   4.856  0.6701 -0.1398 -3.6960
   47MOL    H3436006   4.265   2.360   4.827 -1.2215  1.3327  2.7059
   47MOL    H3536007   4.302   2.533   4.828  1.7746  1.5434  0.0490
   47MOL    H3636008   4.260   2.354   4.450  1.0666  0.0917  0.8661
   47MOL    H3736009   4.251   2.326   4.202  0.1133 -0.0420  1.0448
   47MOL    H3836010   4.514   2.664   4.165 -2.3240 -0.2736 -2.0453
   47MOL    H3936011   4.512   2.699   4.399 -1.1688  0.8690  0.6950
   47MOL    H4036012   4.977   2.280   5.040  0.3598 -0.2250  1.0667
   47MOL    C4136013   4.653   2.464   3.412  0.4668  0.1693  0.2003
   47MOL    C4236014   4.617   2.541   3.546 -0.1629 -0.1568  0.7922
   47MOL    C4336015   4.666   2.461   3.672 -0.4971  0.2141 -0.9481
   47MOL    C4436016   4.624   2.527   3.803 -0.5975  0.1807 -0.0628
   47MOL    O4536017   4.486   2.545   3.801 -0.2658 -0.1580 -0.3386
   47MOL    C4636018   4.604   2.313   3.676  0.6651 -0.2327  0.1903
   47MOL    C4736019   4.620   2.245   3.535 -0.0517  0.1281 -0.2137
   47MOL    C4836020   4.571   2.332   3.420  0.4144 -0.1748  0.4527
   47MOL    C4936021   4.573   2.263   3.283  0.5577 -0.2835  0.5210
   47MOL    O5036022   4.497   2.144   3.281  0.3118 -0.1781 -0.2612
   47MOL    C5136023   4.468   2.072   3.168  0.8620  1.0278 -0.2130
   47MOL    O5236024   4.513   2.090   3.055 -0.2921  0.3951 -0.5356
   47MOL    C5336025   4.374   1.960   3.207 -0.2310  0.0564 -0.2021
   47MOL    C5436026   4.337   1.931   3.337  0.2972 -1.1718 -0.3936
   47MOL    C5536027   4.265   1.809   3.362  0.4677 -0.1105  0.6473
   47MOL    C5636028   4.233   1.721   3.260 -1.1238 -0.1830  0.5905
   47MOL    C5736029   4.177   1.588   3.296 -0.1447  0.4988  0.5558
   47MOL    O5836030   4.109   1.518   3.215 -0.0081  0.1479  0.5228
   47MOL    O5936031   4.214   1.550   3.423 -0.1466 -0.3370  0.5039
   47MOL    C6036032   4.278   1.747   3.132 -0.3390  0.1826  0.4321
   47MOL    C6136033   4.338   1.863   3.102 -0.4506  0.4197  0.1820
   47MOL    H6236034   4.621   2.516   3.322  1.6198  0.0559 -0.2741
   47MOL    H6336035   4.759   2.441   3.419  0.2162 -0.6206  1.7285
   47MOL    H6436036   4.664   2.640   3.548  2.2192 -1.2501  1.5380
   47MOL    H6536037   4.511   2.564   3.554 -0.6990 -1.2409 -2.3798
   47MOL    H6636038   4.775   2.461   3.680 -0.6266  2.2975  1.2099
   47MOL    H6736039   4.660   2.465   3.885  0.4295 -0.5893 -1.0649
   47MOL    H6836040   4.681   2.618   3.815  0.6528 -0.5143 -0.5664
   47MOL    H6936041   4.645   2.243   3.749  2.1460  0.0620 -0.3498
   47MOL    H7036042   4.497   2.325   3.695  0.8685 -0.4614  1.5260
   47MOL    H7136043   4.557   2.156   3.535  1.9578 -1.3444  1.0251
   47MOL    H7236044   4.718   2.203   3.509  0.6684  0.4975  1.8339
   47MOL    H7336045   4.466   2.350   3.440  0.1489  0.2815 -1.2775
   47MOL    H7436046   4.553   2.327   3.197 -0.0402 -0.3199  0.6304
   47MOL    H7536047   4.678   2.239   3.269  0.2324 -2.4970  1.5728
   47MOL    H7636048   4.379   1.986   3.420  1.9581 -0.1877 -1.8460
   47MOL    H7736049   4.234   1.791   3.464 -0.0755 -1.4274  0.2656
   47MOL    H7836050   4.270   1.675   3.052  0.3101  0.9306 -0.3163
   47MOL    H7936051   4.383   1.877   3.005  0.1185  0.1075  0.3930
   47MOL    C8036052   4.294   1.187   3.797 -0.2235  0.9311  0.0412
   47MOL    C8136053   4.289   1.287   3.679 -0.6143  0.2615  0.4166
   47MOL    C8236054   4.262   1.208   3.548 -0.0647 -0.3469 -0.2394
   47MOL    C8336055   4.256   1.313   3.432  0.4186  0.6620  0.0379
   47MOL    O8436056   4.158   1.413   3.470 -0.8583 -0.5180  0.4158
   47MOL    C8536057   4.356   1.093   3.531 -0.6528 -0.6957  0.0602
   47MOL    C8636058   4.349   0.994   3.642  0.2049 -0.3376 -0.6020
   47MOL    C8736059   4.379   1.067   3.778  0.0591  0.4354  0.1780
   47MOL    C8836060   4.366   0.960   3.885 -0.6356  0.9762  0.6896
   47MOL    O8936061   4.235   0.922   3.894 -0.1277  0.3656 -0.4141
   47MOL    C9036062   4.183   0.833   3.987  0.0874 -0.0439 -0.8858
   47MOL    O9136063   4.256   0.757   4.052 -0.2241 -0.3392 -0.5098
   47MOL    C9236064   4.033   0.834   4.002 -0.9942 -0.3625  0.1868
   47MOL    C9336065   3.963   0.751   4.090  0.3261 -0.4844  0.0499
   47MOL    C9436066   3.825   0.771   4.119  0.6990  0.6088  0.9948
   47MOL    C9536067   3.753   0.865   4.040 -0.4812  0.0448 -0.5327
   47MOL    C9636068   3.607   0.884   4.058 -0.6903 -0.4652  0.2822
   47MOL    O9736069   3.530   0.966   4.003 -0.3581 -0.2260  0.4921
   47MOL    O9836070   3.550   0.799   4.151  0.1086  0.0209 -0.4613
   47MOL    C9936071   3.817   0.931   3.932  0.5203  0.0397 -0.1020
   47MOL   C10036072   3.959   0.924   3.923  0.0013  0.1796  0.2873
   47MOL   H10136073   4.316   1.228   3.896 -0.9505 -2.2521  1.6170
   47MOL   H10236074   4.191   1.160   3.822 -0.2079  0.1464 -0.7289
   47MOL   H10336075   4.211   1.361   3.698  0.6935  1.0573  2.9228
   47MOL   H10436076   4.382   1.340   3.660  0.4335 -1.5292  0.4852
   47MOL   H10536077   4.160   1.173   3.556 -0.2009  0.1213  0.1302
   47MOL   H10636078   4.356   1.355   3.419  0.5951  0.1971 -0.1017
   47MOL   H10736079   4.226   1.262   3.341 -2.5701  1.1488  0.7138
   47MOL   H10836080   4.338   1.043   3.436 -0.1636 -0.4006 -0.1870
   47MOL   H10936081   4.462   1.116   3.524 -0.7125 -0.6600 -0.7024
   47MOL   H11036082   4.417   0.910   3.627 -0.0287 -0.4656 -0.9364
   47MOL   H11136083   4.251   0.947   3.636 -0.2608  0.7775 -2.2507
   47MOL   H11236084   4.484   1.094   3.769  0.0903 -0.2000 -1.5032
   47MOL   H11336085   4.444   0.884   3.887 -0.1660  1.4737  2.6863
   47MOL   H11436086   4.386   1.021   3.973 -2.8360 -0.2599  2.0922
   47MOL   H11536087   4.007   0.667   4.142 -0.0626 -0.7578 -0.0585
   47MOL   H11636088   3.780   0.710   4.196  0.1375 -0.3241 -0.0626
   47MOL   H11736089   3.761   1.008   3.880 -2.1052 -1.7256  0.0163
   47MOL   H11836090   4.000   0.993   3.851 -0.8704  0.7258  0.3053
   47MOL   C11936091   2.971   0.953   4.146 -0.2000 -0.7749 -0.1923
   47MOL   C12036092   3.124   0.933   4.135  0.0344 -0.3229 -0.1183
   47MOL   C12136093   3.191   0.877   4.258 -0.9209 -0.2409  0.3558
   47MOL   C12236094   3.343   0.886   4.241 -0.4344  0.6566  0.3274
   47MOL   O12336095   3.394   0.791   4.152  0.1945 -0.6007  0.1865
   47MOL   C12436096   3.152   0.964   4.376  0.0832 -0.4687 -0.4327
   47MOL   C12536097   3.002   0.970   4.401  0.6535 -0.3933  0.0750
   47MOL   C12636098   2.936   1.033   4.272 -0.1799  1.4259  0.1052
   47MOL   C12736099   2.786   1.052   4.294  0.1854 -0.1300  0.7225
   47MOL   O12836100   2.753   1.164   4.382  0.0007 -0.0497  0.1234
   47MOL   C12936101   2.744   1.278   4.323  0.1557  0.6059  0.3448
   47MOL   O13036102   2.767   1.303   4.206  0.3698  0.0287 -0.2718
   47MOL   C13136103   2.721   1.390   4.419 -0.6343  0.0671  0.3643
   47MOL   C13236104   2.711   1.517   4.367 -0.0381  0.2821 -0.5009
   47MOL   C13336105   2.672   1.627   4.446 -0.5973 -0.1059 -0.2323
   47MOL   C13436106   2.656   1.609   4.585  0.0946 -0.7765  0.6682
   47MOL   C13536107   2.603   1.715   4.676 -0.4065 -0.6533 -0.1776
   47MOL   O13636108   2.607   1.707   4.804 -0.1219 -0.6761  0.4968
   47MOL   O13736109   2.528   1.807   4.616  0.1143  0.1615  0.4360
   47MOL   C13836110   2.666   1.475   4.639 -1.1195 -0.0558  0.5256
   47MOL   C13936111   2.708   1.369   4.557 -0.0334 -0.0150 -0.5723
   47MOL   H14036112   2.934   0.999   4.054 -0.3133 -0.7876 -0.1533
   47MOL   H14136113   2.925   0.854   4.139  1.1986 -1.3246 -2.5317
   47MOL   H14236114   3.140   0.869   4.048  0.4041 -0.7064  0.2290
   47MOL   H14336115   3.166   1.032   4.119  1.4418 -0.8138  0.5289
   47MOL   H14436116   3.157   0.775   4.278  0.4000 -0.5239  1.2154
   47MOL   H14536117   3.382   0.974   4.190  1.9613 -0.4423  0.2020
   47MOL   H14636118   3.388   0.863   4.337  0.7549  0.2901 -0.3057
   47MOL   H14736119   3.205   0.945   4.469 -2.2556  0.9729  1.2645
   47MOL   H14836120   3.177   1.067   4.349  0.1034 -0.8472 -1.8953
   47MOL   H14936121   2.975   1.038   4.482 -0.7797  2.1367 -2.4593
   47MOL   H15036122   2.972   0.867   4.423  0.0644 -0.2457 -0.0413
   47MOL   H15136123   2.990   1.123   4.244 -0.4600  1.2253 -1.1074
   47MOL   H15236124   2.733   1.049   4.198  2.2018  0.9487 -0.4651
   47MOL   H15336125   2.747   0.967   4.350  0.0452 -1.3401 -1.1660
   47MOL   H15436126   2.721   1.542   4.263 -1.0132 -2.8660 -1.4049
   47MOL   H15536127   2.657   1.716   4.387  2.4519 -0.8391 -2.2576
   47MOL   H15636128   2.640   1.458   4.742  0.9749 -3.4785  0.5842
   47MOL   H15736129   2.710   1.268   4.594  2.1040 -0.5000 -1.9118
   47MOL   C15836130   2.117   2.090   4.847  0.0061 -0.6434 -0.0610
   47MOL   C15936131   2.233   2.069   4.754  0.0749  0.4209 -0.2610
   47MOL   C16036132   2.367   2.062   4.826 -0.0771  0.1016  0.2543
   47MOL   C16136133   2.480   2.004   4.739  0.0317 -0.3181 -0.4360
   47MOL   O16236134   2.441   1.876   4.709  0.8085 -0.2592  0.1195
   47MOL   C16336135   2.389   2.206   4.877 -0.3058  0.6470  0.8209
   47MOL   C16436136   2.275   2.254   4.965 -0.0823 -0.1290 -0.5712
   47MOL   C16536137   2.128   2.234   4.915 -0.1762 -0.2488  0.1599
   47MOL   C16636138   2.031   2.269   5.032  0.3031 -0.5969 -0.9963
   47MOL   O16736139   1.901   2.294   4.978 -0.2053 -0.1370  0.5801
   47MOL   C16836140   1.859   2.425   4.976  0.5088  0.1576  0.1784
   47MOL   O16936141   1.916   2.521   5.032  0.5932  0.1942  0.3651
   47MOL   C17036142   1.735   2.442   4.904 -0.1964  0.3512  0.1125
   47MOL   C17136143   1.659   2.335   4.854  0.1233  0.4635  0.1640
   47MOL   C17236144   1.543   2.354   4.776 -0.0708  0.0469  0.1257
   47MOL   C17336145   1.499   2.486   4.747  0.1997 -0.3700 -0.2692
   47MOL   C17436146   1.381   2.504   4.664 -0.3528 -1.0560  0.3264
   47MOL   O17536147   1.323   2.607   4.642  0.0980  0.1258  0.3810
   47MOL   O17636148   1.346   2.391   4.602  1.3766 -0.1727 -0.0916
   47MOL   C17736149   1.570   2.596   4.794 -0.0398  0.3720 -0.7297
   47MOL   C17836150   1.692   2.575   4.870  0.0079  0.4973 -0.0494
   47MOL   H17936151   2.028   2.077   4.785 -0.1885 -0.5725  0.2008
   47MOL   H18036152   2.117   2.016   4.927  1.4268 -2.0206 -1.2821
   47MOL   H18136153   2.208   1.972   4.710  1.7899 -0.2568  0.2249
   47MOL   H18236154   2.233   2.140   4.672 -1.2651  1.3900  0.5559
   47MOL   H18336155   2.357   1.995   4.910 -1.5801  0.0501  0.0620
   47MOL   H18436156   2.503   2.057   4.646 -0.0502 -0.5748 -0.6037
   47MOL   H18536157   2.566   2.010   4.806 -0.6873  2.0605  0.3115
   47MOL   H18636158   2.481   2.214   4.935  1.7697 -0.4680 -2.1367
   47MOL   H18736159   2.401   2.270   4.789 -0.9469  0.5380  0.6563
   47MOL   H18836160   2.308   2.357   4.984 -0.3206 -0.6823  3.2975
   47MOL   H18936161   2.287   2.210   5.064 -0.4727 -2.7453 -1.6459
   47MOL   H19036162   2.118   2.307   4.835 -2.1202  2.6712  2.9614
   47MOL   H19136163   2.044   2.198   5.113  0.6004  0.7052  0.1207
   47MOL   H19236164   2.071   2.356   5.085  0.8727 -0.8364 -1.0343
   47MOL   H19336165   1.684   2.234   4.882  1.9260  0.3685 -1.6564
   47MOL   H19436166   1.500   2.258   4.749  0.7173 -0.9929  2.4756
   47MOL   H19536167   1.535   2.697   4.775  2.2315  1.3420  0.0170
   47MOL   H19636168   1.753   2.653   4.912  0.4701 -0.8628  1.8781
   47MOL   C19736169   0.829   2.128   4.575 -0.6790  0.1866  0.3936
   47MOL   C19836170   0.900   2.259   4.573  0.2359 -0.9503  0.5087
   47MOL   C19936171   1.048   2.258   4.551 -0.3732  0.1079 -0.0306
   47MOL   C20036172   1.106   2.397   4.560 -0.0097  0.0701  0.4161
   47MOL   O20136173   1.239   2.411   4.493 -0.4473  0.2897 -0.4181
   47MOL   C20236174   1.113   2.151   4.645  0.7888  0.4429 -0.2111
   47MOL   C20336175   1.036   2.016   4.651  0.1061 -0.0316 -0.0083
   47MOL   C20436176   0.887   2.039   4.679 -0.1730  0.3665  0.3489
   47MOL   C20536177   0.833   1.894   4.658 -0.2355 -0.0097 -0.3860
   47MOL   O20636178   0.698   1.895   4.716  0.1665  0.8963  0.4225
   47MOL   C20736179   0.616   1.792   4.685  0.2244 -0.0216 -0.2558
   47MOL   O20836180   0.659   1.689   4.628 -0.1866 -0.0939  0.1343
   47MOL   C20936181   0.465   1.813   4.715  0.2432  0.1520 -0.0908
   47MOL   C21036182   0.416   1.928   4.781  0.8602 -1.2720 -0.1609
   47MOL   C21136183   0.276   1.941   4.804  0.5801 -0.1830 -0.0222
   47MOL   C21236184   0.192   1.832   4.770  0.1125 -0.5154 -0.0746
   47MOL   C21336185   0.053   1.842   4.798 -0.4158  0.5985  0.1313
   47MOL   O21436186   8.032   1.944   4.837 -0.1445 -0.0114 -0.4219
   47MOL   O21536187   8.022   1.723   4.791  0.0298 -0.5790  0.3269
   47MOL   C21636188   0.247   1.718   4.705  0.0286  0.1363 -0.1421
   47MOL   C21736189   0.382   1.712   4.666 -0.0640 -0.1965 -1.3110
   47MOL   H21836190   0.725   2.138   4.607 -0.1572 -0.2786  2.2876
   47MOL   H21936191   0.830   2.087   4.474 -3.0781 -0.4770  0.6101
   47MOL   H22036192   0.860   2.323   4.494  1.2362  0.2183  0.9234
   47MOL   H22136193   0.871   2.310   4.665  2.7139  1.3481  0.0806
   47MOL   H22236194   1.057   2.221   4.449 -0.7127  0.8117 -0.3178
   47MOL   H22336195   1.037   2.462   4.505  0.1456  0.2429  0.4246
   47MOL   H22436196   1.100   2.431   4.663 -0.0152  0.6776  0.2211
   47MOL   H22536197   1.218   2.132   4.624  0.5442 -0.1163 -0.9879
   47MOL   H22636198   1.120   2.195   4.744 -0.2748  0.2765 -0.0515
   47MOL   H22736199   1.087   1.960   4.728  1.7284  1.7400  0.2391
   47MOL   H22836200   1.040   1.971   4.552 -0.3452  2.2845 -1.1306
   47MOL   H22936201   0.874   2.079   4.780  0.6506  0.8444  0.2651
   47MOL   H23036202   0.831   1.872   4.551  0.2399 -1.2550 -0.1450
   47MOL   H23136203   0.884   1.811   4.706 -1.3340 -0.1876  0.4671
   47MOL   H23236204   0.486   2.003   4.815  2.8049 -2.6787 -0.9728
   47MOL   H23336205   0.236   2.031   4.847 -0.1715  0.7337 -2.5590
   47MOL   H23436206   0.186   1.632   4.682  1.4694 -0.6684 -1.0007
   47MOL   H23536207   0.418   1.621   4.622  3.6679 -0.0036  1.1425
   47MOL   C23636208   7.886   1.523   4.413 -0.0629  0.2307 -0.4099
   47MOL   C23736209   7.900   1.636   4.518  0.0147 -0.4089  0.5653
   47MOL   C23836210   7.795   1.624   4.625  0.9883 -0.3019 -0.0155
   47MOL   C23936211   7.802   1.742   4.716  0.3632 -0.0944  0.0566
   47MOL   O24036212   7.876   1.717   4.830  0.0646  0.1010  0.2935
   47MOL   C24136213   7.656   1.604   4.559  0.0902  0.7802  0.0963
   47MOL   C24236214   7.652   1.479   4.465  0.2004  0.2315  0.1254
   47MOL   C24336215   7.748   1.508   4.353  0.0505  0.1454 -0.4036
   47MOL   C24436216   7.755   1.386   4.250 -0.4765  0.2786  0.3360
   47MOL   O24536217   7.798   1.427   4.123  0.2943 -0.4202  0.2953
   47MOL   C24636218   7.940   1.415   4.096  0.2065  0.2014  0.4503
   47MOL   O24736219   8.024   1.359   4.164 -0.6779  0.0893  0.5850
   47MOL   C24836220   7.966   1.464   3.963  0.2280 -0.1450  0.1726
   47MOL   C24936221   0.063   1.458   3.913 -0.3317  0.6267  0.4177
   47MOL   C25036222   0.094   1.498   3.782 -0.3122  0.6290  0.4999
   47MOL   C25136223   8.029   1.559   3.701  0.1024  0.5062  0.7590
   47MOL   C25236224   0.029   1.633   3.570 -0.2949  0.1260 -0.0650
   47MOL   O25336225   0.145   1.671   3.556 -0.0068  0.3075 -0.2836
   47MOL   O25436226   7.969   1.663   3.495  0.5505 -0.1396  0.3365
   47MOL   C25536227   7.895   1.567   3.750 -0.0906 -0.5857 -0.1337
   47MOL   C25636228   7.859   1.508   3.877 -0.0846  0.4724  0.0612
   47MOL   H25736229   7.964   1.540   4.339  0.9969 -0.8823  0.4369
   47MOL   H25836230   7.920   1.429   4.456 -2.8928 -0.7396 -0.1581
   47MOL   H25936231   7.993   1.610   4.567 -1.6635 -1.7584  3.1303
   47MOL   H26036232   7.921   1.734   4.474  0.1044  0.1357  1.8096
   47MOL   H26136233   7.804   1.534   4.686  0.3915 -1.7683 -2.0609
   47MOL   H26236234   7.837   1.824   4.654  1.1497 -0.3822  0.1211
   47MOL   H26336235   7.700   1.768   4.746  1.3090  2.0535  1.4840
   47MOL   H26436236   7.593   1.582   4.645 -0.7247  3.3428  0.1746
   47MOL   H26536237   7.621   1.700   4.521 -0.8209  1.3387  2.2592
   47MOL   H26636238   7.553   1.472   4.419  0.3211 -3.4573  0.3031
   47MOL   H26736239   7.679   1.383   4.507  0.2866  0.7863  1.3534
   47MOL   H26836240   7.710   1.599   4.306 -1.7049  0.5452  1.6924
   47MOL   H26936241   7.810   1.306   4.299 -1.0005 -0.0890  0.3303
   47MOL   H27036242   7.654   1.349   4.231 -0.9493  1.7210  0.0258
   47MOL   H27136243   0.138   1.410   3.974 -1.4142 -1.7552 -0.0834
   47MOL   H27236244   0.196   1.486   3.751 -0.3034  1.3990  0.2278
   47MOL   H27336245   7.819   1.607   3.684 -2.2631 -1.6188  1.6745
   47MOL   H27436246   7.754   1.506   3.905 -0.0434  0.2125  0.2039
   47MOL   C27536247   7.757   2.148   3.213 -0.3378 -0.6772 -0.5135
   47MOL   C27636248   7.853   2.097   3.313 -0.4692 -0.0597 -0.0354
   47MOL   C27736249   7.869   1.940   3.317  0.2972 -0.4610 -0.0146
   47MOL   C27836250   7.978   1.888   3.413  0.0938  0.1097  0.6381
   47MOL   O27936251   8.007   1.753   3.382  0.4815 -0.1202 -0.4717
   47MOL   C28036252   7.732   1.888   3.347 -0.1331 -0.3625  0.0870
   47MOL   C28136253   7.627   1.938   3.246  0.7888 -0.2510 -0.4835
   47MOL   C28236254   7.616   2.094   3.239  0.0647 -0.5351  0.2605
   47MOL   C28336255   7.529   2.142   3.118  0.6763 -0.0568  0.0469
   47MOL   O28436256   7.523   2.282   3.110 -0.3280 -0.3149  0.0826
   47MOL   C28536257   7.426   2.349   3.174 -0.6556  0.1635 -0.7226
   47MOL   O28636258   7.326   2.295   3.223 -0.0220 -0.1620 -0.1194
   47MOL   C28736259   7.456   2.495   3.180  0.9744 -0.8332  0.4390
   47MOL   C28836260   7.372   2.574   3.266 -0.3625  0.1621 -0.0982
   47MOL   C28936261   7.395   2.711   3.269  0.6608 -0.2817 -0.6293
   47MOL   C29036262   7.511   2.774   3.214 -0.4793  0.1842 -0.1655
   47MOL   C29136263   7.540   2.918   3.220  0.7393 -0.5454  0.5399
   47MOL   O29236264   7.617   2.972   3.140  0.0693  0.3470 -0.0258
   47MOL   O29336265   7.482   2.976   3.325 -0.4185  0.7979 -0.0797
   47MOL   C29436266   7.598   2.690   3.148  0.4134 -0.3688  0.0778
   47MOL   C29536267   7.574   2.559   3.125  0.3796  0.8221 -0.2791
   47MOL   H29636268   7.754   2.257   3.203  1.0662 -0.6849 -1.1733
   47MOL   H29736269   7.788   2.117   3.113  0.9234  1.0330 -0.6903
   47MOL   H29836270   7.953   2.134   3.289 -0.9874 -0.8011 -3.4619
   47MOL   H29936271   7.827   2.132   3.413  0.2253  2.3189 -0.6494
   47MOL   H30036272   7.885   1.912   3.213  2.0465  0.7790 -0.1000
   47MOL   H30136273   0.031   1.951   3.403 -0.0833  0.2991  0.2929
   47MOL   H30236274   7.944   1.890   3.517  0.1395  2.2895  0.6277
   47MOL   H30336275   7.735   1.781   3.367 -0.6777 -0.6671 -1.3750
   47MOL   H30436276   7.708   1.930   3.445  0.2954 -0.3773  0.1975
   47MOL   H30536277   7.532   1.897   3.282  1.0182 -0.2010  0.1897
   47MOL   H30636278   7.654   1.891   3.151 -0.0563 -1.8070  0.0145
   47MOL   H30736279   7.577   2.133   3.333 -0.3973  0.6368 -0.4132
   47MOL   H30836280   7.557   2.102   3.021  1.5130 -0.5068  0.4741
   47MOL   H30936281   7.431   2.093   3.111  0.4226  0.5381 -0.5710
   47MOL   H31036282   7.275   2.544   3.303 -1.0587  2.2024 -0.2249
   47MOL   H31136283   7.318   2.771   3.315  0.1845 -0.9111 -0.5925
   47MOL   H31236284   7.687   2.737   3.110 -1.2279  1.4907 -1.6393
   47MOL   H31336285   7.638   2.499   3.062 -2.3749 -1.8504 -0.6304
   47MOL   C31436286   7.861   2.801   3.535 -0.2785  0.1490 -0.7399
   47MOL   C31536287   7.731   2.880   3.536 -0.7366 -0.0063 -0.0058
   47MOL   C31636288   7.752   3.021   3.461  0.3332  0.6403  0.2095
   47MOL   C31736289   7.621   3.109   3.470  0.0976  0.1463 -0.0514
   47MOL   O31836290   7.538   3.113   3.355  0.2613 -0.3511  0.6897
   47MOL   C31936291   7.878   3.096   3.519 -0.0526  0.1722  0.0795
   47MOL   C32036292   8.002   3.004   3.508  0.0677  0.1114 -0.1005
   47MOL   C32136293   7.983   2.875   3.595 -0.7350 -0.2390  0.3183
   47MOL   C32236294   0.075   2.787   3.605 -0.0599  0.8209 -0.2251
   47MOL   O32336295   0.169   2.850   3.684 -0.0324 -0.0202  0.1781
   47MOL   C32436296   0.291   2.794   3.691 -0.1491  0.3562 -0.2435
   47MOL   O32536297   0.335   2.699   3.623  0.7830  0.4164  0.2148
   47MOL   C32636298   0.359   2.846   3.810 -0.8238  0.2531  0.2256
   47MOL   C32736299   0.475   2.782   3.851 -0.2980  0.1803  0.4826
   47MOL   C32836300   0.546   2.831   3.964  0.4119 -0.3855  0.1524
   47MOL   C32936301   0.501   2.944   4.040 -0.0684 -0.3792 -0.2769
   47MOL   C33036302   0.566   2.985   4.159 -0.1187  0.1323 -0.6558
   47MOL   O33136303   0.544   3.099   4.214 -0.0565  0.1243  0.2161
   47MOL   O33236304   0.642   2.892   4.213  0.4356  0.1272 -0.1421
   47MOL   C33336305   0.399   3.020   3.984  1.0741 -0.4704 -0.6118
   47MOL   C33436306   0.329   2.974   3.870 -0.0045  0.0020  0.3636
   47MOL   H33536307   7.858   2.707   3.591  0.5244  0.8495  0.4922
   47MOL   H33636308   7.875   2.772   3.430  1.4961 -0.3375 -0.3949
   47MOL   H33736309   7.646   2.824   3.496 -0.7915  1.1168 -1.5406
   47MOL   H33836310   7.702   2.904   3.638 -1.6600  0.8788 -0.4644
   47MOL   H33936311   7.781   3.011   3.356  0.5949 -1.4171  0.4611
   47MOL   H34036312   7.571   3.086   3.565  2.1269  1.8627  1.4711
   47MOL   H34136313   7.648   3.214   3.479  0.1382  0.0809  0.6248
   47MOL   H34236314   7.884   3.195   3.473 -0.4627  0.0667 -0.2006
   47MOL   H34336315   7.870   3.119   3.625  1.1070  0.2742  0.1514
   47MOL   H34436316   0.053   3.057   3.547  0.8990 -1.7736  0.7167
   47MOL   H34536317   8.021   2.974   3.405  1.9544  1.6601 -0.2371
   47MOL   H34636318   7.962   2.899   3.700  2.5717  2.1072  0.5228
   47MOL   H34736319   0.054   2.691   3.652  2.1389  1.3193  1.8880
   47MOL   H34836320   0.094   2.764   3.500  0.6645 -0.2388  0.1344
   47MOL   H34936321   0.519   2.702   3.794 -1.5318 -0.4339  0.3810
   47MOL   H35036322   0.627   2.770   4.000  0.9022  0.9446  1.3520
   47MOL   H35136323   0.373   3.111   4.035  2.4707  1.6735 -3.5846
   47MOL   H35236324   0.238   3.026   3.848 -0.6979 -0.8183  1.2548
   47MOL   C35336325   1.013   2.784   4.594  0.0486 -0.0750 -0.3017
   47MOL   C35436326   0.924   2.817   4.478  0.4435  0.0769 -1.0393
   47MOL   C35536327   0.913   2.965   4.451 -0.7990  0.3843 -0.6932
   47MOL   C35636328   0.821   2.992   4.333  0.2246 -0.8360  0.2628
   47MOL   O35736329   0.693   2.926   4.348  0.0803 -0.0766 -0.1088
   47MOL   C35836330   0.861   3.031   4.577  0.4886  0.1352  0.2053
   47MOL   C35936331   0.967   3.013   4.691 -0.5629  0.1114  0.0881
   47MOL   C36036332   0.980   2.867   4.720 -0.1600 -0.0042 -0.2053
   47MOL   C36136333   1.078   2.828   4.833  0.3687 -0.5652  0.2122
   47MOL   O36236334   1.071   2.688   4.861  0.2271  0.9273  0.0900
   47MOL   C36336335   1.112   2.643   4.974 -0.1527  0.0996 -0.3380
   47MOL   O36436336   1.170   2.707   5.062  0.1815 -0.0503 -0.5861
   47MOL   C36536337   1.102   2.494   4.991 -0.5503  0.4067 -0.2005
   47MOL   C36636338   1.183   2.427   5.085  0.0844  0.1545  0.5685
   47MOL   C36736339   1.161   2.293   5.126  0.3931  0.5230 -0.7025
   47MOL   C36836340   1.052   2.226   5.063 -0.9580  0.4521  0.3887
   47MOL   C36936341   1.025   2.083   5.088  0.0945  0.4263 -0.4229
   47MOL   O37036342   1.097   2.015   5.156 -0.2610  0.3144 -0.1425
   47MOL   O37136343   0.920   2.035   5.034  0.4657 -0.2160 -0.4695
   47MOL   C37236344   0.981   2.288   4.960 -0.8877  0.0339  0.6430
   47MOL   C37336345   1.004   2.420   4.924  0.1587 -0.3787  0.2225
   47MOL   H37436346   1.016   2.675   4.605 -1.4495 -0.3838 -2.5057
   47MOL   H37536347   1.115   2.809   4.566  0.7001 -1.9548  0.2890
   47MOL   H37636348   0.961   2.765   4.390 -0.2231  0.6008 -1.6323
   47MOL   H37736349   0.828   2.779   4.511  0.3052  1.1147 -0.1919
   47MOL   H37836350   1.012   3.007   4.437  0.9249 -3.2317  0.0672
   47MOL   H37936351   0.811   3.100   4.336 -0.7110 -0.7966 -3.1075
   47MOL   H38036352   0.869   2.963   4.240  1.2046 -0.5069  0.6546
   47MOL   H38136353   0.837   3.136   4.561  2.2609  0.6062  0.5725
   47MOL   H38236354   0.774   2.979   4.617  0.7324 -0.9527 -0.6593
   47MOL   H38336355   0.943   3.060   4.786  1.7181  0.1429  0.6818
   47MOL   H38436356   1.059   3.065   4.664 -0.4491  0.3955  1.0129
   47MOL   H38536357   0.878   2.844   4.750  0.1093 -0.1272  0.6205
   47MOL   H38636358   1.177   2.842   4.791  1.4334 -1.5158  2.3592
   47MOL   H38736359   1.056   2.897   4.915  0.1776 -0.2582 -0.0907
   47MOL   H38836360   1.260   2.482   5.137  0.5931 -0.0193  0.0072
   47MOL   H38936361   1.222   2.245   5.201 -1.4312  1.0814  1.2089
   47MOL   H39036362   0.899   2.238   4.911  0.8293 -0.6943 -1.5689
   47MOL   H39136363   0.942   2.456   4.844  1.5480 -0.4560 -0.9004
   47MOL   C39236364   0.569   1.524   5.000 -0.1497  0.0518  0.0843
   47MOL   C39336365   0.588   1.675   5.038 -0.5182  0.9905 -0.0985
   47MOL   C39436366   0.739   1.703   5.043  0.2798 -0.0757  0.0856
   47MOL   C39536367   0.766   1.852   5.071 -0.1852  0.3386  0.1917
   47MOL   O39636368   0.904   1.883   5.048 -0.0844  0.4212 -0.3580
   47MOL   C39736369   0.817   1.613   5.141 -0.0950 -0.2829 -0.2378
   47MOL   C39836370   0.782   1.466   5.113 -0.2499 -0.6804  0.4103
   47MOL   C39936371   0.633   1.437   5.103 -0.3870  0.4192  0.6266
   47MOL   C40036372   0.606   1.289   5.075 -0.8166 -0.3554  0.0461
   47MOL   O40136373   0.647   1.253   4.942  0.2923 -0.1916  0.2050
   47MOL   C40236374   0.586   1.158   4.878  0.2052  0.2524  0.5197
   47MOL   O40336375   0.488   1.095   4.924 -0.4655 -0.7842  0.3608
   47MOL   C40436376   0.640   1.128   4.738  0.0821 -0.2055  0.1653
   47MOL   C40536377   0.732   1.213   4.667 -0.2934 -0.2944  0.2475
   47MOL   C40636378   0.795   1.159   4.550  0.8103 -0.7848 -0.7383
   47MOL   C40736379   0.730   1.055   4.477  0.1900 -0.0122 -0.0142
   47MOL   C40836380   0.782   1.023   4.341 -0.4921 -0.2431  0.3622
   47MOL   O40936381   0.717   0.980   4.249  0.1203  0.3333 -0.1806
   47MOL   O41036382   0.916   1.052   4.338  0.1929 -0.3741 -0.0879
   47MOL   C41136383   0.625   0.985   4.543  0.1718  0.1353 -0.0213
   47MOL   C41236384   0.587   1.020   4.674  0.6316 -0.0720  0.4874
   47MOL   H41336385   0.463   1.505   4.985 -0.9448  3.6417  0.6269
   47MOL   H41436386   0.614   1.519   4.901 -0.4020 -0.1592 -0.0215
   47MOL   H41536387   0.524   1.743   4.983 -1.5382  0.0966 -0.0326
   47MOL   H41636388   0.559   1.688   5.143 -0.4090  0.1475  0.0383
   47MOL   H41736389   0.785   1.682   4.946  0.3826  1.0187 -0.1118
   47MOL   H41836390   0.710   1.898   4.990 -1.3819 -0.8739  0.3305
   47MOL   H41936391   0.725   1.891   5.164  1.6134  0.0929  1.1225
   47MOL   H42036392   0.924   1.635   5.147 -0.4654  1.1204  1.9025
   47MOL   H42136393   0.782   1.627   5.244 -2.0457 -0.0248 -0.9150
   47MOL   H42236394   0.827   1.401   5.188 -0.2785 -0.6427  0.4608
   47MOL   H42336395   0.830   1.440   5.019 -1.4632  2.0976 -1.0290
   47MOL   H42436396   0.575   1.452   5.194 -1.4797 -0.3975  0.0794
   47MOL   H42536397   0.657   1.222   5.144 -1.8780 -1.0552  0.1708
   47MOL   H42636398   0.497   1.284   5.077 -0.8833  1.1032  0.4116
   47MOL   H42736399   0.775   1.297   4.719  0.7310 -0.4638 -0.3064
   47MOL   H42836400   0.886   1.204   4.514  0.9092  0.6852  1.2582
   47MOL   H42936401   0.581   0.897   4.498  0.2858 -0.1412  0.4063
   47MOL   H43036402   0.522   0.960   4.735  1.3290 -0.7089  0.6110
   47MOL   C43136403   1.299   1.150   3.919 -0.1319  1.0574  0.7975
   47MOL   C43236404   1.215   1.142   4.047  0.7069 -0.4433  0.4726
   47MOL   C43336405   1.061   1.164   4.018  0.3390 -0.1086  1.0285
   47MOL   C43436406   0.968   1.167   4.139  0.2624  0.3478  0.6365
   47MOL   O43536407   0.984   1.042   4.213 -0.4649 -0.3495  0.1337
   47MOL   C43636408   1.038   1.288   3.928 -0.1136  1.3030 -0.0366
   47MOL   C43736409   1.125   1.286   3.804 -0.0559  0.5238 -0.4607
   47MOL   C43836410   1.275   1.275   3.835 -0.2756  0.4579 -0.1965
   47MOL   C43936411   1.370   1.275   3.709  0.2874 -0.5961 -0.2462
   47MOL   O44036412   1.336   1.166   3.629  0.3059 -0.4915  0.4831
   47MOL   C44136413   1.411   1.127   3.527 -0.8564  0.4307 -0.7268
   47MOL   O44236414   1.522   1.170   3.497 -0.7143  0.1687 -0.1689
   47MOL   C44336415   1.342   1.017   3.457 -0.1776  0.2277 -0.3015
   47MOL   C44436416   1.202   0.991   3.472 -0.0940  0.0167  0.0730
   47MOL   C44536417   1.139   0.895   3.388 -0.2719  0.3902  0.4072
   47MOL   C44636418   1.211   0.806   3.302 -0.4300 -0.4154  0.2762
   47MOL   C44736419   1.148   0.721   3.198  0.0198 -1.1903  0.4630
   47MOL   O44836420   1.209   0.647   3.122 -0.5302  0.5995 -0.1237
   47MOL   O44936421   1.014   0.744   3.200 -0.5700 -0.2456  0.2557
   47MOL   C45036422   1.351   0.823   3.302 -0.1337 -0.5520  0.2948
   47MOL   C45136423   1.416   0.938   3.361  0.0583  0.0699  0.0966
   47MOL   H45236424   1.403   1.140   3.949 -0.1976 -0.3133  0.6051
   47MOL   H45336425   1.273   1.061   3.860 -0.5294  1.2361  0.6964
   47MOL   H45436426   1.229   1.047   4.099 -1.3779 -0.1691  1.6082
   47MOL   H45536427   1.232   1.217   4.124 -1.2241  0.2653  0.2451
   47MOL   H45636428   1.030   1.079   3.958  0.9713  1.6650 -1.9152
   47MOL   H45736429   0.994   1.243   4.213 -2.6740  1.2294  0.8458
   47MOL   H45836430   0.863   1.176   4.112  1.5517 -0.4678 -5.3058
   47MOL   H45936431   0.933   1.285   3.898 -0.2768 -1.4400  0.6917
   47MOL   H46036432   1.042   1.382   3.984  0.0858  1.9594 -1.1186
   47MOL   H46136433   1.102   1.374   3.744  3.1266  2.3575  0.8967
   47MOL   H46236434   1.091   1.204   3.741 -0.0897 -1.6144  2.2518
   47MOL   H46336435   1.297   1.359   3.900 -1.6791 -0.2328  1.2180
   47MOL   H46436436   1.364   1.372   3.661  2.1628 -0.8559 -1.0495
   47MOL   H46536437   1.474   1.257   3.736  0.6266 -1.1700 -1.9219
   47MOL   H46636438   1.143   1.051   3.539 -2.2184 -1.2027 -0.6674
   47MOL   H46736439   1.033   0.882   3.402 -0.5720  0.3204 -1.7095
   47MOL   H46836440   1.411   0.772   3.228  0.1038  0.9199 -0.5549
   47MOL   H46936441   1.517   0.968   3.340 -0.6191  1.9074 -0.6653
   47MOL   C47036442   0.535   0.659   3.395 -0.1671 -0.0709 -0.2703
   47MOL   C47136443   0.680   0.593   3.381 -0.0245  0.4320  0.1473
   47MOL   C47236444   0.737   0.627   3.244 -0.2058  0.4323  0.0691
   47MOL   C47336445   0.875   0.562   3.220  0.3788  0.4862 -0.3238
   47MOL   O47436446   0.935   0.641   3.124  0.1033 -0.2398 -0.0507
   47MOL   C47536447   0.639   0.591   3.131  0.7509 -0.3864  0.9447
   47MOL   C47636448   0.489   0.624   3.157 -0.7166 -0.4130  0.4734
   47MOL   C47736449   0.444   0.588   3.297 -0.6701 -0.4973  0.0641
   47MOL   C47836450   0.294   0.613   3.306 -0.1035 -0.1637  0.3139
   47MOL   O47936451   0.257   0.531   3.412  0.0109 -0.5262 -0.0546
   47MOL   C48036452   0.138   0.474   3.405 -0.0341  0.5593  0.0987
   47MOL   O48136453   0.058   0.498   3.316  0.0728 -0.0239 -0.0822
   47MOL   C48236454   0.120   0.356   3.495  0.0579 -0.6421  0.0744
   47MOL   C48336455   0.213   0.323   3.593 -0.2538 -0.5931  0.5008
   47MOL   C48436456   0.182   0.233   3.698 -0.1543 -0.4967  0.4286
   47MOL   C48536457   0.058   0.165   3.701  0.0565 -0.3140 -0.5758
   47MOL   C48636458   0.029   0.061   3.807  0.2545  0.0104  0.4886
   47MOL   O48736459   0.089   0.057   3.912  0.4198  0.5577  0.1642
   47MOL   O48836460   7.962   8.013   3.783  0.1193  0.3052 -0.4815
   47MOL   C48936461   8.006   0.188   3.598 -0.5413 -0.0560 -0.1981
   47MOL   C49036462   8.031   0.284   3.499 -0.2608 -1.2845  0.0999
   47MOL   H49136463   0.503   0.647   3.499 -0.0412  1.2548 -0.0748
   47MOL   H49236464   0.552   0.766   3.383 -0.0565  0.1642  1.8468
   47MOL   H49336465   0.743   0.641   3.456 -0.4051  0.7999  0.2368
   47MOL   H49436466   0.679   0.484   3.393 -1.0889  0.3862 -0.3237
   47MOL   H49536467   0.759   0.734   3.240  0.0054  0.3262 -2.4031
   47MOL   H49636468   0.921   0.559   3.319  2.1066 -1.3632 -1.1570
   47MOL   H49736469   0.857   0.461   3.184 -1.8585  0.5109  0.6536
   47MOL   H49836470   0.658   0.648   3.040 -2.4630  0.2606  0.5969
   47MOL   H49936471   0.658   0.488   3.103 -0.8540 -0.2000 -0.9657
   47MOL   H50036472   0.432   0.588   3.071  0.0186 -1.2092  0.3110
   47MOL   H50136473   0.479   0.733   3.157 -0.2902 -0.3753  0.9580
   47MOL   H50236474   0.468   0.485   3.322 -1.5908 -0.1405  2.6349
   47MOL   H50336475   0.290   0.719   3.331  1.4235 -0.1913  0.7629
   47MOL   H50436476   0.257   0.593   3.206  1.0854 -0.1435 -0.1446
   47MOL   H50536477   0.314   0.361   3.601 -0.0272 -1.3947  1.6003
   47MOL   H50636478   0.255   0.230   3.778 -0.4369  0.0166  0.7041
   47MOL   H50736479   7.906   0.148   3.583 -0.2903 -0.8048  0.1407
   47MOL   H50836480   7.959   0.314   3.424 -0.3727 -0.5421  0.4984
   47MOL   C50936481   7.722   7.592   3.711 -0.1425  0.4888 -0.0835
   47MOL   C51036482   7.760   7.702   3.808  0.0614 -0.5931  0.3360
   47MOL   C51136483   7.914   7.709   3.831  0.6101  1.0907  0.2750
   47MOL   C51236484   7.945   7.818   3.937  0.8065  0.4016 -0.4395
   47MOL   O51336485   7.891   7.951   3.910 -0.7364  0.1915 -0.5634
   47MOL   C51436486   7.975   7.567   3.870  0.5904 -0.2006 -0.3469
   47MOL   C51536487   7.923   7.453   3.773  0.1394  0.6227 -0.4123
   47MOL   C51636488   7.768   7.447   3.757 -0.2373  0.2961  0.2846
   47MOL   C51736489   7.742   7.337   3.658 -0.3590 -0.5198 -0.0926
   47MOL   O51836490   7.605   7.307   3.633  0.0380  0.6163  0.6067
   47MOL   C51936491   7.563   7.176   3.617 -0.3390 -0.3475  0.5064
   47MOL   O52036492   7.630   7.075   3.625 -0.4923 -0.0150  0.6112
   47MOL   C52136493   7.414   7.167   3.592 -0.7284  0.5754  0.2632
   47MOL   C52236494   7.333   7.281   3.608 -0.0869  0.0897 -0.1673
   47MOL   C52336495   7.197   7.275   3.572 -0.3615  0.5980  0.1302
   47MOL   C52436496   7.142   7.152   3.541  0.1372 -0.5238 -0.7447
   47MOL   C52536497   7.002   7.133   3.513  0.0243  0.4447  0.9908
   47MOL   O52636498   6.944   7.025   3.520  0.6214 -0.2534  0.3651
   47MOL   O52736499   6.941   7.251   3.476  0.3711  0.3284  0.3092
   47MOL   C52836500   7.221   7.038   3.531 -0.3573  0.0244  0.0603
   47MOL   C52936501   7.358   7.046   3.548  0.5429 -0.4674 -0.0073
   47MOL   H53036502   7.613   7.597   3.715 -0.0852  1.6316  0.0695
   47MOL   H53136503   7.752   7.604   3.607  1.0113 -1.6870 -0.0322
   47MOL   H53236504   7.725   7.796   3.767  0.2445 -0.1475  1.1902
   47MOL   H53336505   7.704   7.682   3.900 -0.3092  1.0622  0.4806
   47MOL   H53436506   7.961   7.734   3.736 -0.0786 -1.7839 -0.8722
   47MOL   H53536507   7.898   7.792   4.032 -0.4037  1.0689 -0.8514
   47MOL   H53636508   0.017   7.833   3.954  0.6541 -2.3497  3.7198
   47MOL   H53736509   0.048   7.570   3.867  0.5730  1.4492 -0.0784
   47MOL   H53836510   7.949   7.541   3.972 -1.9571  1.8188 -0.4173
   47MOL   H53936511   7.960   7.361   3.818  2.9882  1.2302 -1.3933
   47MOL   H54036512   7.967   7.452   3.673 -0.5787 -1.7068 -0.7299
   47MOL   H54136513   7.723   7.414   3.850 -3.1495  1.9572 -0.4664
   47MOL   H54236514   7.800   7.367   3.571 -1.4505  0.1949 -0.5676
   47MOL   H54336515   7.795   7.251   3.700 -1.8900 -1.8721 -0.9008
   47MOL   H54436516   7.377   7.376   3.634 -0.3130  0.4266 -1.0147
   47MOL   H54536517   7.138   7.365   3.573  0.0803  0.9145 -1.2738
   47MOL   H54636518   7.192   6.937   3.509  3.4636 -1.1505  0.1994
   47MOL   H54736519   7.417   6.956   3.533  0.2783 -0.2944 -2.2787
   47MOL   C54836520   6.522   7.475   3.131 -1.1038  0.0774 -0.1556
   47MOL   C54936521   6.605   7.346   3.160  0.2808  0.2344  0.3461
   47MOL   C55036522   6.678   7.363   3.290 -0.2387  0.1392  0.2858
   47MOL   C55136523   6.756   7.236   3.320  0.7213 -0.0761  0.4378
   47MOL   O55236524   6.791   7.234   3.461 -0.6297 -0.3908 -0.0761
   47MOL   C55336525   6.775   7.477   3.287  0.1383 -0.1717 -0.4279
   47MOL   C55436526   6.703   7.613   3.251  0.0646 -0.6594  0.8502
   47MOL   C55536527   6.608   7.601   3.127  0.2295  0.4885 -0.3417
   47MOL   C55636528   6.521   7.725   3.097  1.2073  0.5177  0.0025
   47MOL   O55736529   6.446   7.712   2.972  0.3655 -0.4121 -0.4387
   47MOL   C55836530   6.492   7.771   2.864 -0.6613 -0.2978 -0.3861
   47MOL   O55936531   6.602   7.824   2.862  0.0761 -0.1651 -0.0434
   47MOL   C56036532   6.396   7.769   2.745 -0.1672  0.3734  0.3801
   47MOL   C56136533   6.418   7.862   2.644 -0.1690 -0.0569 -0.3312
   47MOL   C56236534   6.349   7.863   2.525  0.7023 -0.2773  0.7249
   47MOL   C56336535   6.244   7.767   2.505 -0.1972 -0.1180 -0.4913
   47MOL   C56436536   6.154   7.779   2.388 -0.0259  0.6917  0.0312
   47MOL   O56536537   6.102   7.684   2.325 -0.5394  0.6908  0.0131
   47MOL   O56636538   6.141   7.903   2.349  0.1274 -0.0263  0.2394
   47MOL   C56736539   6.226   7.667   2.604 -0.1951 -0.2076  0.2798
   47MOL   C56836540   6.306   7.664   2.720  0.3957  0.4746  0.5207
   47MOL   H56936541   6.469   7.459   3.037 -1.4677 -1.3095  0.2716
   47MOL   H57036542   6.444   7.484   3.206  0.5540 -0.5930  1.6684
   47MOL   H57136543   6.536   7.262   3.165  1.1064 -0.4628  0.1442
   47MOL   H57236544   6.669   7.329   3.072  0.1059  4.3467 -0.6619
   47MOL   H57336545   6.600   7.367   3.366  1.4976  0.3027  2.1056
   47MOL   H57436546   6.684   7.157   3.298 -0.6375  1.2162  0.2494
   47MOL   H57536547   6.842   7.213   3.257  0.1520 -0.9105 -0.0364
   47MOL   H57636548   6.810   7.499   3.388 -0.1625 -0.3290 -0.2894
   47MOL   H57736549   6.870   7.472   3.234 -0.3304 -0.3809 -1.2437
   47MOL   H57836550   6.777   7.693   3.249  0.3483 -0.9415 -0.2659
   47MOL   H57936551   6.635   7.644   3.330 -1.7130 -1.8448 -0.1603
   47MOL   H58036552   6.670   7.573   3.041 -0.1406 -1.9921  0.1422
   47MOL   H58136553   6.449   7.746   3.175 -0.6158 -3.2113 -0.5895
   47MOL   H58236554   6.592   7.808   3.093  2.8911 -0.8007  1.5158
   47MOL   H58336555   6.486   7.943   2.666 -1.3428  0.4985  1.3988
   47MOL   H58436556   6.379   7.931   2.447  2.2657 -5.0566 -3.0720
   47MOL   H58536557   6.151   7.592   2.584  0.1394 -0.3443 -0.4855
   47MOL   H58636558   6.283   7.589   2.793  2.1410  0.6391  1.2593
   47MOL   C58736559   5.767   0.055   1.959  1.0472  0.2249 -0.2189
   47MOL   C58836560   5.893   0.031   2.046 -0.4440  0.1125  0.4026
   47MOL   C58936561   5.964   7.928   2.021 -0.2220  0.2218  0.8899
   47MOL   C59036562   6.077   7.920   2.124 -0.9837 -0.0966  0.6078
   47MOL   O59136563   6.024   7.922   2.254  0.1707  0.7046 -0.5348
   47MOL   C59236564   5.868   7.807   2.016 -0.1886 -0.1864 -0.5391
   47MOL   C59336565   5.744   7.842   1.930  1.0220  0.2554 -0.0044
   47MOL   C59436566   5.674   7.969   1.978  0.4755 -0.5858 -0.3789
   47MOL   C59536567   5.542   7.996   1.892 -0.1655 -0.1379 -0.2094
   47MOL   O59636568   5.448   0.057   1.943  0.3830  0.5054  0.6530
   47MOL   C59736569   5.384   0.144   1.871  0.2590  0.4279  0.2259
   47MOL   O59836570   5.413   0.172   1.758  0.0496 -0.2694  0.6385
   47MOL   C59936571   5.281   0.213   1.946 -0.0674  0.1239 -0.3713
   47MOL   C60036572   5.250   0.344   1.904 -0.1216  0.0526  0.1210
   47MOL   C60136573   5.160   0.425   1.980  0.6800  0.5425  1.0353
   47MOL   C60236574   5.093   0.369   2.087  0.2544 -0.1793  0.4000
   47MOL   C60336575   4.999   0.455   2.159 -0.8846 -0.8648  0.7081
   47MOL   O60436576   4.984   0.575   2.136  0.2481  0.4735  0.6338
   47MOL   O60536577   4.927   0.388   2.255  0.3060 -0.6261  0.5988
   47MOL   C60636578   5.109   0.233   2.118 -0.2984  0.3452  0.4317
   47MOL   C60736579   5.209   0.159   2.054 -0.3752 -0.2105  0.3090
   47MOL   H60836580   5.703   0.137   1.992  0.7526  0.0531 -0.3716
   47MOL   H60936581   5.796   0.083   1.858  0.0530  1.3943 -0.1960
   47MOL   H61036582   5.965   0.112   2.042 -0.2822  0.0181  1.3291
   47MOL   H61136583   5.857   0.046   2.148 -2.9377  3.4742 -0.8972
   47MOL   H61236584   6.001   7.923   1.918 -0.6150 -0.3619  0.7777
   47MOL   H61336585   6.135   7.830   2.102 -1.7451 -0.3296 -0.4722
   47MOL   H61436586   6.145   8.005   2.115  0.1411 -1.0726 -0.3490
   47MOL   H61536587   5.914   7.723   1.965  0.2375  0.0499 -0.5467
   47MOL   H61636588   5.839   7.781   2.118 -0.4732 -0.2432 -0.6340
   47MOL   H61736589   5.668   7.763   1.933  0.7965  0.5153  4.3543
   47MOL   H61836590   5.767   7.847   1.824  1.0178  1.9461  0.0616
   47MOL   H61936591   5.657   7.970   2.085  2.0366 -1.4092 -0.1063
   47MOL   H62036592   5.582   8.032   1.797 -0.1289 -0.4648 -0.3188
   47MOL   H62136593   5.501   7.899   1.867 -0.1002 -0.6235  1.5242
   47MOL   H62236594   5.309   0.372   1.818  0.8429  0.3763  0.8808
   47MOL   H62336595   5.142   0.527   1.949 -0.4424 -0.2367 -0.9532
   47MOL   H62436596   5.056   0.187   2.201  2.2198 -0.0040  1.9038
   47MOL   H62536597   5.233   0.061   2.093 -2.3902 -0.1446  1.8268
   47MOL   C62636598   4.730   0.862   2.494 -0.2555 -0.1216 -0.1705
   47MOL   C62736599   4.810   0.743   2.433  0.6523 -0.2965 -0.0568
   47MOL   C62836600   4.772   0.611   2.504 -0.5340 -0.0064  0.4311
   47MOL   C62936601   4.855   0.490   2.450  0.8499  0.2356 -0.3264
   47MOL   O63036602   4.810   0.468   2.320 -0.4371 -0.3568 -0.3156
   47MOL   C63136603   4.800   0.633   2.650 -0.1616 -0.3852 -0.3460
   47MOL   C63236604   4.716   0.747   2.713  0.6641  0.2158 -0.8455
   47MOL   C63336605   4.745   0.875   2.641  0.0271  0.6847  0.5517
   47MOL   C63436606   4.672   0.994   2.712  0.0562  0.5537 -0.2232
   47MOL   O63536607   4.746   1.032   2.826 -0.2282  0.2256  0.0420
   47MOL   C63636608   4.682   1.022   2.944  0.2826 -0.0147  0.4148
   47MOL   O63736609   4.567   0.985   2.955  0.1278  0.5488  0.4901
   47MOL   C63836610   4.774   1.058   3.054  0.1820 -0.5683 -0.1009
   47MOL   C63936611   4.893   1.134   3.027  0.8354 -0.0328 -0.1208
   47MOL   C64036612   4.981   1.158   3.133  0.3827  0.6161 -0.0192
   47MOL   C64136613   4.961   1.111   3.265  0.0643  0.7039  0.9725
   47MOL   C64236614   5.065   1.140   3.362  0.0847  0.0607 -0.5503
   47MOL   O64336615   5.147   1.234   3.351 -0.8471 -0.2203 -0.0288
   47MOL   O64436616   5.064   1.056   3.460  0.2285 -0.0965 -0.2673
   47MOL   C64536617   4.848   1.032   3.290  0.0701  0.2363 -0.4761
   47MOL   C64636618   4.752   1.014   3.192 -0.0256  0.1817  0.9931
   47MOL   H64736619   4.764   0.959   2.458 -0.9243  0.5147  0.8887
   47MOL   H64836620   4.623   0.853   2.473 -0.1056  1.4149 -1.6673
   47MOL   H64936621   4.808   0.722   2.326 -0.1980 -1.8734  0.2553
   47MOL   H65036622   4.914   0.772   2.451  0.3466 -0.1484  1.5694
   47MOL   H65136623   4.665   0.589   2.499 -0.1147 -2.1154  0.1849
   47MOL   H65236624   4.963   0.504   2.450  1.1242 -1.7198 -1.0234
   47MOL   H65336625   4.831   0.404   2.513  1.5046 -1.1342 -1.9207
   47MOL   H65436626   4.781   0.539   2.701 -1.1002  0.4212  0.8346
   47MOL   H65536627   4.908   0.650   2.657 -0.1925 -0.8993  2.0649
   47MOL   H65636628   4.744   0.772   2.815 -0.1447  0.4363 -0.6708
   47MOL   H65736629   4.614   0.710   2.701  1.4277 -1.7791 -1.3659
   47MOL   H65836630   4.852   0.894   2.646 -0.0103  1.5915 -1.4988
   47MOL   H65936631   4.672   1.080   2.645  1.8702  0.3324 -0.5414
   47MOL   H66036632   4.565   0.984   2.725  0.2230  2.1806  2.9613
   47MOL   H66136633   4.902   1.194   2.938  1.0233 -0.2882 -0.2745
   47MOL   H66236634   5.073   1.212   3.115 -0.1968  0.7480 -2.8525
   47MOL   H66336635   4.831   0.979   3.383  1.3916 -1.5502 -1.2030
   47MOL   H66436636   4.676   0.939   3.210 -0.7860  0.4007 -1.1572
   47MOL   C66536637   4.752   1.169   3.782 -0.2597 -0.2662 -0.8519
   47MOL   C66636638   4.884   1.191   3.695 -0.3644  0.4201  0.2254
   47MOL   C66736639   5.010   1.119   3.742 -0.3059  0.5504 -0.4802
   47MOL   C66836640   5.127   1.173   3.662  0.4038 -0.3272  0.5679
   47MOL   O66936641   5.176   1.083   3.559 -0.4314  0.2508 -0.0571
   47MOL   C67036642   5.031   1.138   3.891 -0.0762  0.4101 -0.0309
   47MOL   C67136643   4.903   1.107   3.967  0.2391 -0.1919 -0.5009
   47MOL   C67236644   4.786   1.197   3.922 -1.0161 -0.2788  0.5716
   47MOL   C67336645   4.654   1.160   3.995 -0.2406 -0.3365 -0.2421
   47MOL   O67436646   4.671   1.185   4.141 -0.1833  0.4300  0.0545
   47MOL   C67536647   4.677   1.305   4.201  0.0241 -0.8047 -0.4725
   47MOL   O67636648   4.681   1.409   4.140  0.1345 -0.0100  0.3646
   47MOL   C67736649   4.690   1.287   4.345  0.0377 -0.3818 -0.0022
   47MOL   C67836650   4.668   1.159   4.406  0.5116 -0.5741 -0.1229
   47MOL   C67936651   4.681   1.150   4.545  1.0864 -0.5142 -0.2734
   47MOL   C68036652   4.720   1.258   4.630  0.1659  0.4794  0.5803
   47MOL   C68136653   4.743   1.247   4.776  0.5539  0.8160 -0.1108
   47MOL   O68236654   4.760   1.346   4.847 -0.3656  0.2167 -0.5968
   47MOL   O68336655   4.750   1.122   4.823 -0.0198  0.1566  0.3929
   47MOL   C68436656   4.742   1.381   4.566 -0.7554  0.2787  0.3179
   47MOL   C68536657   4.725   1.397   4.426 -0.7659  0.2211  0.7049
   47MOL   H68636658   4.666   1.229   3.750 -0.5277 -0.6791 -0.9137
   47MOL   H68736659   4.723   1.067   3.755  1.7770 -0.9816 -0.3906
   47MOL   H68836660   4.862   1.163   3.593 -0.6025  0.7248  0.1922
   47MOL   H68936661   4.905   1.298   3.694  1.0165  0.1684  0.8935
   47MOL   H69036662   5.016   1.013   3.715  0.8847  0.8779 -1.5660
   47MOL   H69136663   5.106   1.272   3.621  1.6095  0.8184  2.6071
   47MOL   H69236664   5.205   1.189   3.736 -2.7409  0.7053  3.7896
   47MOL   H69336665   5.116   1.085   3.932 -0.6640 -0.5155  0.0182
   47MOL   H69436666   5.056   1.244   3.903  0.5779  0.3669 -0.9711
   47MOL   H69536667   4.927   1.136   4.069  0.9965  2.8587 -1.4743
   47MOL   H69636668   4.886   1.000   3.951  0.7651 -0.4281  0.4909
   47MOL   H69736669   4.803   1.305   3.931  1.6545 -0.7416  1.5166
   47MOL   H69836670   4.567   1.221   3.973 -0.5439 -0.6629  0.0501
   47MOL   H69936671   4.633   1.056   3.974  0.5634 -0.0833 -2.3882
   47MOL   H70036672   4.642   1.066   4.357 -0.8188 -1.4125  2.0886
   47MOL   H70136673   4.660   1.048   4.572  0.0809 -0.7811 -2.0167
   47MOL   H70236674   4.770   1.466   4.627 -1.8622  1.2561 -0.5212
   47MOL   H70336675   4.735   1.496   4.384  1.9421  0.0205  0.8378
   47MOL   C70436676   4.977   0.983   5.338 -0.5003 -0.6741  0.4970
   47MOL   C70536677   4.924   0.985   5.193 -0.1211 -0.0565 -0.0764
   47MOL   C70636678   5.001   1.075   5.090  0.3692 -0.2849 -0.1311
   47MOL   C70736679   4.929   1.057   4.958 -0.6249 -0.4380 -0.3752
   47MOL   O70836680   4.792   1.101   4.961  0.3108 -0.0022 -0.3978
   47MOL   C70936681   5.016   1.218   5.144  0.1563 -0.3334 -0.0650
   47MOL   C71036682   5.074   1.209   5.275  0.0271  0.0883 -0.8755
   47MOL   C71136683   4.979   1.133   5.378 -0.1013 -0.0334  0.3318
   47MOL   C71236684   5.033   1.150   5.526  0.3962 -0.1246 -0.4698
   47MOL   O71336685   5.158   1.088   5.540  0.1657 -0.1658  0.6713
   47MOL   C71436686   5.170   0.983   5.621  0.4574 -0.0171 -0.0219
   47MOL   O71536687   5.081   0.940   5.696 -0.4134  0.2283 -0.3390
   47MOL   C71636688   5.301   0.913   5.611 -0.3210 -0.9262  0.2034
   47MOL   C71736689   5.388   0.938   5.500 -0.1506 -0.2413 -0.0347
   47MOL   C71836690   5.515   0.885   5.484 -0.0240  0.1521  0.3936
   47MOL   C71936691   5.568   0.803   5.589 -0.2566  0.4410 -0.9585
   47MOL   C72036692   5.703   0.743   5.588  0.1678 -0.0077 -0.0099
   47MOL   O72136693   5.750   0.661   5.668 -0.2806 -0.1867  0.3341
   47MOL   O72236694   5.783   0.800   5.498  0.1174  0.7539 -0.2760
   47MOL   C72336695   5.482   0.760   5.692 -0.4822  0.3655  0.1435
   47MOL   C72436696   5.352   0.822   5.703  0.4629 -0.3704 -0.6015
   47MOL   H72536697   4.904   0.931   5.401 -1.6481 -1.9554 -1.8458
   47MOL   H72636698   5.070   0.926   5.342  0.6342  1.2163  1.7999
   47MOL   H72736699   4.927   0.885   5.150  0.5219  0.9811 -2.4787
   47MOL   H72836700   4.819   1.017   5.196  0.5867  2.4035 -0.1518
   47MOL   H72936701   5.100   1.029   5.087  0.5236  0.0136  0.2979
   47MOL   H73036702   4.995   1.103   4.885 -1.3920  2.4318  0.6493
   47MOL   H73136703   4.916   0.951   4.938 -0.4020 -0.9653  2.1365
   47MOL   H73236704   5.087   1.265   5.076 -0.8246  2.4671  0.7796
   47MOL   H73336705   4.925   1.274   5.128  0.2388 -0.6102 -1.5753
   47MOL   H73436706   5.107   1.307   5.311 -1.0580  0.4500 -0.8457
   47MOL   H73536707   5.171   1.161   5.262  0.3770  0.4904  0.1908
   47MOL   H73636708   4.879   1.177   5.371  0.7217  1.8302 -0.0937
   47MOL   H73736709   5.031   1.255   5.557  0.1127 -0.2352 -0.1057
   47MOL   H73836710   4.965   1.113   5.603  1.4272  0.0712  0.5555
   47MOL   H73936711   5.346   1.004   5.426 -0.7713  0.1839  0.6893
   47MOL   H74036712   5.572   0.891   5.393 -1.6598  2.7183 -0.5316
   47MOL   H74136713   5.520   0.690   5.765  0.5355  0.4284 -0.3271
   47MOL   H74236714   5.290   0.803   5.790  0.4086  0.9671 -0.3429
   47MOL   C74336715   6.334   0.704   5.626  0.5669 -0.0042  0.3534
   47MOL   C74436716   6.209   0.767   5.566  0.3415 -0.4442 -0.1525
   47MOL   C74536717   6.111   0.825   5.671 -0.4050  0.0647 -0.8391
   47MOL   C74636718   5.979   0.868   5.607 -0.9631 -0.3040 -0.2429
   47MOL   O74736719   5.932   0.766   5.528  0.0218 -0.0203 -0.1713
   47MOL   C74836720   6.082   0.724   5.787  0.8340  0.5147 -0.4185
   47MOL   C74936721   6.216   0.669   5.846 -0.2379 -0.6593 -0.5278
   47MOL   C75036722   6.303   0.608   5.738 -0.0150  0.3210 -0.6024
   47MOL   C75136723   6.433   0.549   5.800  0.7593  0.2305  0.0401
   47MOL   O75236724   6.409   0.468   5.915 -0.0114  0.6228  0.0773
   47MOL   C75336725   6.491   0.371   5.964 -0.4580  0.3803 -1.0546
   47MOL   O75436726   6.608   0.352   5.923  0.2750  0.1525 -0.5692
   47MOL   C75536727   6.421   0.296   6.069 -0.4656  0.8543 -0.0171
   47MOL   C75636728   6.303   0.350   6.130 -0.0935 -0.1121 -0.7131
   47MOL   C75736729   6.248   0.293   6.251  0.3331 -0.0255  0.1352
   47MOL   C75836730   6.302   0.166   6.286  0.5251 -0.3927  0.2485
   47MOL   C75936731   6.248   0.090   6.406 -0.0705  0.5056 -0.0615
   47MOL   O76036732   6.162   0.146   6.476  1.2032  0.2322 -0.0463
   47MOL   O76136733   6.313   8.007   6.436 -0.0008  0.2166  0.1663
   47MOL   C76236734   6.417   0.110   6.224  0.2734  0.3433  0.2953
   47MOL   C76336735   6.481   0.178   6.118 -0.1629  0.2998  0.3895
   47MOL   H76436736   6.394   0.653   5.551  1.6297  0.0651  1.1459
   47MOL   H76536737   6.401   0.784   5.657  1.0827  0.0736 -0.9391
   47MOL   H76636738   6.234   0.845   5.494 -1.2412 -1.0804 -1.4241
   47MOL   H76736739   6.156   0.694   5.505 -1.3646 -0.6564  1.5600
   47MOL   H76836740   6.153   0.913   5.720  0.0922 -0.6444  0.0207
   47MOL   H76936741   5.908   0.894   5.685 -1.1027 -0.7839 -0.2067
   47MOL   H77036742   5.979   0.964   5.556  1.1363 -1.1756 -1.9831
   47MOL   H77136743   6.018   0.779   5.855 -0.5236  0.7520 -1.8467
   47MOL   H77236744   6.028   0.636   5.753  1.5941  0.0019 -0.3013
   47MOL   H77336745   6.209   0.596   5.927 -0.6583  2.5422  2.4402
   47MOL   H77436746   6.272   0.751   5.892 -2.5834 -0.3454  1.9850
   47MOL   H77536747   6.247   0.522   5.704 -0.8634  0.9237 -0.7384
   47MOL   H77636748   6.480   0.492   5.720  1.1349 -1.1270  1.2028
   47MOL   H77736749   6.490   0.639   5.826  0.9556  0.0468  0.2456
   47MOL   H77836750   6.267   0.447   6.099  1.6733  0.3887 -1.2795
   47MOL   H77936751   6.162   0.342   6.294 -1.3236 -2.2670 -0.5208
   47MOL   H78036752   6.454   0.014   6.256  1.3008  0.3219 -0.9155
   47MOL   H78136753   6.574   0.143   6.075 -1.2116 -1.5609 -0.4325
   47MOL   H78236754   6.285   7.982   6.522  0.9729 -0.4344  0.3011
   48MOL     C136755   2.488   1.767   7.284  0.1181 -0.7299 -0.1975
   48MOL     C236756   2.583   1.660   7.326  0.7448  0.0537 -0.1491
   48MOL     C336757   2.519   1.574   7.440  0.3199  0.2268 -0.3099
   48MOL     C436758   2.615   1.465   7.488  0.7004  0.5783 -0.0580
   48MOL     O536759   2.555   1.391   7.591  0.2182 -0.2731 -0.0860
   48MOL     C636760   2.482   1.663   7.554  0.6201  0.3966  0.3186
   48MOL     C736761   2.384   1.778   7.514 -0.3965 -0.1169  0.2587
   48MOL     C836762   2.442   1.867   7.399  0.3712  0.4249  0.1603
   48MOL     C936763   2.342   1.974   7.353  0.1339 -0.3151  0.2308
   48MOL    O1036764   2.417   2.090   7.320 -0.6304  0.6367  0.4442
   48MOL    C1136765   2.425   2.193   7.408  0.2818 -0.4674  0.0729
   48MOL    O1236766   2.414   2.178   7.528 -0.2130  0.2018 -0.2906
   48MOL    C1336767   2.432   2.328   7.341  0.0955 -0.4974  0.7038
   48MOL    C1436768   2.471   2.342   7.207  0.7267  0.0926  0.2346
   48MOL    C1536769   2.476   2.470   7.141 -0.4224  0.2320  0.1585
   48MOL    C1636770   2.452   2.586   7.217  0.6297 -0.1604  0.2761
   48MOL    C1736771   2.455   2.719   7.156 -0.1557 -0.2364 -0.2540
   48MOL    O1836772   2.432   2.820   7.217  0.1516 -0.0575  0.4572
   48MOL    O1936773   2.478   2.724   7.022  0.0545 -0.3579  0.5538
   48MOL    C2036774   2.422   2.575   7.355  0.0227 -0.0006 -0.4731
   48MOL    C2136775   2.405   2.448   7.410 -0.3462  0.1233 -0.0094
   48MOL    H2236776   2.527   1.823   7.199 -1.5793 -2.0814 -1.8839
   48MOL    H2336777   2.404   1.714   7.240 -0.8397 -2.7505  3.7678
   48MOL    H2436778   2.578   1.603   7.233 -1.0085  0.5746 -0.3821
   48MOL    H2536779   2.680   1.709   7.337  2.2650 -3.0457  1.0855
   48MOL    H2636780   2.426   1.530   7.403  0.1113  0.5173 -0.1338
   48MOL    H2736781   2.639   1.400   7.404 -1.2164  0.0958 -0.2655
   48MOL    H2836782   2.707   1.511   7.523  0.1341  2.0100 -0.4394
   48MOL    H2936783   2.428   1.598   7.622 -0.8697  1.1526 -0.1303
   48MOL    H3036784   2.566   1.712   7.604  0.2447  1.7536 -0.3376
   48MOL    H3136785   2.353   1.844   7.595  1.0985 -0.1734  0.8999
   48MOL    H3236786   2.289   1.739   7.477 -0.6783  1.2179 -0.4276
   48MOL    H3336787   2.526   1.915   7.448 -1.0211  3.0070  0.1137
   48MOL    H3436788   2.282   1.935   7.271  0.2080  0.4875 -0.2069
   48MOL    H3536789   2.272   1.993   7.435 -0.0352 -1.7524  0.4414
   48MOL    H3636790   2.504   2.253   7.155  1.8683  1.1778 -0.9159
   48MOL    H3736791   2.503   2.468   7.036 -0.3122 -2.2873  0.1925
   48MOL    H3836792   2.399   2.668   7.405 -1.3205 -1.7725  2.3487
   48MOL    H3936793   2.363   2.443   7.509  0.3898 -0.2520  0.2848
   48MOL    H4036794   2.580   1.426   7.675  1.1283 -1.5609  0.1990
   48MOL    C4136795   1.968   2.844   6.975 -0.2580 -0.1624 -0.1424
   48MOL    C4236796   2.088   2.863   6.877  0.0802 -0.7194 -1.3227
   48MOL    C4336797   2.213   2.865   6.966 -0.8461 -0.0682  0.1427
   48MOL    C4436798   2.343   2.854   6.880 -0.4560 -0.8731  0.0070
   48MOL    O4536799   2.462   2.856   6.956  0.0958 -0.1957 -0.3539
   48MOL    C4636800   2.211   2.992   7.054  0.0031  0.5269  0.2523
   48MOL    C4736801   2.093   2.991   7.144 -0.6434 -0.5546  0.1379
   48MOL    C4836802   1.954   2.961   7.091  0.0789  0.3866  0.1950
   48MOL    C4936803   1.862   2.936   7.211 -0.2689  0.7302 -0.8770
   48MOL    O5036804   1.865   3.047   7.296 -0.1402 -0.0189  0.5927
   48MOL    C5136805   1.805   3.040   7.410  0.4509  0.0546  0.2200
   48MOL    O5236806   1.736   2.940   7.442  0.4072 -0.1901  0.1397
   48MOL    C5336807   1.847   3.153   7.496  0.4024  0.7561  0.6274
   48MOL    C5436808   1.862   3.147   7.637  0.0120 -0.3706 -0.6637
   48MOL    C5536809   1.918   3.251   7.708  0.4952  0.3593  0.3410
   48MOL    C5636810   1.973   3.363   7.642  0.9768 -0.6128  0.2287
   48MOL    C5736811   2.045   3.470   7.709 -0.0731  0.0975 -0.1192
   48MOL    O5836812   2.121   3.544   7.646  0.2956  0.2252 -0.1663
   48MOL    O5936813   2.033   3.476   7.843 -0.2296  0.1954  0.0245
   48MOL    C6036814   1.945   3.376   7.505  0.2377 -0.7505 -0.5610
   48MOL    C6136815   1.893   3.271   7.431 -0.2461  0.0777 -0.1722
   48MOL    H6236816   1.878   2.827   6.918 -0.9352 -1.3936  1.2493
   48MOL    H6336817   1.980   2.750   7.029  3.4460 -0.0675 -0.6315
   48MOL    H6436818   2.082   2.774   6.814  0.1259 -1.6141 -0.1007
   48MOL    H6536819   2.076   2.953   6.817 -0.4847  1.2688  1.6626
   48MOL    H6636820   2.218   2.773   7.024  4.0341 -0.9845 -1.5122
   48MOL    H6736821   2.352   2.770   6.812  1.1186 -1.2716  0.6649
   48MOL    H6836822   2.350   2.940   6.814  1.1040 -0.9156  0.0887
   48MOL    H6936823   2.308   2.990   7.104 -0.2150  0.4862  0.6788
   48MOL    H7036824   2.220   3.088   7.003  1.5392  1.0155  1.3909
   48MOL    H7136825   2.097   3.080   7.207  0.6258 -0.1883 -0.4517
   48MOL    H7236826   2.107   2.910   7.216  0.6168 -0.5045 -0.0441
   48MOL    H7336827   1.922   3.054   7.043  0.0595 -0.8610 -2.3042
   48MOL    H7436828   1.761   2.904   7.187 -0.9912  1.0019  1.5668
   48MOL    H7536829   1.908   2.847   7.254 -2.1916  0.3244  0.4166
   48MOL    H7636830   1.828   3.057   7.686 -0.3381  0.3177  0.3780
   48MOL    H7736831   1.926   3.241   7.815 -3.5947  0.3289  0.6978
   48MOL    H7836832   1.989   3.459   7.451 -0.2577 -0.2371 -0.1874
   48MOL    H7936833   1.883   3.277   7.323 -2.3416 -2.2248 -0.1537
   48MOL    C8036834   2.074   4.099   7.959 -0.3869 -0.2243 -0.5273
   48MOL    C8136835   1.997   3.962   7.965  0.6129 -0.3748 -0.2739
   48MOL    C8236836   2.090   3.843   7.930  0.3040  0.0229 -0.0181
   48MOL    C8336837   2.013   3.705   7.918 -0.0171 -0.4278 -0.1584
   48MOL    O8436838   2.106   3.586   7.912  0.0283 -0.1993 -0.4749
   48MOL    C8536839   2.157   3.872   7.797  0.4050 -0.1516  0.4929
   48MOL    C8636840   2.236   4.000   7.797  0.0386 -0.1625  0.0252
   48MOL    C8736841   2.155   4.118   7.826  0.4912 -1.0063 -0.1229
   48MOL    C8836842   2.228   4.249   7.814  0.0292 -0.8181  0.4391
   48MOL    O8936843   2.342   4.265   7.903 -0.0880  0.1069 -0.0745
   48MOL    C9036844   2.465   4.273   7.856 -0.0483  0.8846  0.2425
   48MOL    O9136845   2.496   4.250   7.738 -0.0605 -0.0623 -0.6731
   48MOL    C9236846   2.563   4.280   7.967 -0.2545  0.5969  0.0722
   48MOL    C9336847   2.528   4.341   0.060 -0.0595  0.2871 -0.2160
   48MOL    C9436848   2.620   4.346   0.167  0.5874  0.3779 -0.0170
   48MOL    C9536849   2.753   4.305   0.147  0.5378 -0.1423 -0.1249
   48MOL    C9636850   2.860   4.310   0.252  0.5823 -0.3665  0.5111
   48MOL    O9736851   2.975   4.266   0.248  0.4688 -0.3899 -0.0790
   48MOL    O9836852   2.804   4.362   0.368  0.4178 -0.2006 -0.3000
   48MOL    C9936853   2.793   4.254   0.023 -0.4078  0.4169 -0.4906
   48MOL   C10036854   2.700   4.230   7.950 -0.4729 -0.0872 -0.0285
   48MOL   H10136855   2.002   4.181   7.969 -0.4259 -0.3808  0.5014
   48MOL   H10236856   2.149   4.098   0.002 -0.1409 -1.0058 -0.7645
   48MOL   H10336857   1.955   3.937   0.027  0.7334 -0.2390 -0.1883
   48MOL   H10436858   1.916   3.964   7.892  2.5356  1.3511 -2.4532
   48MOL   H10536859   2.164   3.837   8.010  0.7163 -1.1968 -0.4773
   48MOL   H10636860   1.938   3.683   7.992 -0.7543  2.8071  0.1316
   48MOL   H10736861   1.951   3.704   7.828  0.5074  0.7688 -0.5515
   48MOL   H10836862   2.212   3.780   7.777 -0.9456 -0.5063 -1.8236
   48MOL   H10936863   2.075   3.861   7.726  1.4315  1.5154 -1.0151
   48MOL   H11036864   2.280   3.996   7.697 -2.3536  0.1688 -1.0646
   48MOL   H11136865   2.322   3.987   7.862 -0.4249  1.5340  1.0029
   48MOL   H11236866   2.079   4.121   7.748  0.9708  0.5127 -0.5403
   48MOL   H11336867   2.256   4.262   7.709 -2.9499  0.9925 -0.1805
   48MOL   H11436868   2.156   4.330   7.815 -0.2604 -1.0909  1.5740
   48MOL   H11536869   2.433   4.390   0.077  0.7196  1.1168  2.0242
   48MOL   H11636870   2.590   4.384   0.264 -1.2239 -0.7385 -0.1097
   48MOL   H11736871   2.896   4.222   0.016 -0.8890 -2.1954  3.3159
   48MOL   H11836872   2.736   4.180   7.862  0.7583  0.0375  0.3879
   48MOL   C11936873   2.979   3.923   0.641 -0.3405 -0.4903  0.4856
   48MOL   C12036874   2.928   4.042   0.560  0.4053 -0.7476 -0.2912
   48MOL   C12136875   2.829   4.131   0.645  0.6361  0.0236 -0.1262
   48MOL   C12236876   2.770   4.249   0.565 -0.4217 -0.2444 -0.1948
   48MOL   O12336877   2.869   4.312   0.489 -0.3903  0.8907  0.1367
   48MOL   C12436878   2.720   4.035   0.703  0.3703 -0.1460  0.7022
   48MOL   C12536879   2.776   3.917   0.784 -0.2375 -0.3737  0.5139
   48MOL   C12636880   2.863   3.836   0.696 -0.1132 -0.2517 -0.5346
   48MOL   C12736881   2.919   3.714   0.772  0.1206 -0.2439  0.0443
   48MOL   O12836882   3.006   3.764   0.869 -0.6246 -0.0019 -0.4144
   48MOL   C12936883   3.062   3.700   0.967  0.1518  0.6318  0.7765
   48MOL   O13036884   3.029   3.588   1.005 -0.4917  0.0618  0.4573
   48MOL   C13136885   3.165   3.778   1.035 -0.3905 -0.0702 -0.4407
   48MOL   C13236886   3.231   3.715   1.143  1.1539  0.0778  0.4099
   48MOL   C13336887   3.333   3.785   1.215 -0.0512  0.3779  0.0470
   48MOL   C13436888   3.369   3.910   1.175  0.1525 -0.1589 -0.1460
   48MOL   C13536889   3.477   3.977   1.256 -0.2625 -0.0569  0.7306
   48MOL   O13636890   3.535   3.919   1.349  0.3728 -0.3299 -0.3897
   48MOL   O13736891   3.495   4.103   1.220 -0.6310 -0.1733 -0.6083
   48MOL   C13836892   3.309   3.975   1.064 -0.3352 -0.0170 -0.1178
   48MOL   C13936893   3.203   3.908   0.995  0.2344 -0.0467  0.8323
   48MOL   H14036894   3.051   3.864   0.583  0.8306  1.5543 -0.2132
   48MOL   H14136895   3.030   3.958   0.731 -0.3043  1.3576 -0.2156
   48MOL   H14236896   3.016   4.086   0.513  0.4209 -1.4958 -0.9672
   48MOL   H14336897   2.861   4.018   0.478 -0.5593 -0.7213  0.4801
   48MOL   H14436898   2.877   4.174   0.732 -0.9002 -1.2621  1.3785
   48MOL   H14536899   2.695   4.210   0.495 -1.9974  2.3638 -0.0274
   48MOL   H14636900   2.723   4.328   0.624  0.3844  0.2570 -0.2200
   48MOL   H14736901   2.659   4.102   0.765  0.4878  0.1643  0.4840
   48MOL   H14836902   2.647   3.996   0.632  0.5102 -1.1215  1.0908
   48MOL   H14936903   2.687   3.861   0.812 -2.7168  3.9047  1.7012
   48MOL   H15036904   2.832   3.949   0.872 -1.1994  0.2784  0.9005
   48MOL   H15136905   2.807   3.789   0.615 -0.3533 -0.4170 -0.2734
   48MOL   H15236906   2.848   3.649   0.824 -0.6137  0.6712  0.2054
   48MOL   H15336907   2.967   3.644   0.704  0.3949  0.7619 -0.8049
   48MOL   H15436908   3.204   3.614   1.170  0.7535  0.2211  0.5497
   48MOL   H15536909   3.375   3.740   1.303 -2.1724  0.2339  1.0185
   48MOL   H15636910   3.334   4.073   1.028  0.6748 -0.7394 -1.4396
   48MOL   H15736911   3.157   3.970   0.919  1.1605 -0.1733  0.1637
   48MOL   C15836912   3.519   4.609   1.259 -0.0769 -0.4539  0.4929
   48MOL   C15936913   3.567   4.465   1.314  0.6685  0.0470  0.0729
   48MOL   C16036914   3.448   4.371   1.334  0.1918 -0.8931  0.2657
   48MOL   C16136915   3.499   4.247   1.403  0.6179  0.7175 -0.4210
   48MOL   O16236916   3.588   4.177   1.317  0.3700  0.2164 -0.1487
   48MOL   C16336917   3.332   4.437   1.404  0.7835  0.5202 -0.5503
   48MOL   C16436918   3.286   4.569   1.349  0.2693 -0.1345 -0.3329
   48MOL   C16536919   3.403   4.665   1.344  0.3091  0.4851  0.2100
   48MOL   C16636920   3.374   4.812   1.306 -0.3381 -0.7200 -0.0029
   48MOL   O16736921   3.489   4.886   1.316 -0.0596 -0.1691 -0.2243
   48MOL   C16836922   3.480   5.023   1.339  0.3599  0.1346  0.6002
   48MOL   O16936923   3.366   5.085   1.329 -0.8067  0.5311  0.4345
   48MOL   C17036924   3.609   5.084   1.386 -0.1702 -0.4827  0.3673
   48MOL   C17136925   3.590   5.211   1.453  1.1211  0.2551 -0.0359
   48MOL   C17236926   3.694   5.262   1.536 -0.5305 -0.5554 -0.3539
   48MOL   C17336927   3.817   5.193   1.552  0.1067  0.0912 -0.8657
   48MOL   C17436928   3.930   5.250   1.629 -0.0974 -0.3197 -0.1042
   48MOL   O17536929   3.936   5.366   1.664 -0.3412  0.0740  0.6850
   48MOL   O17636930   4.028   5.160   1.656  0.2697  0.6727  0.9104
   48MOL   C17736931   3.835   5.071   1.486  0.3497  0.1185  0.6393
   48MOL   C17836932   3.736   5.017   1.396  0.3716  0.4881  0.0466
   48MOL   H17936933   3.608   4.672   1.260  0.6658 -1.4948  0.8724
   48MOL   H18036934   3.494   4.601   1.153 -0.3620 -1.3549  0.6292
   48MOL   H18136935   3.647   4.424   1.253 -0.2491  2.1151 -2.6151
   48MOL   H18236936   3.618   4.485   1.408  1.1036  0.2147 -0.1989
   48MOL   H18336937   3.411   4.346   1.234  0.4025  0.5132 -0.1753
   48MOL   H18436938   3.556   4.273   1.492  1.5009 -0.3316 -0.6690
   48MOL   H18536939   3.421   4.174   1.420  0.8064  0.6788  0.2882
   48MOL   H18636940   3.247   4.368   1.400 -0.5998  2.0287  1.5578
   48MOL   H18736941   3.360   4.459   1.507  0.3327  0.2903 -0.3750
   48MOL   H18836942   3.219   4.616   1.421  1.3987  0.6716  0.2135
   48MOL   H18936943   3.234   4.566   1.253  2.2043  1.3461 -1.4684
   48MOL   H19036944   3.451   4.662   1.442 -1.2651 -0.4699  0.9740
   48MOL   H19136945   3.333   4.818   1.205 -1.7054 -2.5083  0.4157
   48MOL   H19236946   3.306   4.852   1.381 -1.6154 -0.0337 -1.4991
   48MOL   H19336947   3.494   5.261   1.457  0.6116 -0.6228 -0.9863
   48MOL   H19436948   3.680   5.350   1.597  0.2676 -0.7246  0.0915
   48MOL   H19536949   3.921   5.009   1.502  0.1171 -0.9222 -1.9296
   48MOL   H19636950   3.763   4.923   1.350  0.5378  1.5973 -2.1843
   48MOL   C19736951   4.369   5.474   2.074  0.7074 -0.1885  0.1660
   48MOL   C19836952   4.250   5.392   2.025  0.1207 -0.6718  0.5721
   48MOL   C19936953   4.269   5.320   1.892 -0.4926 -0.4460  0.0428
   48MOL   C20036954   4.143   5.246   1.847  0.5367  0.1072  0.0786
   48MOL   O20136955   4.157   5.216   1.709 -0.1980 -0.1527  0.3947
   48MOL   C20236956   4.309   5.433   1.795 -0.2322  0.8035 -0.6865
   48MOL   C20336957   4.426   5.524   1.837  0.6454  0.9079 -0.3700
   48MOL   C20436958   4.405   5.589   1.978 -0.1235 -0.3114 -0.0983
   48MOL   C20536959   4.537   5.656   2.016 -0.6255 -0.1371 -0.0408
   48MOL   O20636960   4.529   5.751   2.125 -0.1868  0.5342  0.6873
   48MOL   C20736961   4.626   5.749   2.219  0.1508 -0.4165  0.1463
   48MOL   O20836962   4.709   5.654   2.218 -0.5236  0.6776 -0.0759
   48MOL   C20936963   4.634   5.872   2.305 -0.2005  0.1344 -0.1708
   48MOL   C21036964   4.736   5.882   2.401  0.3534 -0.4755 -0.3681
   48MOL   C21136965   4.737   5.997   2.485  0.0174 -0.6000  0.0103
   48MOL   C21236966   4.643   6.102   2.471 -0.5255 -0.3354  0.7709
   48MOL   C21336967   4.669   6.234   2.534 -0.2209 -0.4419 -0.3041
   48MOL   O21436968   4.780   6.264   2.588 -0.1849 -0.5092  0.0885
   48MOL   O21536969   4.560   6.326   2.536 -0.0719 -0.2415 -0.3953
   48MOL   C21636970   4.536   6.088   2.387 -0.0556  0.0001 -0.3334
   48MOL   C21736971   4.530   5.974   2.300 -0.1447 -0.0002  0.3930
   48MOL   H21836972   4.338   5.518   2.168  1.0499  0.8867 -0.2149
   48MOL   H21936973   4.456   5.408   2.079  0.3075 -0.8209 -1.1078
   48MOL   H22036974   4.224   5.316   2.098  2.0087 -0.7051  1.2544
   48MOL   H22136975   4.159   5.452   2.022  1.0201  0.6573 -0.3646
   48MOL   H22236976   4.352   5.251   1.901 -0.0014 -0.0586 -1.3457
   48MOL   H22336977   4.137   5.156   1.907  1.0755  0.2026  0.2763
   48MOL   H22436978   4.057   5.307   1.876  0.8467  0.9456 -0.7308
   48MOL   H22536979   4.326   5.387   1.698 -0.1326 -0.8463  0.0783
   48MOL   H22636980   4.222   5.492   1.765  0.2667  1.0618 -1.6425
   48MOL   H22736981   4.421   5.608   1.768  1.1112 -0.6278 -2.2958
   48MOL   H22836982   4.515   5.461   1.836 -0.4149 -0.6698  1.2297
   48MOL   H22936983   4.322   5.659   1.980 -0.4686 -0.7299  0.2275
   48MOL   H23036984   4.600   5.570   2.037  2.2902  1.6205 -1.2539
   48MOL   H23136985   4.583   5.712   1.934  1.4073  0.7125  1.6188
   48MOL   H23236986   4.826   5.823   2.396 -0.5510 -1.9431  0.4373
   48MOL   H23336987   4.816   6.017   2.556 -0.3912  2.2743 -0.2976
   48MOL   H23436988   4.458   6.163   2.391 -0.2444 -0.2870  3.6518
   48MOL   H23536989   4.454   5.965   2.224  0.4328  2.4590 -0.5064
   48MOL   C23636990   4.407   6.843   2.672 -0.4612 -0.5840  0.0740
   48MOL   C23736991   4.445   6.707   2.611 -0.0050  0.3654  0.2873
   48MOL   C23836992   4.594   6.682   2.609 -0.0416  0.4001  0.7655
   48MOL   C23936993   4.635   6.553   2.539 -0.4017  0.4849  0.6916
   48MOL   O24036994   4.577   6.450   2.620  0.0255 -0.2022  0.5033
   48MOL   C24136995   4.672   6.792   2.541  0.0795 -0.2943 -0.0327
   48MOL   C24236996   4.637   6.923   2.604 -0.6883  0.0062 -0.2652
   48MOL   C24336997   4.484   6.951   2.597  0.7318 -0.0244 -0.0087
   48MOL   C24436998   4.456   7.101   2.625 -0.5205 -0.5390  0.1568
   48MOL   O24536999   4.324   7.143   2.661  0.6030  0.4555 -0.4848
   48MOL   C24637000   4.229   7.151   2.573  0.2939 -0.3067 -0.0011
   48MOL   O24737001   4.246   7.137   2.449 -0.0451  0.0277 -0.6343
   48MOL   C24837002   4.101   7.160   2.640  0.5507  1.1137 -0.1280
   48MOL   C24937003   4.083   7.197   2.773  0.1494  0.5066  0.2615
   48MOL   C25037004   3.955   7.189   2.828  0.0662  0.6215 -0.3950
   48MOL   C25137005   3.842   7.154   2.747  0.4918  0.9734  0.5044
   48MOL   C25237006   3.706   7.151   2.811 -0.0999  0.6581 -0.2067
   48MOL   O25337007   3.601   7.122   2.749 -0.8127  0.5291  0.0504
   48MOL   O25437008   3.707   7.184   2.944 -0.3175 -0.6945 -0.4051
   48MOL   C25537009   3.860   7.116   2.618 -0.1164 -0.0919 -0.3433
   48MOL   C25637010   3.989   7.113   2.561  0.1898 -0.5034  1.1411
   48MOL   H25737011   4.299   6.855   2.663 -0.3932  0.2919  0.3619
   48MOL   H25837012   4.425   6.859   2.779 -2.0308  0.1851  0.2394
   48MOL   H25937013   4.391   6.623   2.653 -2.8780  2.0204  0.0422
   48MOL   H26037014   4.399   6.727   2.514  1.8013 -0.9272 -0.8664
   48MOL   H26137015   4.629   6.673   2.712 -1.4427  0.8364  1.2955
   48MOL   H26237016   4.597   6.552   2.437 -0.6304  0.8795  0.7719
   48MOL   H26337017   4.743   6.541   2.546 -0.1331  0.9688 -2.1668
   48MOL   H26437018   4.778   6.770   2.550  0.0813 -0.2906 -0.0519
   48MOL   H26537019   4.640   6.791   2.437 -4.2704  0.6327  1.1978
   48MOL   H26637020   4.691   7.008   2.563 -0.7204  0.2001  0.0898
   48MOL   H26737021   4.669   6.934   2.708  1.8235  1.2422 -1.1177
   48MOL   H26837022   4.447   6.931   2.496 -0.0764  0.4035  0.2004
   48MOL   H26937023   4.504   7.128   2.719  0.6328 -0.0286 -0.5680
   48MOL   H27037024   4.504   7.167   2.553 -0.3224 -1.3262 -0.4333
   48MOL   H27137025   4.164   7.219   2.842 -1.0012  0.2481  1.7080
   48MOL   H27237026   3.947   7.214   2.933 -0.0225 -0.9696 -0.0161
   48MOL   H27337027   3.780   7.080   2.556 -1.1820  0.2952  0.7708
   48MOL   H27437028   3.996   7.080   2.458 -0.0344  1.9462  0.3173
   48MOL   C27537029   3.152   7.052   2.956 -0.2715  0.4578 -0.2430
   48MOL   C27637030   3.295   7.105   2.923  0.3095  0.1955  0.4669
   48MOL   C27737031   3.340   7.215   3.022  0.2633  0.0128 -0.0275
   48MOL   C27837032   3.487   7.268   3.004  0.1823  0.1617  0.1011
   48MOL   O27937033   3.573   7.158   3.006  0.1270 -0.0760  0.2076
   48MOL   C28037034   3.234   7.331   3.023  0.3836  0.1720 -0.0003
   48MOL   C28137035   3.098   7.279   3.055  0.6125 -0.5506 -0.1398
   48MOL   C28237036   3.048   7.168   2.956 -0.7432 -0.1721  0.0589
   48MOL   C28337037   2.907   7.115   2.992  0.4244  0.0985  0.0289
   48MOL   O28437038   2.904   7.084   3.131  0.1137  0.0312  0.3996
   48MOL   C28537039   2.796   7.066   3.202 -0.0630 -0.0608 -1.2316
   48MOL   O28637040   2.685   7.068   3.148 -0.0748  0.1829  0.1983
   48MOL   C28737041   2.824   7.045   3.351  0.1597 -0.0331 -0.3033
   48MOL   C28837042   2.718   7.059   3.444  0.7039 -0.5402 -0.2951
   48MOL   C28937043   2.743   7.059   3.581  0.0747 -0.2577  0.2007
   48MOL   C29037044   2.872   7.036   3.631 -0.6928 -0.0036 -0.5038
   48MOL   C29137045   2.894   7.050   3.772  0.6705 -0.1272 -0.1556
   48MOL   O29237046   2.802   7.083   3.850 -0.4546  0.5606 -0.1522
   48MOL   O29337047   3.024   7.023   3.809  1.3619 -0.3330 -0.3246
   48MOL   C29437048   2.978   7.024   3.534 -0.2735  0.0386  0.0729
   48MOL   C29537049   2.957   7.026   3.394  0.5467  0.0563  0.1038
   48MOL   H29637050   3.129   6.978   2.879 -2.3041 -0.3189  1.0769
   48MOL   H29737051   3.144   6.980   3.037 -2.6541 -1.3402 -1.9792
   48MOL   H29837052   3.363   7.021   2.937  0.9126  0.0762 -2.8582
   48MOL   H29937053   3.314   7.141   2.822  0.8478  1.3284  0.9512
   48MOL   H30037054   3.339   7.170   3.121 -0.0786  2.4062  1.0786
   48MOL   H30137055   3.495   7.318   2.907  0.9300 -1.4745 -0.7135
   48MOL   H30237056   3.499   7.348   3.077  2.0785  0.3480 -0.3953
   48MOL   H30337057   3.253   7.405   3.101  1.7852  0.1688 -0.3279
   48MOL   H30437058   3.235   7.381   2.926  1.6205  0.6328  0.2443
   48MOL   H30537059   3.034   7.367   3.054 -0.3983 -1.2817 -1.1697
   48MOL   H30637060   3.112   7.231   3.151  1.8183 -0.5433 -0.3019
   48MOL   H30737061   3.036   7.211   2.857 -0.0472 -3.0067 -1.3299
   48MOL   H30837062   2.823   7.184   2.980  1.1419  0.8542 -0.7732
   48MOL   H30937063   2.883   7.031   2.927  0.2886 -1.0049  1.4611
   48MOL   H31037064   2.616   7.062   3.408  0.4919  2.3246  0.4561
   48MOL   H31137065   2.657   7.077   3.644  1.1078  2.4567  0.9084
   48MOL   H31237066   3.081   7.000   3.557 -0.7866 -0.0286  2.4226
   48MOL   H31337067   3.042   7.021   3.328  0.5569 -0.8652  0.1835
   48MOL   C31437068   3.139   7.535   4.134 -0.1986  0.1601  0.5624
   48MOL   C31537069   3.147   7.438   4.007 -0.0932 -0.0530 -0.2496
   48MOL   C31637070   3.080   7.305   4.039  0.0678 -1.4205  0.7524
   48MOL   C31737071   3.095   7.217   3.913  1.1246  0.3491  0.0494
   48MOL   O31837072   3.052   7.085   3.944 -0.0759 -0.0418 -0.3204
   48MOL   C31937073   3.149   7.246   4.167 -0.0737 -0.6184 -0.0541
   48MOL   C32037074   3.139   7.335   4.293  0.6472  0.3717  0.5568
   48MOL   C32137075   3.194   7.477   4.269  1.2632  0.0825  0.3518
   48MOL   C32237076   3.171   7.570   4.385 -0.0478  0.4403  0.2190
   48MOL   O32337077   3.202   7.501   4.500 -0.2585 -0.2508  0.3145
   48MOL   C32437078   3.141   7.527   4.615 -0.3278 -0.8398  0.6528
   48MOL   O32537079   3.066   7.624   4.632 -0.1876 -0.0885  0.3176
   48MOL   C32637080   3.177   7.422   4.720 -0.4354  0.0181  0.0294
   48MOL   C32737081   3.119   7.433   4.851  0.0599 -0.4450  0.3622
   48MOL   C32837082   3.131   7.333   4.949  0.3820  0.1581  0.0384
   48MOL   C32937083   3.203   7.219   4.918  0.0435  0.1345 -0.3203
   48MOL   C33037084   3.209   7.096   5.011 -0.1242 -0.1478  0.2682
   48MOL   O33137085   3.139   7.086   5.111  0.3809 -0.8715  0.2840
   48MOL   O33237086   3.284   6.988   4.972  0.4061 -0.0869 -0.4374
   48MOL   C33337087   3.264   7.209   4.794 -0.0407 -0.4841 -0.4456
   48MOL   C33437088   3.260   7.307   4.692  0.2757  0.2705 -0.2215
   48MOL   H33537089   3.184   7.629   4.100 -1.4798  0.4112 -0.4961
   48MOL   H33637090   3.034   7.551   4.159 -0.4555 -2.9059  1.7139
   48MOL   H33737091   3.088   7.488   3.930 -1.4106  0.6953  1.2071
   48MOL   H33837092   3.253   7.442   3.984 -0.4391  2.0900 -1.6078
   48MOL   H33937093   2.973   7.320   4.052  0.5332  1.9336  1.0056
   48MOL   H34037094   3.027   7.260   3.839  1.4576  1.8101  0.5581
   48MOL   H34137095   3.195   7.220   3.871  0.8081 -1.2855 -0.8322
   48MOL   H34237096   3.119   7.144   4.190 -1.2042 -0.6062 -1.4109
   48MOL   H34337097   3.258   7.250   4.159  0.0701 -1.1526  1.4897
   48MOL   H34437098   3.203   7.289   4.367  0.5484 -0.7502 -0.0453
   48MOL   H34537099   3.038   7.343   4.334  1.1771  2.6634  1.4808
   48MOL   H34637100   3.301   7.465   4.252  0.9613 -0.6258 -1.1039
   48MOL   H34737101   3.228   7.663   4.382  2.0708 -0.8252  0.3226
   48MOL   H34837102   3.067   7.603   4.376 -0.7240 -1.5828  0.4008
   48MOL   H34937103   3.060   7.517   4.883 -0.2119 -0.7881  0.7773
   48MOL   H35037104   3.081   7.343   5.045  1.2424  0.9516  0.4126
   48MOL   H35137105   3.312   7.120   4.754 -2.1893 -1.5076 -0.8160
   48MOL   H35237106   3.311   7.291   4.598  1.3031 -2.2120  0.7063
   48MOL   C35337107   3.686   6.733   5.360 -0.0025 -0.8023 -0.7889
   48MOL   C35437108   3.647   6.845   5.266  0.7131  0.2481 -0.4582
   48MOL   C35537109   3.509   6.813   5.194  0.1720 -0.5094 -0.0029
   48MOL   C35637110   3.452   6.922   5.105  0.1469 -0.0373  0.3950
   48MOL   O35737111   3.320   6.893   5.075  0.8899 -0.1152  0.3082
   48MOL   C35837112   3.515   6.676   5.123  0.0648 -0.6872  0.1385
   48MOL   C35937113   3.546   6.560   5.221 -1.1146  0.9893 -0.3580
   48MOL   C36037114   3.681   6.588   5.295 -0.6590  0.3885 -0.0230
   48MOL   C36137115   3.721   6.465   5.395 -0.9778 -0.6291 -0.7105
   48MOL   O36237116   3.646   6.488   5.508  0.4138  1.0270 -0.2621
   48MOL   C36337117   3.666   6.414   5.612 -0.1361 -0.4334  0.0414
   48MOL   O36437118   3.764   6.336   5.630  0.0676 -0.1574  0.3955
   48MOL   C36537119   3.570   6.454   5.723  0.4617  0.2368 -0.3223
   48MOL   C36637120   3.595   6.411   5.860 -0.6442  0.4718  0.0332
   48MOL   C36737121   3.516   6.455   5.968  0.1078  0.1428 -0.1672
   48MOL   C36837122   3.399   6.527   5.939 -0.3377 -0.6021  0.2139
   48MOL   C36937123   3.311   6.571   6.054 -0.3240  0.3248  0.1793
   48MOL   O37037124   3.194   6.615   6.040 -0.2757  0.5862  0.2835
   48MOL   O37137125   3.372   6.558   6.166  0.0302  0.0739  0.0376
   48MOL   C37237126   3.359   6.564   5.805 -0.6898  0.2995 -0.2455
   48MOL   C37337127   3.449   6.526   5.701  0.0835  0.9597  0.5887
   48MOL   H37437128   3.782   6.746   5.409 -0.0064  0.1386 -1.0175
   48MOL   H37537129   3.605   6.722   5.433  0.7947 -0.6341  0.1313
   48MOL   H37637130   3.632   6.937   5.323  1.7267  0.8610 -1.1736
   48MOL   H37737131   3.735   6.854   5.202  1.4451 -4.3107 -0.2134
   48MOL   H37837132   3.435   6.795   5.272  0.7240 -0.5549  0.5143
   48MOL   H37937133   3.468   7.013   5.163 -0.7220 -0.3489  1.1306
   48MOL   H38037134   3.511   6.932   5.014  0.2620  0.1595  0.4901
   48MOL   H38137135   3.421   6.654   5.072  1.2308 -2.1753 -1.3915
   48MOL   H38237136   3.598   6.674   5.053 -2.0214  0.7150 -2.4809
   48MOL   H38337137   3.556   6.463   5.173  2.1467  0.4150  1.3737
   48MOL   H38437138   3.463   6.540   5.289  0.6772  0.2728  1.6741
   48MOL   H38537139   3.762   6.594   5.221  0.2420 -0.0517  0.9084
   48MOL   H38637140   3.691   6.377   5.338  0.4323 -1.0766 -0.7945
   48MOL   H38737141   3.827   6.461   5.420 -1.1261 -1.1329 -0.1357
   48MOL   H38837142   3.682   6.347   5.874 -0.2540  0.8288 -0.7614
   48MOL   H38937143   3.534   6.428   6.071  1.1331 -1.9817 -0.8641
   48MOL   H39037144   3.271   6.622   5.783 -1.0049 -0.0031  0.2161
   48MOL   H39137145   3.417   6.557   5.603  2.1634 -1.7167 -1.0335
   48MOL   C39237146   2.963   6.571   6.556 -0.4160 -0.0092  0.5502
   48MOL   C39337147   3.056   6.620   6.441 -0.1936  0.1115 -0.2739
   48MOL   C39437148   3.206   6.630   6.491 -0.4044 -0.9001  0.4163
   48MOL   C39537149   3.300   6.659   6.369 -1.3488  0.1404  0.3123
   48MOL   O39637150   3.280   6.550   6.279 -0.2129 -0.4147  0.3556
   48MOL   C39737151   3.208   6.736   6.608 -0.3247  0.1020  0.1339
   48MOL   C39837152   3.112   6.693   6.719  0.7164  0.1649  0.3769
   48MOL   C39937153   2.970   6.675   6.671  0.4625  0.0029 -0.4938
   48MOL   C40037154   2.876   6.646   6.792  0.4602  0.6836  0.2217
   48MOL   O40137155   2.912   6.548   6.889 -0.5906  0.8159  0.4657
   48MOL   C40237156   2.890   6.415   6.873 -0.4072  0.3901 -0.8826
   48MOL   O40337157   2.816   6.369   6.783  0.3428 -0.8869  0.0814
   48MOL   C40437158   2.950   6.337   6.986  0.0859  0.3245 -0.0228
   48MOL   C40537159   3.026   6.386   7.092 -0.0064  0.3761  0.0194
   48MOL   C40637160   3.068   6.297   7.194 -0.1188  0.4929 -0.1527
   48MOL   C40737161   3.038   6.160   7.188  0.0758 -0.2761  0.7480
   48MOL   C40837162   3.072   6.061   7.296 -0.1125 -0.9920  0.4373
   48MOL   O40937163   3.061   5.942   7.292  0.1964  0.8634 -0.4840
   48MOL   O41037164   3.118   6.128   7.402 -0.0445  0.7415  0.0549
   48MOL   C41137165   2.957   6.112   7.086 -0.2907  0.0663  0.4382
   48MOL   C41237166   2.911   6.198   6.982 -0.0719  0.1169  0.3154
   48MOL   H41337167   2.862   6.560   6.518  0.1211  0.2570 -0.9785
   48MOL   H41437168   3.005   6.477   6.591  0.0532  0.0240  0.0643
   48MOL   H41537169   3.049   6.540   6.367 -0.0030 -2.3534  2.2648
   48MOL   H41637170   3.026   6.712   6.391 -0.3969  0.7259  0.9557
   48MOL   H41737171   3.242   6.535   6.531  1.4893 -0.2330  0.3211
   48MOL   H41837172   3.274   6.750   6.316  0.3791 -0.6209 -1.9059
   48MOL   H41937173   3.407   6.658   6.393  0.4882 -0.5959 -6.7141
   48MOL   H42037174   3.310   6.732   6.644 -0.6583  0.5989  1.1488
   48MOL   H42137175   3.181   6.838   6.580 -0.6019  0.1715  0.6417
   48MOL   H42237176   3.110   6.782   6.783  0.3733  0.3449  0.1194
   48MOL   H42337177   3.161   6.609   6.768  2.5748  0.3091 -1.1503
   48MOL   H42437178   2.929   6.769   6.633 -0.8221 -0.6932 -0.8711
   48MOL   H42537179   2.880   6.735   6.855 -0.0035  1.2989 -0.6107
   48MOL   H42637180   2.776   6.629   6.753 -0.3275  0.6925  2.1750
   48MOL   H42737181   3.039   6.493   7.104 -0.7354  0.3503  1.0534
   48MOL   H42837182   3.118   6.342   7.278  1.2490  1.2715 -1.3711
   48MOL   H42937183   2.927   6.008   7.085  0.5227 -0.1854  1.4045
   48MOL   H43037184   2.849   6.152   6.906  0.3119  0.0847  0.0211
   48MOL   C43137185   3.133   5.692   7.765 -0.2697  0.1946  0.3529
   48MOL   C43237186   3.106   5.795   7.658  0.0716  0.9148 -0.5740
   48MOL   C43337187   3.077   5.933   7.721  0.2694  0.0197 -0.4075
   48MOL   C43437188   3.036   6.051   7.615 -0.7297  1.0636  0.2257
   48MOL   O43537189   3.146   6.044   7.526 -0.3546  0.0806 -0.3572
   48MOL   C43637190   2.959   5.920   7.824  0.2950 -0.2359 -0.8946
   48MOL   C43737191   2.985   5.813   7.930  0.4253 -0.7869 -0.0679
   48MOL   C43837192   3.012   5.683   7.859  0.0904 -0.1783 -0.4081
   48MOL   C43937193   3.040   5.565   7.954 -0.1562  0.5450  0.6452
   48MOL   O44037194   3.079   5.440   7.897 -0.1472  0.0173  0.2751
   48MOL   C44137195   3.021   5.325   7.948 -0.0788 -0.7974 -0.5551
   48MOL   O44237196   2.949   5.323   0.014  0.2353 -0.4846  0.0551
   48MOL   C44337197   3.066   5.204   7.878 -0.4240 -0.0723 -0.1298
   48MOL   C44437198   3.144   5.209   7.759 -0.3926 -0.0878 -0.3718
   48MOL   C44537199   3.194   5.093   7.697 -0.2464  0.0774  0.2024
   48MOL   C44637200   3.177   4.966   7.757 -0.0003 -0.3670 -0.6800
   48MOL   C44737201   3.244   4.844   7.706 -0.3054  0.8217 -0.8162
   48MOL   O44837202   3.237   4.735   7.760 -0.6887 -0.1860 -0.5681
   48MOL   O44937203   3.301   4.870   7.576  0.2606  0.1409 -0.4803
   48MOL   C45037204   3.088   4.961   7.870 -0.2567  0.8293  0.0662
   48MOL   C45137205   3.032   5.079   7.927  1.1378  0.2630  0.5297
   48MOL   H45237206   3.146   5.591   7.726  1.3362 -0.4846  2.5515
   48MOL   H45337207   3.228   5.715   7.813  1.2332  0.4596 -2.6485
   48MOL   H45437208   3.184   5.807   7.584 -0.6162  0.1071 -1.4511
   48MOL   H45537209   3.019   5.775   7.594  2.1638 -2.3307 -2.5269
   48MOL   H45637210   3.162   5.977   7.773 -1.9823  0.5495  2.9995
   48MOL   H45737211   2.953   6.008   7.559  0.1497 -1.9561  1.1439
   48MOL   H45837212   3.017   6.153   7.648  0.8920  1.7099 -0.7948
   48MOL   H45937213   2.946   6.007   7.888  1.5411 -1.6500  1.3440
   48MOL   H46037214   2.858   5.899   7.791 -0.6274  1.1060  1.0153
   48MOL   H46137215   2.894   5.812   7.991 -0.7041  0.5591 -1.7037
   48MOL   H46237216   3.070   5.836   7.994  0.7999  0.0322 -0.8517
   48MOL   H46337217   2.927   5.648   7.800  1.6744 -0.5001 -2.5479
   48MOL   H46437218   3.122   5.587   8.022  2.2551 -0.7213 -1.7519
   48MOL   H46537219   2.946   5.550   8.007  0.3741 -0.1931  1.3975
   48MOL   H46637220   3.185   5.304   7.726 -1.6572  1.5809  2.6835
   48MOL   H46737221   3.254   5.106   7.608  0.6621  1.1813  0.9652
   48MOL   H46837222   3.055   4.867   7.909 -0.5224  0.5975 -0.6997
   48MOL   H46937223   2.967   5.073   8.013  2.0890  0.6471  1.2890
   48MOL   C47037224   2.973   4.921   7.222  0.6634  0.5587 -0.0641
   48MOL   C47137225   3.026   4.846   7.344 -0.3354 -0.0206 -0.1781
   48MOL   C47237226   3.162   4.776   7.322 -0.1820 -0.0677 -0.3237
   48MOL   C47337227   3.212   4.699   7.440  1.0389 -0.1077 -0.5966
   48MOL   O47437228   3.328   4.752   7.499  0.5483 -0.2938 -0.5100
   48MOL   C47537229   3.144   4.678   7.198  0.3278 -0.4425 -0.1460
   48MOL   C47637230   3.102   4.757   7.070 -0.1858  0.4445 -0.3598
   48MOL   C47737231   2.962   4.828   7.102  0.0678  0.0160 -0.2089
   48MOL   C47837232   2.906   4.894   6.977  0.0475 -0.8657 -0.2936
   48MOL   O47937233   3.000   4.996   6.955  0.5966  0.0804  0.3600
   48MOL   C48037234   2.998   5.064   6.846  0.7384 -0.5445  0.0839
   48MOL   O48137235   2.908   5.055   6.759  0.4755  0.1781  0.0945
   48MOL   C48237236   3.124   5.150   6.829 -0.3614  0.3375 -0.1858
   48MOL   C48337237   3.149   5.222   6.709 -0.3670  0.8380 -0.2270
   48MOL   C48437238   3.273   5.276   6.689 -0.6127  0.5012  0.4686
   48MOL   C48537239   3.370   5.284   6.784  0.2907 -0.2864 -0.0634
   48MOL   C48637240   3.500   5.357   6.758  0.3533  0.3600  0.8664
   48MOL   O48737241   3.605   5.339   6.827 -0.1525 -0.2983  0.0067
   48MOL   O48837242   3.480   5.450   6.670 -0.6670 -0.2950  0.1719
   48MOL   C48937243   3.343   5.222   6.905 -0.5392  1.0479 -0.3051
   48MOL   C49037244   3.224   5.149   6.929 -0.3896 -0.4617 -0.5646
   48MOL   H49137245   2.879   4.976   7.224  0.0451 -0.4720 -0.4480
   48MOL   H49237246   3.045   5.003   7.217 -0.5446  1.6986  0.8895
   48MOL   H49337247   3.049   4.919   7.422  0.0607 -0.3030 -0.0234
   48MOL   H49437248   2.951   4.777   7.382 -1.1050  0.1663 -1.3544
   48MOL   H49537249   3.230   4.853   7.288  1.1569 -1.9292 -1.9568
   48MOL   H49637250   3.130   4.708   7.512  1.7791  1.9568  0.0201
   48MOL   H49737251   3.231   4.593   7.425 -0.0592 -0.6907  1.7870
   48MOL   H49837252   3.233   4.619   7.177  1.1410  0.1062  1.6960
   48MOL   H49937253   3.064   4.614   7.235  0.2451  0.1148  0.6464
   48MOL   H50037254   3.098   4.683   6.990 -0.0691 -1.3649  1.2892
   48MOL   H50137255   3.180   4.827   7.039  1.4121 -1.5650 -0.9770
   48MOL   H50237256   2.894   4.744   7.118 -1.5279  1.4170  0.3669
   48MOL   H50337257   2.885   4.825   6.895 -1.5756 -1.3483  0.5043
   48MOL   H50437258   2.809   4.935   7.005  0.2977 -1.5157  1.5373
   48MOL   H50537259   3.079   5.224   6.627  0.2730 -0.1663 -0.8034
   48MOL   H50637260   3.287   5.314   6.589  1.7367 -3.2944 -0.7610
   48MOL   H50737261   3.415   5.243   6.982  0.4862 -0.4404 -0.8508
   48MOL   H50837262   3.205   5.108   7.028 -0.0361  1.2757  0.2434
   48MOL   C50937263   3.491   5.927   6.473  0.2366  0.0326  0.4652
   48MOL   C51037264   3.466   5.799   6.548 -0.0159 -0.8681  0.0494
   48MOL   C51137265   3.539   5.804   6.683 -0.0176  0.2938  0.2171
   48MOL   C51237266   3.524   5.675   6.762 -0.9994  0.3144  0.1020
   48MOL   O51337267   3.588   5.557   6.698 -0.5709 -0.3618  0.5776
   48MOL   C51437268   3.686   5.844   6.667 -0.4177  0.0883  0.3344
   48MOL   C51537269   3.713   5.971   6.578 -0.6924  0.5126 -0.0185
   48MOL   C51637270   3.636   5.961   6.444  0.2659  0.3870  0.7614
   48MOL   C51737271   3.649   6.088   6.363 -0.5344  0.2598 -0.3580
   48MOL   O51837272   3.550   6.099   6.258 -0.0316 -0.2118  0.3928
   48MOL   C51937273   3.587   6.043   6.139 -0.2628 -0.1391  0.5172
   48MOL   O52037274   3.690   5.969   6.125 -0.1173  0.2546 -0.5816
   48MOL   C52137275   3.494   6.081   6.029 -0.1445  0.5763 -0.1113
   48MOL   C52237276   3.542   6.060   5.900  0.5143 -0.1596 -0.3131
   48MOL   C52337277   3.461   6.083   5.784  0.3564 -0.1438 -0.0937
   48MOL   C52437278   3.323   6.125   5.793  0.3718 -0.2734  0.1889
   48MOL   C52537279   3.223   6.133   5.678  0.0996  0.4348  0.3724
   48MOL   O52637280   3.100   6.128   5.686  0.3825 -0.4224 -0.4379
   48MOL   O52737281   3.283   6.144   5.562 -0.2557  0.3325 -0.0317
   48MOL   C52837282   3.283   6.158   5.928  0.4225 -0.4876 -0.1442
   48MOL   C52937283   3.363   6.133   6.041  0.1253 -0.4833  0.0687
   48MOL   H53037284   3.439   5.902   6.380 -1.1211  0.4895  1.0865
   48MOL   H53137285   3.435   6.001   6.529 -1.9485 -1.4440  0.2938
   48MOL   H53237286   3.361   5.776   6.564 -0.4187  0.3305 -0.8694
   48MOL   H53337287   3.513   5.714   6.498  0.4002 -1.3807  1.2731
   48MOL   H53437288   3.481   5.881   6.734  1.1349 -0.5431  2.8593
   48MOL   H53537289   3.576   5.686   6.857 -2.1702  3.3842  0.4518
   48MOL   H53637290   3.425   5.647   6.797 -0.8737  1.4842  1.4062
   48MOL   H53737291   3.738   5.852   6.762 -0.0915  0.7944  0.0963
   48MOL   H53837292   3.739   5.762   6.617 -1.5391 -1.0612  0.9892
   48MOL   H53937293   3.819   5.969   6.552 -0.1381 -0.7822  2.1571
   48MOL   H54037294   3.680   6.057   6.636 -2.9360  0.5772 -1.3413
   48MOL   H54137295   3.666   5.882   6.376 -1.0197  1.0491 -0.6082
   48MOL   H54237296   3.610   6.163   6.432 -0.7868 -0.6803  0.5296
   48MOL   H54337297   3.754   6.104   6.339 -0.2584 -1.9789 -0.7891
   48MOL   H54437298   3.642   6.021   5.887  1.5765  3.0315 -2.4097
   48MOL   H54537299   3.501   6.055   5.688  1.9276 -3.1358  1.3569
   48MOL   H54637300   3.187   6.207   5.941  1.1734  1.3812 -1.3359
   48MOL   H54737301   3.313   6.146   6.135 -2.2674 -1.0510 -1.0716
   48MOL   C54837302   3.089   6.442   5.033 -0.3397 -0.0717  0.3815
   48MOL   C54937303   3.169   6.419   5.171  0.2514  0.2893  0.2185
   48MOL   C55037304   3.122   6.287   5.240 -0.1969  0.8860 -1.0502
   48MOL   C55137305   3.194   6.270   5.380 -0.0238  0.6885 -0.3651
   48MOL   O55237306   3.196   6.144   5.441  0.3012 -0.7433  0.4519
   48MOL   C55337307   2.962   6.291   5.256 -0.3460  0.1198 -0.6336
   48MOL   C55437308   2.898   6.297   5.120 -0.2851  0.2885  0.4187
   48MOL   C55537309   2.936   6.424   5.045 -0.0354  0.0074 -0.7431
   48MOL   C55637310   2.863   6.427   4.909  0.0062 -0.6209 -0.2029
   48MOL   O55737311   2.725   6.446   4.924  0.4142 -0.3266  0.0964
   48MOL   C55837312   2.643   6.501   4.830  0.3051  0.5558  0.2117
   48MOL   O55937313   2.674   6.519   4.712 -0.3779  0.1082 -0.9174
   48MOL   C56037314   2.502   6.510   4.882  0.1481  0.2795 -0.7052
   48MOL   C56137315   2.471   6.495   5.026  0.0701 -0.0912  0.3886
   48MOL   C56237316   2.339   6.495   5.069  0.6182 -0.0444  0.1541
   48MOL   C56337317   2.238   6.520   4.976  0.9087  0.2628 -0.1301
   48MOL   C56437318   2.093   6.553   5.017 -0.2822 -0.2001 -0.2965
   48MOL   O56537319   2.065   6.589   5.130 -0.0365  0.4424  0.3039
   48MOL   O56637320   2.010   6.556   4.910  0.1576  0.4233 -0.8664
   48MOL   C56737321   2.270   6.533   4.838 -0.5478  0.5668  0.6388
   48MOL   C56837322   2.399   6.526   4.794  0.1137  0.0209 -0.7438
   48MOL   H56937323   3.109   6.537   4.983  0.4540 -0.0747  0.7035
   48MOL   H57037324   3.129   6.371   4.960  0.0602 -0.0382  0.5722
   48MOL   H57137325   3.276   6.423   5.153  0.2653  1.5223  0.5006
   48MOL   H57237326   3.140   6.501   5.237 -1.5911 -0.7011  0.6891
   48MOL   H57337327   3.156   6.205   5.176  0.9306 -0.0017  0.6714
   48MOL   H57437328   3.296   6.307   5.370 -0.0821  0.8528 -0.3684
   48MOL   H57537329   3.153   6.337   5.456  0.1265 -1.7501  1.9291
   48MOL   H57637330   2.934   6.200   5.311  0.2897 -0.1011 -0.6698
   48MOL   H57737331   2.938   6.376   5.319  0.0756 -1.1897  1.3451
   48MOL   H57837332   2.789   6.289   5.130 -0.5141  1.8393 -0.7743
   48MOL   H57937333   2.924   6.215   5.053  2.0031  2.0125 -0.8381
   48MOL   H58037334   2.893   6.504   5.105 -1.1182 -1.3121  0.2668
   48MOL   H58137335   2.907   6.508   4.851 -2.5690  0.9218 -0.0719
   48MOL   H58237336   2.870   6.341   4.842  0.8920 -0.1092 -0.7775
   48MOL   H58337337   2.547   6.480   5.102 -0.8285  0.4342  1.4093
   48MOL   H58437338   2.324   6.472   5.174  2.9523  0.1091  0.5635
   48MOL   H58537339   2.197   6.553   4.761  1.5544 -0.2901 -1.6172
   48MOL   H58637340   2.423   6.542   4.690  1.8569  1.0671 -0.2159
   48MOL   C58737341   1.943   6.838   4.554 -0.2631 -0.2538 -0.6792
   48MOL   C58837342   1.956   6.786   4.699 -0.4960  0.7215  0.4117
   48MOL   C58937343   1.844   6.813   4.796 -0.3347  0.2481 -0.1294
   48MOL   C59037344   1.877   6.758   4.939  0.4390  0.1936  0.6030
   48MOL   O59137345   1.869   6.607   4.939  0.1929 -0.5040  0.3730
   48MOL   C59237346   1.814   6.964   4.793  0.5192  0.3658  0.4104
   48MOL   C59337347   1.803   7.024   4.641 -0.5367  0.2314 -0.1562
   48MOL   C59437348   1.922   6.993   4.554  0.1271  0.0001 -0.5689
   48MOL   C59537349   1.919   7.063   4.409  0.2053 -0.3388  0.9635
   48MOL   O59637350   1.806   7.003   4.339  0.2730  0.0025  0.0361
   48MOL   C59737351   1.835   6.916   4.241 -0.3373  0.5410 -0.4037
   48MOL   O59837352   1.943   6.895   4.187 -0.3382  0.6560  0.5337
   48MOL   C59937353   1.721   6.839   4.176  0.5472  0.3098  0.8730
   48MOL   C60037354   1.746   6.761   4.055  0.5564 -0.1441  0.7596
   48MOL   C60137355   1.638   6.687   3.998 -0.3424 -0.8041 -0.0478
   48MOL   C60237356   1.507   6.693   4.046 -0.5706  0.3374  0.3637
   48MOL   C60337357   1.385   6.621   3.992 -0.0375  0.2037  0.2158
   48MOL   O60437358   1.275   6.622   4.037 -0.0560  0.2254  0.0531
   48MOL   O60537359   1.418   6.540   3.892  0.0059 -0.3538 -0.0668
   48MOL   C60637360   1.484   6.778   4.161 -0.0520 -1.2767 -0.0305
   48MOL   C60737361   1.591   6.844   4.227 -0.7359  0.0038  0.9164
   48MOL   H60837362   2.034   6.818   4.498  1.4363  0.6695  1.7261
   48MOL   H60937363   1.864   6.781   4.504 -0.6882 -1.0623  0.8945
   48MOL   H61037364   1.977   6.679   4.695 -4.7145 -0.1901  0.6063
   48MOL   H61137365   2.043   6.835   4.742 -0.0722  0.1158  0.2412
   48MOL   H61237366   1.756   6.763   4.756  1.1251 -2.1639 -0.3882
   48MOL   H61337367   1.967   6.793   4.989  0.2425  0.7729  0.5526
   48MOL   H61437368   1.797   6.784   5.008 -0.7956  1.1037 -1.1188
   48MOL   H61537369   1.718   6.975   4.843 -0.5941 -1.4709 -1.2882
   48MOL   H61637370   1.882   7.030   4.848  0.4124  2.5781 -2.0168
   48MOL   H61737371   1.786   7.131   4.634  1.6434  0.6340  0.1689
   48MOL   H61837372   1.715   6.985   4.590 -0.6127 -1.3752  1.1608
   48MOL   H61937373   2.001   7.036   4.616  0.2229  1.1868 -1.4989
   48MOL   H62037374   1.907   7.171   4.415 -3.3178 -0.5175 -1.1262
   48MOL   H62137375   2.016   7.053   4.361 -0.6522 -2.1899 -0.4635
   48MOL   H62237376   1.842   6.765   4.005  1.0059  0.0347  1.6314
   48MOL   H62337377   1.660   6.623   3.914  0.6994 -0.6757  0.1251
   48MOL   H62437378   1.386   6.787   4.205 -0.3657  2.4631 -1.3797
   48MOL   H62537379   1.572   6.914   4.307  0.5220  0.2045  1.0381
   48MOL   C62637380   1.199   6.056   4.044 -0.3257 -0.2936 -0.2134
   48MOL   C62737381   1.213   6.161   3.942 -0.4496 -0.3336 -0.0458
   48MOL   C62837382   1.342   6.234   3.941  0.2207  0.3078 -0.4053
   48MOL   C62937383   1.358   6.328   3.817 -0.3741 -0.4701  0.3788
   48MOL   O63037384   1.304   6.457   3.835 -0.5893 -0.4459 -0.0831
   48MOL   C63137385   1.368   6.295   4.077  0.1075 -0.4642  0.1555
   48MOL   C63237386   1.366   6.186   4.185 -0.1557  0.6433  0.0830
   48MOL   C63337387   1.229   6.115   4.188 -0.5724 -0.5970 -0.9941
   48MOL   C63437388   1.231   6.001   4.284 -0.8093 -0.1869 -0.2034
   48MOL   O63537389   1.262   6.055   4.408  0.0003  0.4523 -0.2385
   48MOL   C63637390   1.183   6.023   4.508 -0.4295 -0.5168  0.1836
   48MOL   O63737391   1.100   5.932   4.500  0.0781 -0.5266  0.1744
   48MOL   C63837392   1.200   6.106   4.630 -0.5182 -0.0704 -0.3160
   48MOL   C63937393   1.096   6.116   4.724  0.2169 -0.6483 -0.2821
   48MOL   C64037394   1.113   6.186   4.841  0.3423 -0.2361  0.8207
   48MOL   C64137395   1.237   6.234   4.886  0.2043 -0.3276  0.9628
   48MOL   C64237396   1.259   6.319   5.016 -0.1903  0.1676  0.3051
   48MOL   O64337397   1.368   6.377   5.047  0.5444  0.5370  0.2116
   48MOL   O64437398   1.148   6.327   5.088  0.1540  0.3560 -0.0312
   48MOL   C64537399   1.343   6.218   4.792  0.2629  0.3971 -0.6978
   48MOL   C64637400   1.324   6.158   4.668  0.1520  0.9142 -0.3457
   48MOL   H64737401   1.100   6.015   4.028 -0.2604  0.0147 -1.4703
   48MOL   H64837402   1.278   5.982   4.030 -0.7324 -0.6264 -0.7487
   48MOL   H64937403   1.211   6.113   3.845 -0.9242 -0.3483 -0.0300
   48MOL   H65037404   1.127   6.228   3.943 -0.0120  0.2362  1.2482
   48MOL   H65137405   1.419   6.158   3.931  1.6316  1.7378 -0.6520
   48MOL   H65237406   1.464   6.327   3.792  0.1446  1.6264  2.3904
   48MOL   H65337407   1.318   6.288   3.723 -0.4000  0.7379 -0.1369
   48MOL   H65437408   1.460   6.354   4.069 -1.1799  1.5100 -0.3314
   48MOL   H65537409   1.286   6.362   4.102  0.4668  0.7821 -1.8680
   48MOL   H65637410   1.393   6.232   4.280  0.2912 -0.5812  0.5485
   48MOL   H65737411   1.433   6.107   4.152 -3.4642 -2.6056  0.8275
   48MOL   H65837412   1.155   6.191   4.213 -0.4824 -0.5971 -0.7201
   48MOL   H65937413   1.138   5.945   4.277 -0.8820 -0.1675  0.5679
   48MOL   H66037414   1.307   5.930   4.252  1.4700  1.2537  1.8485
   48MOL   H66137415   0.997   6.079   4.705 -0.6329  2.2901 -2.0548
   48MOL   H66237416   1.030   6.184   4.910  0.8266 -0.5092  1.4044
   48MOL   H66337417   1.440   6.254   4.823  1.2136 -1.5039 -1.3774
   48MOL   H66437418   1.408   6.145   4.602  0.1192  0.9530 -0.3939
   48MOL   C66537419   0.750   6.263   5.366  0.0096 -0.0844  0.6882
   48MOL   C66637420   0.878   6.346   5.379 -0.7479  0.1082  0.0967
   48MOL   C66737421   0.995   6.267   5.301 -0.8746  0.6489 -0.1984
   48MOL   C66837422   1.127   6.335   5.320  0.6542  0.4170  0.2852
   48MOL   O66937423   1.149   6.422   5.211  0.0873  0.8256 -0.1341
   48MOL   C67037424   1.000   6.116   5.339  0.6260 -0.5555  0.4292
   48MOL   C67137425   0.868   6.047   5.312 -0.0249 -0.1781  0.0774
   48MOL   C67237426   0.759   6.116   5.397  0.6839  1.2005 -0.1065
   48MOL   C67337427   0.628   6.033   5.373 -0.5360  0.3757 -0.1097
   48MOL   O67437428   0.574   6.069   5.246  0.2931 -0.4435 -0.5047
   48MOL   C67537429   0.449   6.119   5.242  0.2942 -0.3622  0.6629
   48MOL   O67637430   0.372   6.117   5.335 -0.5148  0.2573 -0.3735
   48MOL   C67737431   0.414   6.179   5.113  0.4381  0.1166  0.3114
   48MOL   C67837432   0.486   6.151   4.994  0.0266 -0.1818  0.4935
   48MOL   C67937433   0.433   6.196   4.870 -0.1759  0.3050 -0.0925
   48MOL   C68037434   0.320   6.281   4.861 -0.3121 -0.3499 -0.3347
   48MOL   C68137435   0.264   6.332   4.728  0.2777  0.3717 -0.0963
   48MOL   O68237436   0.165   6.398   4.719 -0.0916 -0.0193  0.1122
   48MOL   O68337437   0.334   6.283   4.620  0.4319 -0.2898 -0.4102
   48MOL   C68437438   0.261   6.326   4.983  0.4336 -0.1005 -0.1968
   48MOL   C68537439   0.308   6.278   5.108  0.5696  0.1239 -0.3610
   48MOL   H68637440   0.667   6.306   5.422 -0.8056 -0.2285 -0.4085
   48MOL   H68737441   0.708   6.267   5.266  0.0828 -0.5811  0.6356
   48MOL   H68837442   0.869   6.448   5.343  0.9042 -0.8169 -3.1746
   48MOL   H68937443   0.897   6.342   5.486  0.5092 -0.1369 -0.1225
   48MOL   H69037444   0.958   6.275   5.199 -0.5602  0.7935 -0.3011
   48MOL   H69137445   1.114   6.377   5.419 -2.5727  0.2730 -0.0199
   48MOL   H69237446   1.198   6.253   5.329  0.6617  0.5457  1.4040
   48MOL   H69337447   1.075   6.063   5.280  0.9428  1.1010 -0.6865
   48MOL   H69437448   1.033   6.090   5.440  0.3070 -0.0234  0.6713
   48MOL   H69537449   0.874   5.939   5.328  1.2318 -0.4438 -2.0659
   48MOL   H69637450   0.842   6.064   5.208  0.5098 -2.7800 -0.5312
   48MOL   H69737451   0.786   6.107   5.503 -0.9359 -0.4944  0.1875
   48MOL   H69837452   0.660   5.929   5.382 -0.3398  0.4394 -0.0703
   48MOL   H69937453   0.558   6.051   5.455 -0.6356  0.7781 -0.2808
   48MOL   H70037454   0.575   6.091   4.989  0.6044  0.5595  1.8470
   48MOL   H70137455   0.479   6.169   4.776  0.0139  1.2681 -0.2796
   48MOL   H70237456   0.171   6.386   4.980  0.7005  0.3845  1.1606
   48MOL   H70337457   0.263   6.310   5.200  0.6440 -2.4990  0.6390
   48MOL   C70437458   0.040   6.320   4.075  0.5906 -0.9495 -0.4396
   48MOL   C70537459   0.049   6.270   4.218 -0.2726  0.2005 -0.3876
   48MOL   C70637460   0.186   6.317   4.284  0.2255 -0.2231  0.0844
   48MOL   C70737461   0.192   6.288   4.430 -0.2205  0.7407 -0.3398
   48MOL   O70837462   0.297   6.351   4.491  0.6478  0.8285  0.1022
   48MOL   C70937463   0.308   6.268   4.204 -0.1318 -0.0606  1.0431
   48MOL   C71037464   0.301   6.303   4.052 -0.0982 -0.3170  0.0287
   48MOL   C71137465   0.158   6.271   3.998  0.3168 -0.6116 -0.3287
   48MOL   C71237466   0.151   6.318   3.851  0.3699  0.3292 -0.2711
   48MOL   O71337467   0.158   6.456   3.845 -0.2909 -0.1866 -0.2951
   48MOL   C71437468   0.051   6.530   3.804  0.4638 -0.5398 -0.6737
   48MOL   O71537469   7.973   6.485   3.774 -0.0408 -0.4351 -0.0676
   48MOL   C71637470   0.079   6.678   3.804  0.0434 -1.0276 -0.0016
   48MOL   C71737471   0.216   6.726   3.817  0.7518  0.0621 -0.4614
   48MOL   C71837472   0.249   6.863   3.787 -0.6565 -0.3270  0.2197
   48MOL   C71937473   0.144   6.952   3.747  0.0763 -0.2177  0.0003
   48MOL   C72037474   0.166   7.099   3.724 -0.1221  0.3397 -0.5495
   48MOL   O72137475   0.076   7.181   3.717  0.6566  0.2841  0.4756
   48MOL   O72237476   0.300   7.129   3.712 -0.1323 -0.9494 -0.3339
   48MOL   C72337477   0.009   6.902   3.733  0.2241  0.1077 -0.2747
   48MOL   C72437478   8.014   6.769   3.754  0.1249  0.5551  0.5701
   48MOL   H72537479   7.982   6.282   4.032 -1.2624 -0.0400  2.6400
   48MOL   H72637480   0.029   6.428   4.088 -2.2547 -1.1625 -0.8027
   48MOL   H72737481   7.994   6.288   4.277  0.0457  1.7310 -0.3599
   48MOL   H72837482   0.046   6.161   4.218 -2.1358  0.2346  0.0529
   48MOL   H72937483   0.188   6.425   4.269 -0.6492 -0.1636  0.3536
   48MOL   H73037484   0.098   6.308   4.482  1.1343  4.4001  0.8380
   48MOL   H73137485   0.222   6.184   4.444 -0.3001  0.8198  0.4379
   48MOL   H73237486   0.392   6.326   4.242  1.7048 -0.4966 -2.1603
   48MOL   H73337487   0.330   6.162   4.216 -0.8358 -0.6585 -2.5374
   48MOL   H73437488   0.387   6.263   3.998  1.2880  0.2334  1.7650
   48MOL   H73537489   0.320   6.408   4.029  2.5817 -1.1118 -1.6638
   48MOL   H73637490   0.154   6.162   3.999  2.3876 -0.6917  0.6203
   48MOL   H73737491   0.238   6.276   3.800  0.4551  1.4415 -1.0666
   48MOL   H73837492   0.066   6.276   3.799 -0.0635 -0.8479  1.3449
   48MOL   H73937493   0.282   6.651   3.859  0.2218  1.2879  2.7072
   48MOL   H74037494   0.351   6.897   3.799 -0.6689  0.0270 -0.6336
   48MOL   H74137495   7.966   6.970   3.706 -0.6284 -0.3825  0.9231
   48MOL   H74237496   7.913   6.730   3.741  0.7749 -0.6231 -1.2471
   48MOL   C74337497   0.228   7.682   3.654 -0.0435  0.1319  0.2013
   48MOL   C74437498   0.220   7.529   3.633  0.0067  0.9193 -0.1288
   48MOL   C74537499   0.365   7.475   3.607 -0.0445  1.2069  0.6577
   48MOL   C74637500   0.357   7.324   3.598  0.1788 -0.1056  1.0325
   48MOL   O74737501   0.320   7.270   3.723 -0.1554 -0.1789 -0.1122
   48MOL   C74837502   0.412   7.538   3.471 -0.3319 -0.5925 -0.3371
   48MOL   C74937503   0.420   7.690   3.486  0.4486 -0.2190 -0.2993
   48MOL   C75037504   0.278   7.741   3.524 -0.6417 -0.6426  0.6697
   48MOL   C75137505   0.268   7.887   3.531 -0.4462 -0.2149  0.1484
   48MOL   O75237506   0.126   7.911   3.508  0.0139  0.1528  0.5213
   48MOL   C75337507   0.082   7.968   3.398 -0.4979 -0.6780 -0.0603
   48MOL   O75437508   0.160   8.028   3.316  0.2286  0.4287 -0.3809
   48MOL   C75537509   7.965   7.963   3.388 -0.1176  0.0082 -0.7624
   48MOL   C75637510   7.888   7.864   3.462  0.0338 -0.3347  0.6173
   48MOL   C75737511   7.750   7.867   3.457 -0.3598 -1.1703 -0.4586
   48MOL   C75837512   7.681   7.960   3.380 -0.4328  1.3898 -0.9248
   48MOL   C75937513   7.534   7.967   3.384  0.3250 -0.3050 -1.0095
   48MOL   O76037514   7.471   7.942   3.489  0.0016  0.3454  0.6599
   48MOL   O76137515   7.476   8.024   3.276  0.5076  0.3768 -0.7110
   48MOL   C76237516   7.749   0.020   3.300 -0.4758 -0.8885 -0.0398
   48MOL   C76337517   7.894   0.019   3.305 -0.2392  0.5272 -0.3769
   48MOL   H76437518   0.125   7.713   3.674 -0.6273 -1.6434  0.0446
   48MOL   H76537519   0.289   7.711   3.739 -0.2499 -0.4127  0.5345
   48MOL   H76637520   0.160   7.467   3.699  1.8626 -0.5725  0.2233
   48MOL   H76737521   0.160   7.510   3.545 -0.0489  1.0349 -0.1152
   48MOL   H76837522   0.443   7.494   3.681  0.0195 -0.2423  0.9636
   48MOL   H76937523   0.309   7.283   3.510  2.4934 -0.3536 -0.1608
   48MOL   H77037524   0.459   7.285   3.595  0.0272 -0.3782 -0.7810
   48MOL   H77137525   0.509   7.503   3.437  0.1962  1.3528 -0.8654
   48MOL   H77237526   0.342   7.517   3.389 -0.7461 -0.2368 -0.0740
   48MOL   H77337527   0.448   7.737   3.392  0.6205  0.4609  0.0932
   48MOL   H77437528   0.488   7.727   3.562  1.4999 -0.5149 -1.0888
   48MOL   H77537529   0.214   7.714   3.440 -0.2396  1.9033 -0.5046
   48MOL   H77637530   0.275   7.919   3.635  3.3188 -0.2375 -0.0251
   48MOL   H77737531   0.328   7.948   3.464 -0.0313 -0.2860  0.4540
   48MOL   H77837532   7.941   7.781   3.506  1.9506  0.0181 -0.9571
   48MOL   H77937533   7.690   7.791   3.504  0.7287 -0.7747  1.6546
   48MOL   H78037534   7.691   0.093   3.245 -0.0501 -0.2803  0.3093
   48MOL   H78137535   7.956   0.093   3.258  1.3347  0.2302  1.1727
   48MOL   H78237536   7.508   7.986   3.196  1.1686  1.0828 -0.7998
   49MOL     C137537   0.527   4.585   0.942  0.2760  0.0342 -0.2388
   49MOL     C237538   0.608   4.456   0.968 -0.5030 -0.4680 -1.1108
   49MOL     C337539   0.518   4.329   0.998  0.4467  0.7477  0.2956
   49MOL     C437540   0.615   4.206   1.020 -0.3342  0.0001 -0.2064
   49MOL     O537541   0.652   4.202   1.150 -0.4708  0.4968  0.0412
   49MOL     C637542   0.429   4.361   1.114  0.4397 -0.5304 -0.9096
   49MOL     C737543   0.344   4.482   1.075  0.0968 -0.2847  0.2417
   49MOL     C837544   0.422   4.617   1.048 -0.1348  0.3979  0.0274
   49MOL     C937545   0.327   4.730   1.005 -0.1180 -0.0287  0.0641
   49MOL    O1037546   0.267   4.799   1.108  0.1098  0.3030 -0.2386
   49MOL    C1137547   0.143   4.771   1.162 -0.7201  0.4872 -0.3501
   49MOL    O1237548   0.068   4.689   1.119  0.0427 -0.8883 -0.1720
   49MOL    C1337549   0.107   4.862   1.274 -0.9622  0.2295  0.5754
   49MOL    C1437550   0.159   4.990   1.295 -0.8947  0.0906  0.1531
   49MOL    C1537551   0.108   5.075   1.394  0.4493 -0.3611 -1.4329
   49MOL    C1637552   0.017   5.027   1.492  0.4143 -0.2321 -0.5872
   49MOL    C1737553   7.993   5.110   1.606  0.1167  0.4476  0.1429
   49MOL    O1837554   7.901   5.072   1.683  0.1498  0.1857 -0.0390
   49MOL    O1937555   0.014   5.230   1.620  0.4631 -0.5776  0.0735
   49MOL    C2037556   8.002   4.898   1.470  0.2228 -0.3596  0.3470
   49MOL    C2137557   0.008   4.825   1.362 -0.3090 -0.4525 -0.6231
   49MOL    H2237558   0.592   4.672   0.930  0.9434 -0.3455  0.5921
   49MOL    H2337559   0.478   4.572   0.846 -1.2628  0.8673  0.4187
   49MOL    H2437560   0.670   4.435   0.882  0.6680  0.5882 -0.5435
   49MOL    H2537561   0.671   4.490   1.050 -0.1769 -1.0241 -1.1313
   49MOL    H2637562   0.466   4.317   0.903  1.3918  0.0828 -0.1413
   49MOL    H2737563   0.558   4.116   1.000  1.1390 -0.9238 -0.3282
   49MOL    H2837564   0.704   4.207   0.956  0.8973 -1.3693  1.4356
   49MOL    H2937565   0.367   4.276   1.143 -0.4074  1.2634  2.8588
   49MOL    H3037566   0.473   4.392   1.209 -0.8892 -1.0798 -0.1100
   49MOL    H3137567   0.274   4.498   1.156  0.2698 -2.2318  0.7870
   49MOL    H3237568   0.280   4.462   0.989 -0.8592  0.2756  0.8164
   49MOL    H3337569   0.483   4.638   1.136  0.7881 -2.4260  0.1270
   49MOL    H3437570   0.378   4.808   0.949  0.2098  1.6253  2.5720
   49MOL    H3537571   0.251   4.685   0.940  1.6516 -0.5906 -1.6420
   49MOL    H3637572   0.235   5.036   1.234  0.5242 -0.1849  1.6909
   49MOL    H3737573   0.149   5.173   1.415 -1.5215 -0.1733  1.9903
   49MOL    H3837574   7.935   4.848   1.538 -0.0777  2.5663  2.2859
   49MOL    H3937575   7.995   4.729   1.363 -1.0263 -0.1067  1.1806
   49MOL    H4037576   0.670   4.113   1.176 -0.8706  0.2269 -0.6214
   49MOL    C4137577   7.793   5.387   2.107 -0.1771  0.1174  0.1403
   49MOL    C4237578   7.875   5.312   2.009  0.0339  0.9062  0.5040
   49MOL    C4337579   8.006   5.378   1.970 -0.4212  0.4358  0.0288
   49MOL    C4437580   0.035   5.299   1.858 -0.4824 -0.1411  0.2655
   49MOL    O4537581   7.995   5.313   1.738 -0.4619 -0.4694  0.2574
   49MOL    C4637582   7.985   5.524   1.935  0.4105 -0.0046  0.7499
   49MOL    C4737583   7.895   5.599   2.037 -0.0158 -0.5156 -0.4044
   49MOL    C4837584   7.761   5.531   2.067 -0.0325  0.2550 -0.1003
   49MOL    C4937585   7.661   5.605   2.167 -0.3883 -0.4624  0.2613
   49MOL    O5037586   7.580   5.665   2.076 -0.1872 -0.2978  0.0311
   49MOL    C5137587   7.480   5.739   2.119  0.2075  0.0725  0.6605
   49MOL    O5237588   7.464   5.757   2.237  0.6054  0.5445 -0.2593
   49MOL    C5337589   7.393   5.796   2.014  0.1120 -0.2055  0.2078
   49MOL    C5437590   7.296   5.904   2.047 -0.8745  0.0854  0.0370
   49MOL    C5537591   7.205   5.948   1.948 -1.1467  0.1977 -0.1176
   49MOL    C5637592   7.217   5.904   1.816 -0.2152  0.1705  0.0579
   49MOL    C5737593   7.128   5.950   1.700 -0.4467  0.5194  0.5820
   49MOL    O5837594   7.129   5.892   1.592  0.1832  0.1393  0.1519
   49MOL    O5937595   7.043   6.047   1.734  0.4850 -0.2205 -0.0718
   49MOL    C6037596   7.316   5.805   1.787 -0.4431  0.5680  1.3442
   49MOL    C6137597   7.395   5.746   1.884 -0.0031  0.4085  0.4432
   49MOL    H6237598   7.698   5.339   2.133 -0.1066  0.7344  1.5522
   49MOL    H6337599   7.843   5.390   2.204 -2.2047  0.6972  1.1917
   49MOL    H6437600   7.887   5.210   2.046  0.2681  0.8765  0.3449
   49MOL    H6537601   7.815   5.306   1.917  1.3469 -1.6444 -0.2487
   49MOL    H6637602   0.032   5.366   2.059  1.4496  1.3613 -1.1033
   49MOL    H6737603   0.137   5.328   1.834 -0.0669 -0.8114  1.1820
   49MOL    H6837604   0.049   5.195   1.886 -2.6131 -0.5829 -0.2379
   49MOL    H6937605   0.044   5.576   1.922  1.1484 -1.2342  1.1097
   49MOL    H7037606   7.934   5.524   1.839 -0.1332 -4.0166  0.9773
   49MOL    H7137607   7.873   5.702   2.007  3.2818  0.1198 -0.7862
   49MOL    H7237608   7.946   5.606   2.133 -1.8557  2.8606  0.4244
   49MOL    H7337609   7.700   5.520   1.977 -1.0685 -1.1007  0.7526
   49MOL    H7437610   7.597   5.543   2.231 -0.5430  0.7039  1.2415
   49MOL    H7537611   7.722   5.669   2.230  0.9395 -0.1038 -1.3485
   49MOL    H7637612   7.300   5.950   2.145  1.4991 -1.1784  0.5714
   49MOL    H7737613   7.139   6.030   1.972  0.4634  1.3842  0.2907
   49MOL    H7837614   7.329   5.765   1.687  0.6966 -0.3903  1.8653
   49MOL    H7937615   7.464   5.669   1.855  0.1344  0.6230  0.1998
   49MOL    C8037616   6.550   5.708   1.653  0.1709  0.3281 -0.5799
   49MOL    C8137617   6.644   5.792   1.735 -0.5711 -0.8110  0.1210
   49MOL    C8237618   6.731   5.884   1.642 -0.1683 -0.5624  0.4313
   49MOL    C8337619   6.822   5.967   1.722  0.2210  0.2354  0.0167
   49MOL    O8437620   6.915   6.043   1.649 -0.3226 -0.3062  0.1817
   49MOL    C8537621   6.809   5.793   1.552  0.4303 -0.4156 -0.1069
   49MOL    C8637622   6.719   5.715   1.458 -0.2523  0.4469 -0.2737
   49MOL    C8737623   6.618   5.632   1.537  0.0792 -0.0861 -0.4416
   49MOL    C8837624   6.515   5.566   1.446 -0.2041 -0.2984 -0.1679
   49MOL    O8937625   6.450   5.465   1.518  0.4912 -0.4641  0.0266
   49MOL    C9037626   6.487   5.342   1.504 -0.6989 -0.0744  0.5137
   49MOL    O9137627   6.595   5.310   1.457  0.4335 -0.3322 -0.1936
   49MOL    C9237628   6.383   5.241   1.547  0.7844 -0.1753 -0.0905
   49MOL    C9337629   6.255   5.273   1.603 -0.9183  0.0792 -0.1563
   49MOL    C9437630   6.168   5.174   1.653 -0.5148  0.0189  0.1675
   49MOL    C9537631   6.199   5.036   1.656  0.3800 -0.1639  0.3310
   49MOL    C9637632   6.104   4.933   1.703  0.9214 -0.0458  0.3778
   49MOL    O9737633   5.995   4.953   1.760  0.0122 -0.3637  0.4716
   49MOL    O9837634   6.159   4.804   1.705 -0.7134 -0.2526 -0.5972
   49MOL    C9937635   6.321   5.003   1.585  0.8646 -0.2999 -0.0085
   49MOL   C10037636   6.411   5.104   1.540 -0.2489  0.2094 -0.0074
   49MOL   H10137637   6.501   5.639   1.721 -0.7685  0.6375 -0.9414
   49MOL   H10237638   6.473   5.780   1.626 -0.1919  0.0830 -0.2096
   49MOL   H10337639   6.592   5.858   1.805 -0.8980  1.2162 -1.9903
   49MOL   H10437640   6.713   5.734   1.796  0.2817  0.7821  0.6814
   49MOL   H10537641   6.660   5.942   1.583 -0.1515 -0.4617  0.5094
   49MOL   H10637642   6.770   6.036   1.789 -2.1720  0.1093 -1.6583
   49MOL   H10737643   6.876   5.905   1.794 -2.1980 -1.6173  0.2816
   49MOL   H10837644   6.884   5.835   1.486  0.0833  0.7946  0.2595
   49MOL   H10937645   6.858   5.721   1.618 -0.6014  0.7691  1.9882
   49MOL   H11037646   6.792   5.659   1.401 -2.2144  0.2775 -2.6821
   49MOL   H11137647   6.683   5.779   1.378  0.3570 -0.7305 -1.4923
   49MOL   H11237648   6.676   5.555   1.588  0.1684  0.2621 -0.0049
   49MOL   H11337649   6.439   5.642   1.426  1.2319  1.5124  1.0438
   49MOL   H11437650   6.567   5.526   1.360  1.9374 -0.8344  1.3331
   49MOL   H11537651   6.221   5.376   1.612  1.8792  1.0231 -0.0778
   49MOL   H11637652   6.074   5.194   1.702 -1.1715 -3.2286  0.3201
   49MOL   H11737653   6.363   4.904   1.586  1.2228 -0.2286 -2.7959
   49MOL   H11837654   6.502   5.069   1.493 -0.7063  1.9038 -2.2381
   49MOL   C11937655   6.064   4.252   1.692 -0.4931 -0.6380  0.3258
   49MOL   C12037656   6.119   4.395   1.654 -0.2230  0.3060  0.6324
   49MOL   C12137657   6.000   4.489   1.610 -0.4471  0.2434  0.3811
   49MOL   C12237658   6.039   4.635   1.593  1.2178  0.4868  0.3732
   49MOL   O12337659   6.063   4.686   1.725  0.4820 -0.3510 -0.3902
   49MOL   C12437660   5.942   4.437   1.477 -0.1871 -0.4005  0.2224
   49MOL   C12537661   5.887   4.298   1.506 -0.2970  0.3691 -0.3246
   49MOL   C12637662   5.992   4.200   1.564 -0.1968 -0.5406  0.5039
   49MOL   C12737663   5.913   4.062   1.587  0.3063 -0.0460  0.2820
   49MOL   O12837664   6.003   3.960   1.637 -0.3923  0.0019 -0.3091
   49MOL   C12937665   6.006   3.935   1.772  0.0564 -0.8464  0.7585
   49MOL   O13037666   5.935   3.993   1.854  0.3270 -0.3709  0.2258
   49MOL   C13137667   6.107   3.835   1.814 -0.2000 -0.4858 -0.1471
   49MOL   C13237668   6.101   3.783   1.946 -0.1538 -0.4306  0.0004
   49MOL   C13337669   6.201   3.690   1.986 -0.5830  0.0796 -0.2840
   49MOL   C13437670   6.301   3.648   1.894  0.0033  0.2501  0.1777
   49MOL   C13537671   6.418   3.560   1.933 -0.1872 -0.0331  0.6559
   49MOL   O13637672   6.484   3.499   1.848  0.4055  0.0978 -0.0795
   49MOL   O13737673   6.435   3.560   2.055  0.1337  0.5209  0.4696
   49MOL   C13837674   6.299   3.702   1.767 -0.4376 -1.0780  0.4639
   49MOL   C13937675   6.205   3.793   1.725 -0.6796 -0.8688  0.6977
   49MOL   H14037676   6.147   4.191   1.726 -0.3596  0.1199  1.4241
   49MOL   H14137677   5.994   4.268   1.774 -0.3448 -0.0444  0.3425
   49MOL   H14237678   6.161   4.437   1.746 -0.7555  0.3112  0.8742
   49MOL   H14337679   6.205   4.379   1.589  0.7519 -0.6060  2.1002
   49MOL   H14437680   5.914   4.485   1.678 -0.7568  1.3805  0.0572
   49MOL   H14537681   6.123   4.648   1.524  0.8737 -0.5212 -0.2448
   49MOL   H14637682   5.950   4.681   1.549  1.3760  1.1412  0.7209
   49MOL   H14737683   5.868   4.512   1.446  0.1965 -0.6882 -1.4699
   49MOL   H14837684   6.025   4.434   1.407 -1.4867 -0.6773 -1.3503
   49MOL   H14937685   5.827   4.262   1.422  0.2143  1.5994 -1.2251
   49MOL   H15037686   5.805   4.322   1.575  1.3836  0.4378  1.6971
   49MOL   H15137687   6.066   4.175   1.487 -0.6986  3.9982 -1.5819
   49MOL   H15237688   5.834   4.072   1.661  1.6319  0.2289  1.6926
   49MOL   H15337689   5.879   4.020   1.493 -1.0760  1.9446 -0.1350
   49MOL   H15437690   6.018   3.819   2.004 -0.8891 -0.3295 -1.0899
   49MOL   H15537691   6.188   3.648   2.084 -0.6078 -1.8983 -1.1029
   49MOL   H15637692   6.372   3.676   1.692  0.4356 -0.2612  1.0323
   49MOL   H15737693   6.203   3.834   1.625 -1.4437 -0.8791  0.7091
   49MOL   C15837694   6.843   3.175   2.009  0.4261 -0.6203  0.3083
   49MOL   C15937695   6.730   3.258   2.086  0.6579  0.2607  0.0190
   49MOL   C16037696   6.746   3.411   2.083 -0.5212  0.4166 -0.2827
   49MOL   C16137697   6.640   3.489   2.162  0.5231  0.0182  0.1274
   49MOL   O16237698   6.518   3.443   2.112 -0.4035 -0.2437  0.4581
   49MOL   C16337699   6.882   3.448   2.134 -0.5048 -0.0741 -0.5472
   49MOL   C16437700   6.993   3.378   2.044  0.8933 -0.6189 -0.3127
   49MOL   C16537701   6.983   3.225   2.052  0.2876 -0.2171 -0.1949
   49MOL   C16637702   7.090   3.155   1.958 -0.0588  0.5905 -0.1937
   49MOL   O16737703   7.212   3.185   2.011 -0.0731  0.3429 -0.2578
   49MOL   C16837704   7.326   3.179   1.937 -0.1247  0.2099  0.8178
   49MOL   O16937705   7.329   3.154   1.813  0.2217  0.8640 -0.0553
   49MOL   C17037706   7.450   3.179   2.025  0.2106 -0.1449 -0.4946
   49MOL   C17137707   7.573   3.180   1.956  0.2210 -0.5864 -0.3619
   49MOL   C17237708   7.692   3.199   2.025  0.3640 -0.2446 -0.7849
   49MOL   C17337709   7.685   3.226   2.166  0.2100  0.1338 -0.8028
   49MOL   C17437710   7.804   3.257   2.235 -0.3532 -0.1923 -0.3945
   49MOL   O17537711   7.917   3.246   2.184  0.3227  0.1808  0.3256
   49MOL   O17637712   7.776   3.316   2.352  0.1083 -0.0830  0.2794
   49MOL   C17737713   7.561   3.231   2.233 -0.4688 -0.8590 -0.2265
   49MOL   C17837714   7.441   3.213   2.160  0.3374  0.5102  0.3782
   49MOL   H17937715   6.844   3.067   2.024  3.5567 -0.5305  1.2771
   49MOL   H18037716   6.836   3.188   1.901  0.1679  1.6323  0.5619
   49MOL   H18137717   6.631   3.239   2.044  1.0345  1.7076 -1.6172
   49MOL   H18237718   6.728   3.231   2.191 -1.0974  0.2524 -0.0071
   49MOL   H18337719   6.738   3.434   1.977  1.0259  1.8048 -0.1276
   49MOL   H18437720   6.649   3.481   2.270 -0.4204 -2.6430  0.0348
   49MOL   H18537721   6.640   3.596   2.141 -1.0310  0.1201  0.5797
   49MOL   H18637722   6.901   3.556   2.134 -1.2737  0.0730  0.4894
   49MOL   H18737723   6.886   3.418   2.238  1.0398  2.8370  0.2988
   49MOL   H18837724   7.090   3.415   2.078  0.2151 -0.1271  1.1184
   49MOL   H18937725   6.982   3.400   1.937 -0.2019 -0.9772 -0.2776
   49MOL   H19037726   6.990   3.184   2.153 -0.7389  0.2321  0.0582
   49MOL   H19137727   7.069   3.048   1.960  0.5364  0.4896  1.4563
   49MOL   H19237728   7.081   3.197   1.857 -0.3737  0.1796 -0.3362
   49MOL   H19337729   7.571   3.159   1.850  2.5074 -1.0014 -0.3657
   49MOL   H19437730   7.786   3.192   1.972  1.3513 -2.2012  1.1436
   49MOL   H19537731   7.550   3.256   2.338  1.1572 -0.5235 -0.1325
   49MOL   H19637732   7.350   3.218   2.217  0.0894  0.3470 -0.0042
   49MOL   C19737733   8.035   2.894   2.571 -0.6428 -0.2429  0.6740
   49MOL   C19837734   7.995   3.031   2.621 -0.7316 -0.0417 -0.4197
   49MOL   C19937735   7.977   3.121   2.497 -0.5812  0.6376 -0.4137
   49MOL   C20037736   7.915   3.253   2.542  0.4364 -0.0530  0.2514
   49MOL   O20137737   7.901   3.350   2.434 -0.6791  0.0240  0.0529
   49MOL   C20237738   0.072   3.138   2.422 -0.2875 -0.4329 -0.2937
   49MOL   C20337739   0.129   3.010   2.377 -0.0435  0.4139  0.2077
   49MOL   C20437740   0.135   2.898   2.484  0.6817 -0.2522  0.1660
   49MOL   C20537741   0.178   2.760   2.433 -0.4024  0.3715  0.3995
   49MOL   O20637742   0.198   2.665   2.540 -0.6518 -0.4953  0.0631
   49MOL   C20737743   0.308   2.656   2.608  0.4020 -0.3794  0.6872
   49MOL   O20837744   0.410   2.699   2.559 -0.0808 -0.0936  0.0388
   49MOL   C20937745   0.293   2.584   2.738 -0.7051  0.2870 -0.8642
   49MOL   C21037746   0.172   2.523   2.776  0.0882  0.5356 -0.2809
   49MOL   C21137747   0.165   2.461   2.902  0.3726  0.3174 -0.3092
   49MOL   C21237748   0.280   2.450   2.981  0.1810 -0.2943 -0.0856
   49MOL   C21337749   0.273   2.362   3.103 -0.1443  0.7404 -0.0130
   49MOL   O21437750   0.179   2.287   3.125  0.3175 -0.2609  0.0470
   49MOL   O21537751   0.378   2.376   3.185  0.3478 -0.0764  0.2400
   49MOL   C21637752   0.402   2.515   2.946  0.1599 -0.2276  0.7321
   49MOL   C21737753   0.415   2.570   2.818  0.0663  0.1211  0.6059
   49MOL   H21837754   0.006   2.827   2.657  0.6312  0.0644  0.8371
   49MOL   H21937755   7.957   2.850   2.509 -0.6056 -0.1429  0.5571
   49MOL   H22037756   7.897   3.020   2.669 -1.2332  0.9767 -1.2109
   49MOL   H22137757   0.037   3.066   2.689 -0.0547  0.6479 -1.5478
   49MOL   H22237758   7.905   3.065   2.437 -0.2388 -3.2780  2.5973
   49MOL   H22337759   7.817   3.241   2.587  0.6334 -0.1909  0.6464
   49MOL   H22437760   7.967   3.308   2.620 -0.3865 -0.1154  0.8426
   49MOL   H22537761   0.057   3.214   2.346 -0.2567  0.0911  0.2186
   49MOL   H22637762   0.145   3.176   2.494  1.6029 -0.2143 -2.2878
   49MOL   H22737763   0.231   3.018   2.338  1.4400 -0.1196  3.7927
   49MOL   H22837764   0.072   2.977   2.290  0.2526 -1.1838  0.5929
   49MOL   H22937765   0.215   2.944   2.542 -0.9437  2.1389  0.6134
   49MOL   H23037766   0.099   2.716   2.372  0.7130 -0.3358 -0.5622
   49MOL   H23137767   0.273   2.773   2.380  0.6036 -0.0767  2.0687
   49MOL   H23237768   0.086   2.520   2.711  0.8446 -1.4930 -1.2576
   49MOL   H23337769   0.081   2.406   2.941 -1.0495  3.5778  1.4162
   49MOL   H23437770   0.486   2.511   3.015  1.4786 -0.8147 -0.8611
   49MOL   H23537771   0.503   2.621   2.782  0.3401 -1.3040 -0.7742
   49MOL   C23637772   0.376   2.332   3.814  0.6596  0.8279 -0.0220
   49MOL   C23737773   0.312   2.343   3.676 -0.0877 -0.5314 -0.9966
   49MOL   C23837774   0.393   2.296   3.552  0.0280 -0.3216  0.3470
   49MOL   C23937775   0.336   2.364   3.421 -0.6445  0.0677 -0.1872
   49MOL   O24037776   0.364   2.287   3.308  0.5802 -0.3851  0.1662
   49MOL   C24137777   0.537   2.329   3.570  0.0550 -0.7025 -0.1579
   49MOL   C24237778   0.598   2.293   3.709 -0.2477 -0.3401 -0.5222
   49MOL   C24337779   0.521   2.383   3.814 -0.7154 -0.1390  0.0185
   49MOL   C24437780   0.582   2.349   3.949 -0.5874  0.8613  0.2729
   49MOL   O24537781   0.706   2.407   3.957 -0.8127  0.0347  0.0299
   49MOL   C24637782   0.761   2.440   4.076 -0.5585  0.5991  0.2609
   49MOL   O24737783   0.698   2.427   4.179  0.0602 -0.3287 -0.3560
   49MOL   C24837784   0.898   2.488   4.065 -0.7760 -0.4413  0.4210
   49MOL   C24937785   0.975   2.520   4.179  0.4895  0.4097  0.5919
   49MOL   C25037786   1.107   2.554   4.166 -0.0369  0.4163  0.4079
   49MOL   C25137787   1.169   2.571   4.040 -0.5509  1.2997 -0.5514
   49MOL   C25237788   1.314   2.607   4.038 -0.4777 -0.7686  0.1711
   49MOL   O25337789   1.382   2.623   4.144  0.4981  0.0553  0.7063
   49MOL   O25437790   1.359   2.623   3.916 -0.2972 -0.1930  0.5406
   49MOL   C25537791   1.089   2.553   3.924  0.5667  0.3171 -0.3223
   49MOL   C25637792   0.956   2.512   3.937 -0.1890 -0.2966 -0.5600
   49MOL   H25737793   0.320   2.398   3.881  0.1021  0.8215 -0.4845
   49MOL   H25837794   0.368   2.231   3.853 -2.4446  0.9811 -0.1350
   49MOL   H25937795   0.230   2.274   3.691 -1.8762  1.6628 -0.4357
   49MOL   H26037796   0.276   2.444   3.660  0.1280 -0.2980 -0.0253
   49MOL   H26137797   0.393   2.187   3.555  0.7754 -0.4241 -2.2746
   49MOL   H26237798   0.228   2.378   3.426 -0.8617 -1.0972 -1.2452
   49MOL   H26337799   0.387   2.458   3.402  1.1095 -0.7155  0.5004
   49MOL   H26437800   0.578   2.268   3.490 -1.3936 -1.7086 -0.1668
   49MOL   H26537801   0.558   2.432   3.542 -2.2573 -0.3604 -0.7576
   49MOL   H26637802   0.700   2.326   3.722 -0.6062  0.4599  0.2691
   49MOL   H26737803   0.592   2.186   3.729 -0.7327 -0.3142 -0.5081
   49MOL   H26837804   0.544   2.487   3.791 -0.5589 -0.5576 -1.8118
   49MOL   H26937805   0.521   2.379   4.035  0.5643  1.4107  0.9055
   49MOL   H27037806   0.612   2.245   3.963  0.7467  1.0872 -0.8804
   49MOL   H27137807   0.922   2.508   4.272 -2.2110  1.2332 -0.7767
   49MOL   H27237808   1.154   2.565   4.263 -1.0628  2.5543  0.7085
   49MOL   H27337809   1.124   2.579   3.825  0.3045  0.6704 -0.3226
   49MOL   H27437810   0.901   2.496   3.846 -0.0432  0.7697 -0.8406
   49MOL   C27537811   1.870   2.680   4.147  0.1071 -0.3464 -0.2930
   49MOL   C27637812   1.721   2.682   4.110  0.1699  0.2111 -0.2304
   49MOL   C27737813   1.696   2.755   3.971 -0.0469  0.1417  0.1135
   49MOL   C27837814   1.546   2.763   3.927  0.3809 -1.4026 -0.3600
   49MOL   O27937815   1.505   2.631   3.904  0.3007 -0.1645  0.0834
   49MOL   C28037816   1.768   2.896   3.970 -0.1167 -0.0005 -0.8477
   49MOL   C28137817   1.923   2.893   4.004  0.0607 -0.2006  0.4122
   49MOL   C28237818   1.949   2.819   4.141  1.0160 -0.2668 -0.2208
   49MOL   C28337819   2.099   2.806   4.174  0.1698 -0.3923 -0.2144
   49MOL   O28437820   2.175   2.716   4.084  1.1077 -0.4322  0.0976
   49MOL   C28537821   2.304   2.739   4.054  0.2109 -1.0611  0.8330
   49MOL   O28637822   2.360   2.846   4.068 -0.1362  1.2025 -0.6388
   49MOL   C28737823   2.376   2.621   3.990 -0.4838  0.5047  0.2635
   49MOL   C28837824   2.311   2.491   3.977  0.1734 -0.6611 -0.3355
   49MOL   C28937825   2.370   2.386   3.905  0.1404 -0.2505  0.1913
   49MOL   C29037826   2.503   2.400   3.857  0.1451  0.1166  0.1814
   49MOL   C29137827   2.575   2.286   3.799 -0.5731 -0.2435  0.1272
   49MOL   O29237828   2.689   2.295   3.771  0.2846 -0.1151  0.6202
   49MOL   O29337829   2.500   2.171   3.777 -0.6546 -0.5474 -0.2782
   49MOL   C29437830   2.572   2.526   3.876  0.0108 -0.6805  0.3084
   49MOL   C29537831   2.508   2.629   3.950 -0.4926 -1.2897 -0.3679
   49MOL   H29637832   1.878   2.636   4.247  0.0756  0.1762 -0.0625
   49MOL   H29737833   1.919   2.606   4.083 -0.6440 -1.6518  0.6127
   49MOL   H29837834   1.682   2.580   4.112  2.3727 -0.6414  0.8480
   49MOL   H29937835   1.674   2.735   4.193  0.7010  0.1145  0.1317
   49MOL   H30037836   1.750   2.691   3.901  0.8695 -0.7458  1.5953
   49MOL   H30137837   1.484   2.809   4.004 -1.0052  1.2067 -2.9401
   49MOL   H30237838   1.541   2.839   3.849  1.0232  0.3388  1.2213
   49MOL   H30337839   1.749   2.950   3.878 -1.4904 -0.2810 -0.7365
   49MOL   H30437840   1.720   2.960   4.044  0.3713 -0.4163 -0.1611
   49MOL   H30537841   1.962   2.993   4.021  2.5774 -0.3202 -3.9920
   49MOL   H30637842   1.987   2.862   3.922  1.8282  1.8627  0.9608
   49MOL   H30737843   1.902   2.883   4.216 -1.3073 -3.6101  1.3220
   49MOL   H30837844   2.142   2.906   4.171  0.1880 -0.3095  1.8050
   49MOL   H30937845   2.111   2.778   4.279 -0.3384 -0.1848 -0.0975
   49MOL   H31037846   2.206   2.490   4.003  0.3216 -3.8053  0.3765
   49MOL   H31137847   2.311   2.298   3.882  0.3545 -0.3268 -0.0673
   49MOL   H31237848   2.669   2.548   3.835 -0.8099  2.1396 -0.2482
   49MOL   H31337849   2.555   2.724   3.972 -2.3057 -0.4492  0.0051
   49MOL   C31437850   2.515   1.695   3.376  0.1893 -0.3483 -0.6789
   49MOL   C31537851   2.471   1.842   3.412 -0.1200 -0.2994  0.5557
   49MOL   C31637852   2.529   1.882   3.546 -0.4888 -0.9468  0.3671
   49MOL   C31737853   2.492   2.029   3.576 -0.4614  0.0354  0.5101
   49MOL   O31837854   2.572   2.069   3.694 -0.4397  0.4626 -0.6450
   49MOL   C31937855   2.478   1.789   3.657  0.1762  0.1351 -0.8808
   49MOL   C32037856   2.502   1.638   3.618 -0.2132 -0.4597  0.1992
   49MOL   C32137857   2.452   1.595   3.480  0.2290  0.2752  0.1957
   49MOL   C32237858   2.459   1.445   3.446  0.3810 -0.4886 -0.4560
   49MOL   O32337859   2.356   1.376   3.523 -0.3600  0.2439  0.6821
   49MOL   C32437860   2.371   1.245   3.544 -0.0041  0.4448 -0.1068
   49MOL   O32537861   2.475   1.186   3.543 -0.3479 -0.1669  0.3142
   49MOL   C32637862   2.249   1.184   3.603 -1.2763  0.0811 -0.6417
   49MOL   C32737863   2.258   1.051   3.654  0.2096  0.1254  0.7474
   49MOL   C32837864   2.150   0.979   3.699 -0.4411  0.2589  0.3009
   49MOL   C32937865   2.027   1.041   3.689 -0.0593  0.3287 -0.2764
   49MOL   C33037866   1.907   0.968   3.742 -0.4914 -0.2274  1.3921
   49MOL   O33137867   1.914   0.856   3.793  0.2787 -0.2342  0.1985
   49MOL   O33237868   1.785   1.033   3.716  0.2291 -0.7751 -0.0097
   49MOL   C33337869   2.014   1.170   3.645 -0.0337  0.9865  0.0989
   49MOL   C33437870   2.124   1.252   3.610 -0.1413  0.2642 -0.4012
   49MOL   H33537871   2.478   1.669   3.277 -0.7015 -0.4090 -0.3296
   49MOL   H33637872   2.622   1.674   3.369  0.2280 -0.7548  0.8791
   49MOL   H33737873   2.508   1.916   3.340  0.5717  0.0687  1.2875
   49MOL   H33837874   2.363   1.851   3.400 -0.4192 -2.4974  1.3025
   49MOL   H33937875   2.637   1.878   3.538 -0.5297 -1.4776  0.0467
   49MOL   H34037876   2.510   2.097   3.494 -1.1642 -0.4088 -0.0152
   49MOL   H34137877   2.384   2.023   3.593 -0.6116  1.7073  0.2195
   49MOL   H34237878   2.530   1.807   3.751 -1.0451 -2.0619  0.2623
   49MOL   H34337879   2.373   1.810   3.674  0.4711 -0.1768  1.4339
   49MOL   H34437880   2.455   1.576   3.693 -0.6587 -0.9456 -0.4781
   49MOL   H34537881   2.607   1.607   3.625 -0.4880 -1.5093 -0.2365
   49MOL   H34637882   2.346   1.617   3.491  0.1747  0.5058 -0.6808
   49MOL   H34737883   2.438   1.428   3.340  0.2199 -0.3215 -0.4501
   49MOL   H34837884   2.560   1.404   3.458 -0.1538 -0.9057  3.1471
   49MOL   H34937885   2.355   1.005   3.658  0.1915 -0.3635 -2.9497
   49MOL   H35037886   2.158   0.876   3.730 -1.7851  0.7362  2.2710
   49MOL   H35137887   1.922   1.225   3.649 -1.5700 -1.5221  0.8258
   49MOL   H35237888   2.110   1.356   3.583 -2.7668 -0.2286 -1.0407
   49MOL   C35337889   1.317   0.747   3.959 -0.4833 -0.1690 -0.6877
   49MOL   C35437890   1.456   0.788   3.913 -0.3329 -0.0286 -0.0578
   49MOL   C35537891   1.464   0.820   3.760  0.0478  0.4940 -0.2692
   49MOL   C35637892   1.597   0.870   3.705  0.4748  0.1804 -0.3090
   49MOL   O35737893   1.667   0.965   3.788 -0.5574  0.4048  0.3132
   49MOL   C35837894   1.406   0.695   3.682  0.8134  0.3057  0.1822
   49MOL   C35937895   1.271   0.650   3.730  0.4094 -0.1406 -0.6115
   49MOL   C36037896   1.259   0.631   3.888 -0.0959  0.0552  0.2850
   49MOL   C36137897   1.120   0.616   3.934  0.1117  0.0241  0.2179
   49MOL   O36237898   1.106   0.616   4.077  0.1740 -0.7968  0.2657
   49MOL   C36337899   1.011   0.543   4.135  0.3996 -0.0393 -0.1004
   49MOL   O36437900   0.948   0.456   4.072 -0.5763  0.4616  0.1295
   49MOL   C36537901   0.980   0.579   4.276 -0.0868  0.4701 -0.0841
   49MOL   C36637902   1.008   0.709   4.321 -0.1119  0.0117  0.1379
   49MOL   C36737903   0.970   0.747   4.454 -0.6682 -0.2644 -0.0303
   49MOL   C36837904   0.890   0.667   4.534  0.8739  0.2996  0.2183
   49MOL   C36937905   0.869   0.709   4.680  0.2441  0.0470  0.0253
   49MOL   O37037906   0.814   0.636   4.758  0.6386  0.1117  0.0750
   49MOL   O37137907   0.925   0.825   4.706  0.0301 -0.4216  0.2831
   49MOL   C37237908   0.856   0.538   4.483  0.0619 -0.3303  0.0390
   49MOL   C37337909   0.903   0.495   4.359  0.1719  0.2991  0.0388
   49MOL   H37437910   1.322   0.730   4.067 -0.5347 -0.1208 -0.6777
   49MOL   H37537911   1.248   0.830   3.944 -1.6203 -0.4535  2.6320
   49MOL   H37637912   1.482   0.881   3.963 -3.0867  0.8932 -0.2086
   49MOL   H37737913   1.529   0.714   3.944  1.0959  1.0784 -0.7205
   49MOL   H37837914   1.398   0.902   3.734  1.6008  1.4658 -1.2788
   49MOL   H37937915   1.659   0.781   3.699  1.5415  0.8725  0.1936
   49MOL   H38037916   1.584   0.909   3.604 -1.0890  0.2286 -0.0949
   49MOL   H38137917   1.392   0.715   3.575 -1.3784 -3.3843 -0.3082
   49MOL   H38237918   1.479   0.614   3.686 -0.9167 -1.2347  1.0624
   49MOL   H38337919   1.237   0.564   3.673 -4.3461  0.9931  0.2459
   49MOL   H38437920   1.206   0.735   3.712 -0.9928 -0.5842  2.0343
   49MOL   H38537921   1.317   0.548   3.928 -0.9670 -0.2932  0.8366
   49MOL   H38637922   1.053   0.694   3.899  0.1542  0.0908  0.2847
   49MOL   H38737923   1.089   0.521   3.891  2.9625 -0.7876 -0.1146
   49MOL   H38837924   1.065   0.783   4.266  2.3039 -1.8228  0.0869
   49MOL   H38937925   1.014   0.838   4.489  0.1871 -0.5151 -0.4392
   49MOL   H39037926   0.819   0.458   4.546  0.6853 -0.7919 -0.1715
   49MOL   H39137927   0.882   0.395   4.324  1.8248  0.0648 -0.3197
   49MOL   C39237928   1.095   1.269   4.907 -0.8823 -0.2166 -0.0567
   49MOL   C39337929   1.033   1.133   4.939 -0.2426  0.1362  0.1807
   49MOL   C39437930   1.109   1.013   4.873  0.5813 -0.6863  0.3987
   49MOL   C39537931   1.048   0.878   4.906  0.1848  0.0985 -0.1379
   49MOL   O39637932   0.918   0.869   4.852 -0.3214 -0.4917 -0.2790
   49MOL   C39737933   1.139   1.037   4.722 -0.1755 -0.3889  0.0796
   49MOL   C39837934   1.205   1.177   4.705  0.3691 -0.1667 -0.2315
   49MOL   C39937935   1.113   1.290   4.756  0.0863 -0.1436  0.2217
   49MOL   C40037936   1.177   1.432   4.718 -0.1846  0.1122  0.0803
   49MOL   O40137937   1.135   1.457   4.580  0.1809 -0.3305 -0.0994
   49MOL   C40237938   1.073   1.576   4.543  0.3850 -0.0006 -0.0096
   49MOL   O40337939   1.031   1.656   4.625  0.2657  0.6696  0.0728
   49MOL   C40437940   1.082   1.597   4.399 -0.7159 -0.4221 -0.0602
   49MOL   C40537941   1.173   1.530   4.316 -0.0684 -0.1327 -0.7712
   49MOL   C40637942   1.180   1.563   4.175 -0.7811  0.2245 -0.0769
   49MOL   C40737943   1.090   1.659   4.123 -0.6297  0.1975  1.1363
   49MOL   C40837944   1.113   1.704   3.988  0.4805  0.0911  1.0623
   49MOL   O40937945   1.055   1.803   3.930  0.0809  0.3942  0.0850
   49MOL   O41037946   1.176   1.615   3.910  0.0879 -0.1955  0.6963
   49MOL   C41137947   0.999   1.722   4.208 -0.5549  0.3650 -0.3624
   49MOL   C41237948   0.999   1.698   4.344 -0.6632 -0.5278  0.4991
   49MOL   H41337949   1.029   1.341   4.956 -0.6347 -0.7517  1.0825
   49MOL   H41437950   1.194   1.268   4.953 -0.2482  0.8150 -1.3525
   49MOL   H41537951   1.021   1.119   5.046  1.8488 -1.0739  0.2845
   49MOL   H41637952   0.939   1.129   4.884  0.3295 -1.2131 -0.7236
   49MOL   H41737953   1.207   1.010   4.920  0.1394  0.1821  1.3988
   49MOL   H41837954   1.108   0.805   4.851  1.3927  3.0160 -2.8178
   49MOL   H41937955   1.044   0.855   5.013 -0.2437  0.5397 -0.0535
   49MOL   H42037956   1.206   0.967   4.672 -1.4826 -0.6711 -1.2936
   49MOL   H42137957   1.047   1.037   4.665  0.1143 -1.4175 -0.3866
   49MOL   H42237958   1.242   1.184   4.602 -1.4498 -0.1756 -0.9062
   49MOL   H42337959   1.293   1.174   4.770  0.4295 -2.0699 -0.3572
   49MOL   H42437960   1.015   1.291   4.710  0.3861  0.6786 -0.4277
   49MOL   H42537961   1.151   1.511   4.788  0.8521  0.7962 -0.3008
   49MOL   H42637962   1.285   1.420   4.729 -0.1928  1.2568  1.5478
   49MOL   H42737963   1.239   1.454   4.356  0.1372 -0.3489 -1.5095
   49MOL   H42837964   1.256   1.513   4.118 -0.9419  0.2788 -0.3385
   49MOL   H42937965   0.929   1.791   4.165 -1.5267 -0.1088  0.4560
   49MOL   H43037966   0.915   1.740   4.397 -2.6873 -0.6524 -2.4915
   49MOL   C43137967   1.284   2.045   3.620  0.3451 -0.5440 -0.7126
   49MOL   C43237968   1.224   1.901   3.633  0.1030 -0.0248  0.1777
   49MOL   C43337969   1.313   1.803   3.711 -0.0570  0.2267 -0.3249
   49MOL   C43437970   1.265   1.653   3.694 -0.8613  0.0297  0.0133
   49MOL   O43537971   1.147   1.627   3.765  0.2741  0.0008  0.1004
   49MOL   C43637972   1.461   1.812   3.677  0.4433 -0.1931 -0.2082
   49MOL   C43737973   1.511   1.956   3.668  0.0318  0.2246  0.1362
   49MOL   C43837974   1.429   2.041   3.567  0.5365  0.1663 -0.5666
   49MOL   C43937975   1.490   2.185   3.550  0.3955 -0.7234  0.5804
   49MOL   O44037976   1.618   2.176   3.495  0.1938 -0.2443  0.2480
   49MOL   C44137977   1.725   2.220   3.552  0.2303 -0.3482  0.0403
   49MOL   O44237978   1.729   2.257   3.667  1.0708 -0.2640  0.4027
   49MOL   C44337979   1.836   2.221   3.456  0.3809 -0.2379  0.0180
   49MOL   C44437980   1.964   2.250   3.505  0.3617  0.5569  0.9727
   49MOL   C44537981   2.077   2.240   3.421  0.1604  0.1955  1.0276
   49MOL   C44637982   2.060   2.228   3.280  0.2693  0.0521 -0.2955
   49MOL   C44737983   2.185   2.236   3.194 -0.3756  0.9193 -0.2650
   49MOL   O44837984   2.293   2.198   3.243  0.1449 -0.5823 -0.1132
   49MOL   O44937985   2.183   2.258   3.062  0.0193 -0.7760 -0.1721
   49MOL   C45037986   1.933   2.199   3.226  0.2031  0.5585 -0.6090
   49MOL   C45137987   1.818   2.201   3.315  0.3990 -0.0546  0.3993
   49MOL   H45237988   1.219   2.099   3.551  0.2846  0.1569 -0.1120
   49MOL   H45337989   1.277   2.096   3.716 -1.1688  1.3021 -1.7611
   49MOL   H45437990   1.131   1.887   3.688  1.5655  1.1686  3.0880
   49MOL   H45537991   1.205   1.853   3.537 -0.0022  1.5557 -0.6072
   49MOL   H45637992   1.294   1.831   3.814  0.2107 -0.4691 -0.0822
   49MOL   H45737993   1.264   1.640   3.586  3.5438 -0.4550 -0.0909
   49MOL   H45837994   1.343   1.581   3.720 -0.0875  0.4196 -1.1714
   49MOL   H45937995   1.509   1.766   3.763  0.6075 -1.0674 -0.7594
   49MOL   H46037996   1.474   1.754   3.585 -2.4902  0.0150 -0.7924
   49MOL   H46137997   1.618   1.952   3.649  0.0593 -0.5966  0.4519
   49MOL   H46237998   1.513   2.002   3.767  1.6135 -2.0558  1.2037
   49MOL   H46337999   1.436   1.992   3.470  1.0512  2.7847 -1.9282
   49MOL   H46438000   1.427   2.241   3.481  1.0915  1.0665  1.3625
   49MOL   H46538001   1.492   2.234   3.648  0.3408  1.2214 -0.3556
   49MOL   H46638002   1.976   2.270   3.611  1.5525 -1.9201  1.3318
   49MOL   H46738003   2.176   2.247   3.462  1.1050 -1.2773 -0.8631
   49MOL   H46838004   1.927   2.191   3.119 -0.4439  2.5893 -0.7370
   49MOL   H46938005   1.719   2.191   3.273  1.0128  0.0648 -1.0969
   49MOL   C47038006   2.500   1.817   2.762 -0.6605  0.0497 -0.7552
   49MOL   C47138007   2.372   1.886   2.805  0.2197 -0.2295 -0.4289
   49MOL   C47238008   2.404   2.005   2.904  0.1647 -0.4999  0.1737
   49MOL   C47338009   2.280   2.099   2.918 -0.4774 -0.8772 -0.9011
   49MOL   O47438010   2.309   2.221   2.994 -0.3898 -0.4601 -0.0344
   49MOL   C47538011   2.456   1.945   3.035 -0.0898  0.7583 -0.2114
   49MOL   C47638012   2.576   1.857   3.009  0.4066  0.1068 -0.5088
   49MOL   C47738013   2.550   1.750   2.896 -0.3432 -0.1797  0.3386
   49MOL   C47838014   2.662   1.657   2.873 -0.7931 -0.0742  0.6644
   49MOL   O47938015   2.699   1.606   3.000  0.4287 -0.6153 -0.2125
   49MOL   C48038016   2.705   1.473   3.010  0.2405 -0.6578 -0.8365
   49MOL   O48138017   2.688   1.395   2.915 -0.1239  0.0485  0.6192
   49MOL   C48238018   2.740   1.426   3.143  0.2478 -0.2101  0.3473
   49MOL   C48338019   2.708   1.289   3.175 -0.0714 -0.1033  0.7872
   49MOL   C48438020   2.736   1.233   3.302  0.9593 -0.3289 -0.0830
   49MOL   C48538021   2.792   1.319   3.407 -0.1872 -0.1777 -0.6947
   49MOL   C48638022   2.822   1.266   3.546 -0.0704  0.4749  0.3225
   49MOL   O48738023   2.860   1.150   3.564  0.7224  0.1847  0.6553
   49MOL   O48838024   2.795   1.350   3.644 -0.0130  0.2731  0.2903
   49MOL   C48938025   2.823   1.453   3.371 -0.1783  0.0011  0.6345
   49MOL   C49038026   2.793   1.509   3.246 -0.8729  0.0308  0.8242
   49MOL   H49138027   2.470   1.732   2.701  1.4622  0.1567 -1.9911
   49MOL   H49238028   2.570   1.880   2.707 -3.0060  0.3213 -3.5658
   49MOL   H49338029   2.327   1.918   2.710  2.0113  1.2618 -0.8041
   49MOL   H49438030   2.296   1.820   2.847  0.2979  0.7911  1.3464
   49MOL   H49538031   2.484   2.073   2.874 -0.9900  1.3965  1.3514
   49MOL   H49638032   2.252   2.147   2.824 -0.0524  2.7010  0.6944
   49MOL   H49738033   2.191   2.047   2.951 -2.4355  2.1365 -1.2203
   49MOL   H49838034   2.496   2.026   3.097  1.5314  0.2876 -0.6241
   49MOL   H49938035   2.382   1.885   3.089  1.4917  1.3964  2.8224
   49MOL   H50038036   2.600   1.804   3.101 -2.7082  0.9026  0.8251
   49MOL   H50138037   2.658   1.926   2.988 -1.9988  3.8091  1.6327
   49MOL   H50238038   2.466   1.693   2.938  1.2758 -1.2635  2.1981
   49MOL   H50338039   2.630   1.580   2.803 -0.2797  0.3561 -0.0482
   49MOL   H50438040   2.744   1.715   2.831 -2.3732  0.2449 -2.0948
   49MOL   H50538041   2.659   1.224   3.104  0.2197 -0.9978  1.4047
   49MOL   H50638042   2.699   1.136   3.331 -0.3420 -0.1952 -1.2432
   49MOL   H50738043   2.873   1.516   3.443 -2.7789  2.7798  0.0961
   49MOL   H50838044   2.817   1.607   3.209  1.2727 -0.2382  1.4131
   49MOL   C50938045   3.294   1.259   3.880 -0.5881  0.0308  0.2913
   49MOL   C51038046   3.146   1.280   3.914  0.1123 -0.3722 -0.4583
   49MOL   C51138047   3.049   1.303   3.784  0.2767  0.4410  0.4369
   49MOL   C51238048   2.909   1.329   3.843 -0.5939 -0.2929  0.1731
   49MOL   O51338049   2.802   1.280   3.779 -0.3267 -0.0197 -0.3022
   49MOL   C51438050   3.104   1.417   3.703 -0.3361 -0.1878 -0.5452
   49MOL   C51538051   3.254   1.399   3.674  0.1166  0.2068  0.2657
   49MOL   C51638052   3.346   1.372   3.792 -0.4011  0.1399  0.4152
   49MOL   C51738053   3.497   1.355   3.753 -0.3311 -0.1509  0.4651
   49MOL   O51838054   3.576   1.320   3.861 -0.3718  0.1176  0.4056
   49MOL   C51938055   3.593   1.403   3.966  0.0855  0.9847  0.0768
   49MOL   O52038056   3.562   1.521   3.961 -0.4314 -0.7601  0.1087
   49MOL   C52138057   3.658   1.344   4.087  0.1107  0.1510 -0.1927
   49MOL   C52238058   3.739   1.225   4.076 -0.3339 -0.2568  0.2987
   49MOL   C52338059   3.769   1.153   4.198 -0.5043 -0.2168  0.6963
   49MOL   C52438060   3.741   1.209   4.327  0.0452 -0.1657 -0.6126
   49MOL   C52538061   3.779   1.146   4.458  0.3982  0.5142 -0.2974
   49MOL   O52638062   3.836   1.038   4.466 -0.2149 -0.3501  0.4440
   49MOL   O52738063   3.747   1.225   4.564 -0.4111 -0.4576  0.1905
   49MOL   C52838064   3.661   1.323   4.332  0.2056  0.0569 -0.0086
   49MOL   C52938065   3.621   1.391   4.215 -0.2600  0.3462  0.3039
   49MOL   H53038066   3.355   1.242   3.969  0.5889 -0.8028 -0.6672
   49MOL   H53138067   3.298   1.180   3.806 -0.6896 -0.3403  0.6809
   49MOL   H53238068   3.103   1.202   3.977 -0.5381  0.7068  0.4708
   49MOL   H53338069   3.138   1.355   3.993  0.7670 -0.1374 -0.6166
   49MOL   H53438070   3.044   1.209   3.730  1.9187  1.0375 -0.7924
   49MOL   H53538071   2.907   1.292   3.946  2.2121  0.2273  0.4555
   49MOL   H53638072   2.897   1.436   3.859 -0.5905 -0.0996 -1.1215
   49MOL   H53738073   3.037   1.421   3.617 -3.0131 -1.7325  1.3977
   49MOL   H53838074   3.094   1.507   3.765  0.7196  0.7884 -1.7874
   49MOL   H53938075   3.296   1.491   3.631  1.8963 -0.8255 -0.2770
   49MOL   H54038076   3.271   1.321   3.599 -0.0400  0.6613 -0.2495
   49MOL   H54138077   3.346   1.466   3.846  0.3559  1.3418 -1.6324
   49MOL   H54238078   3.497   1.266   3.690 -1.0241 -0.6794  1.1971
   49MOL   H54338079   3.539   1.444   3.708  1.1497 -1.0513  0.0451
   49MOL   H54438080   3.770   1.191   3.978 -0.3024  0.6870 -0.0224
   49MOL   H54538081   3.828   1.062   4.199 -1.2721 -0.7258  0.0229
   49MOL   H54638082   3.632   1.366   4.427 -1.8990  0.6779 -0.8981
   49MOL   H54738083   3.553   1.474   4.227 -1.4261 -0.2873 -1.7248
   49MOL   C54838084   3.899   0.884   5.014  0.1772 -0.1618  0.0760
   49MOL   C54938085   3.882   0.956   4.885 -0.2215 -0.3771  0.3258
   49MOL   C55038086   3.929   1.104   4.883  0.7713 -0.0276  0.6304
   49MOL   C55138087   3.905   1.175   4.746 -0.0437 -0.0330 -0.0962
   49MOL   O55238088   3.772   1.154   4.698 -0.1487  0.4044 -0.1170
   49MOL   C55338089   3.849   1.176   4.987  0.2763 -0.1022  0.5318
   49MOL   C55438090   3.873   1.109   5.134  0.5336  0.2694  0.2053
   49MOL   C55538091   3.836   0.957   5.135 -0.3440  0.1259  1.1378
   49MOL   C55638092   3.888   0.886   5.265 -0.3850 -0.5162 -0.7684
   49MOL   O55738093   3.830   0.940   5.379  0.5313 -0.1924 -0.1090
   49MOL   C55838094   3.862   0.895   5.500 -0.1130  0.3749 -0.2981
   49MOL   O55938095   3.929   0.794   5.520  0.4464  0.1405  0.1577
   49MOL   C56038096   3.800   0.985   5.608  0.5619 -0.1236  0.3098
   49MOL   C56138097   3.821   0.957   5.741 -0.3661  0.7099 -0.1990
   49MOL   C56238098   3.757   1.029   5.844 -0.3078  0.2657  0.3683
   49MOL   C56338099   3.679   1.141   5.814  0.6345  0.0022  0.2134
   49MOL   C56438100   3.620   1.228   5.918  0.2644  0.2333 -0.0103
   49MOL   O56538101   3.624   1.202   6.037 -0.2041  0.3335 -0.2143
   49MOL   O56638102   3.577   1.348   5.869 -0.4318 -0.1145 -0.4164
   49MOL   C56738103   3.651   1.167   5.676 -0.7957  0.0070  0.3789
   49MOL   C56838104   3.718   1.098   5.570  0.4344  0.2745  0.5017
   49MOL   H56938105   3.854   0.785   5.006  1.8255 -0.7382 -2.5075
   49MOL   H57038106   4.004   0.861   5.037 -0.5019 -1.0595  2.4660
   49MOL   H57138107   3.924   0.893   4.807 -0.2820 -1.0051  0.8020
   49MOL   H57238108   3.776   0.966   4.859 -0.0021  0.5147 -0.2674
   49MOL   H57338109   4.035   1.116   4.908  0.1187  3.5488  1.9912
   49MOL   H57438110   3.913   1.281   4.770 -0.5811 -0.4200  1.9452
   49MOL   H57538111   3.982   1.151   4.673  0.6204 -1.8869  1.1563
   49MOL   H57638112   3.874   1.282   4.989  0.6962 -0.1850 -0.4283
   49MOL   H57738113   3.744   1.179   4.960  0.1782 -1.9439  0.6423
   49MOL   H57838114   3.804   1.156   5.203  2.0717  0.1037  1.8915
   49MOL   H57938115   3.979   1.126   5.152  0.4521  0.5645  0.4073
   49MOL   H58038116   3.729   0.947   5.121 -0.4466  0.5714  1.5904
   49MOL   H58138117   3.831   0.793   5.267 -2.1991  0.5854  2.5174
   49MOL   H58238118   3.996   0.873   5.274 -0.3508  0.8755  1.1199
   49MOL   H58338119   3.875   0.869   5.775 -1.9628  0.0847  0.7816
   49MOL   H58438120   3.778   1.013   5.948 -1.2317  1.8677  0.8213
   49MOL   H58538121   3.589   1.253   5.655 -0.7959  0.3321  1.6670
   49MOL   H58638122   3.698   1.118   5.465  0.4808  2.2184  0.8460
   49MOL   C58738123   3.826   1.810   5.806  0.1441 -0.8788 -0.7469
   49MOL   C58838124   3.790   1.728   5.925 -0.2537 -0.3499  0.3541
   49MOL   C58938125   3.674   1.632   5.896 -0.6402  0.1750  0.0618
   49MOL   C59038126   3.646   1.534   6.012 -0.5845  0.0556  0.1735
   49MOL   O59138127   3.537   1.448   5.981  0.3677  0.0958  0.3050
   49MOL   C59238128   3.545   1.711   5.852 -0.2034 -0.2456 -0.2924
   49MOL   C59338129   3.577   1.796   5.723  0.1417 -0.0134  0.0994
   49MOL   C59438130   3.703   1.885   5.756 -0.3801  0.9068  0.1031
   49MOL   C59538131   3.751   1.966   5.640 -0.6640  0.7173 -0.0467
   49MOL   O59638132   3.648   2.047   5.576 -0.9836 -0.4078 -0.2817
   49MOL   C59738133   3.612   2.023   5.445 -0.0689  0.1801 -0.2765
   49MOL   O59838134   3.672   1.937   5.376  0.2742 -0.1211 -0.3840
   49MOL   C59938135   3.507   2.117   5.395 -0.0537 -0.3946 -0.1532
   49MOL   C60038136   3.500   2.133   5.259 -0.6962  1.2973  0.7687
   49MOL   C60138137   3.394   2.203   5.198 -0.2398  0.1299 -0.3024
   49MOL   C60238138   3.294   2.267   5.282 -0.5439  0.1157 -0.3451
   49MOL   C60338139   3.190   2.361   5.229  0.3764  1.0227 -0.0357
   49MOL   O60438140   3.103   2.414   5.294  0.3893  0.2428 -0.1486
   49MOL   O60538141   3.190   2.365   5.096 -0.4015 -0.3252  0.1084
   49MOL   C60638142   3.294   2.240   5.418 -0.1933  0.1947 -0.2955
   49MOL   C60738143   3.413   2.186   5.476 -0.3336  0.1871  0.3982
   49MOL   H60838144   3.916   1.867   5.830 -0.7581  0.2748 -0.0230
   49MOL   H60938145   3.857   1.743   5.726 -0.1620  0.7737 -2.2687
   49MOL   H61038146   3.878   1.670   5.953 -0.7457 -0.5411  1.5232
   49MOL   H61138147   3.777   1.791   6.012  2.5945  0.0379  0.5600
   49MOL   H61238148   3.715   1.565   5.820  0.9006  0.7988  0.3290
   49MOL   H61338149   3.730   1.486   6.063 -0.5099  0.3420  0.3233
   49MOL   H61438150   3.610   1.588   6.099 -0.6392  1.1916 -0.5435
   49MOL   H61538151   3.462   1.645   5.829  0.2168 -0.6442 -0.6686
   49MOL   H61638152   3.509   1.774   5.934 -1.5759 -1.2773 -0.0917
   49MOL   H61738153   3.483   1.839   5.689  0.7950  1.9718  0.7483
   49MOL   H61838154   3.607   1.722   5.649  0.7691  1.6803 -1.3747
   49MOL   H61938155   3.679   1.957   5.834  0.3341  0.9129  0.3193
   49MOL   H62038156   3.828   2.036   5.672  0.0085  0.1030 -0.3188
   49MOL   H62138157   3.797   1.892   5.574 -2.0340 -1.1210  1.0083
   49MOL   H62238158   3.568   2.078   5.196 -2.5501  0.7479 -0.8233
   49MOL   H62338159   3.373   2.214   5.093 -0.1825  1.6810 -0.1681
   49MOL   H62438160   3.234   2.286   5.494  0.8594  2.4358 -0.7748
   49MOL   H62538161   3.417   2.170   5.583  1.4411 -1.4213  0.1234
   49MOL   C62638162   2.870   2.605   4.723 -0.1656 -0.6157  0.4227
   49MOL   C62738163   2.961   2.521   4.814  0.0546  0.6740  0.0272
   49MOL   C62838164   2.881   2.442   4.916  0.6977 -0.3866 -0.0798
   49MOL   C62938165   2.971   2.365   5.009 -0.1262 -0.3339  1.0372
   49MOL   O63038166   3.072   2.448   5.051 -0.0211 -0.1817  0.5115
   49MOL   C63138167   2.784   2.530   4.988  0.0806 -0.1214  0.3291
   49MOL   C63238168   2.695   2.615   4.894  0.5852 -0.1566 -0.1745
   49MOL   C63338169   2.774   2.700   4.793  0.1805  0.0708  0.3552
   49MOL   C63438170   2.683   2.765   4.684  0.3608 -0.2286 -0.3512
   49MOL   O63538171   2.598   2.673   4.631 -0.1684  0.3592  0.4336
   49MOL   C63638172   2.519   2.702   4.527  1.0771  0.2024  0.1228
   49MOL   O63738173   2.505   2.812   4.470  0.0488  0.4491  0.2789
   49MOL   C63838174   2.445   2.580   4.481  0.1607 -0.4966  0.0512
   49MOL   C63938175   2.478   2.450   4.535  0.8773  0.2627  0.3608
   49MOL   C64038176   2.417   2.337   4.481  0.6985  0.0309 -0.3454
   49MOL   C64138177   2.310   2.346   4.381 -0.7491  0.2717 -0.8349
   49MOL   C64238178   2.258   2.226   4.315 -0.2465  0.4478 -0.2060
   49MOL   O64338179   2.273   2.111   4.360 -0.1130  0.3455  0.2352
   49MOL   O64438180   2.208   2.252   4.191 -0.0548  0.0264  0.2321
   49MOL   C64538181   2.274   2.473   4.337  0.0012 -0.2355 -0.3269
   49MOL   C64638182   2.350   2.588   4.376 -0.0631  0.1388 -0.0058
   49MOL   H64738183   2.931   2.668   4.658  0.5965  0.3897  2.0800
   49MOL   H64838184   2.817   2.543   4.651  1.5839  0.0984 -1.5304
   49MOL   H64938185   3.033   2.461   4.758 -1.3566  1.4045 -2.6337
   49MOL   H65038186   3.024   2.595   4.864  1.1858 -0.4558  0.3100
   49MOL   H65138187   2.814   2.383   4.854  0.0080 -1.2354  1.4739
   49MOL   H65238188   2.921   2.308   5.088  0.8576 -0.0520  1.8692
   49MOL   H65338189   3.018   2.287   4.949  0.4650  0.4239  0.5123
   49MOL   H65438190   2.726   2.470   5.058 -2.5812 -1.2283 -2.6989
   49MOL   H65538191   2.842   2.599   5.049 -0.2882 -1.3851  2.1427
   49MOL   H65638192   2.625   2.666   4.960  2.3334 -0.6694  2.1522
   49MOL   H65738193   2.620   2.551   4.848  0.4032 -0.3171  0.3379
   49MOL   H65838194   2.834   2.781   4.835 -0.1333  1.3113 -1.5263
   49MOL   H65938195   2.633   2.858   4.712  0.1082  0.0124 -1.5685
   49MOL   H66038196   2.748   2.803   4.605 -1.8422  2.0888 -1.1534
   49MOL   H66138197   2.540   2.437   4.622  0.9266 -3.0413 -0.0962
   49MOL   H66238198   2.436   2.238   4.521 -2.0303  0.2460  1.6254
   49MOL   H66338199   2.198   2.494   4.262  1.6275  0.4216 -1.8342
   49MOL   H66438200   2.330   2.685   4.332 -1.1886  0.2531  0.7335
   49MOL   C66538201   1.809   2.338   3.998  0.4967  0.3915 -0.2857
   49MOL   C66638202   1.922   2.278   4.083 -0.0911  0.4222 -0.3560
   49MOL   C66738203   1.945   2.128   4.042  0.4854  0.0465  0.3952
   49MOL   C66838204   2.071   2.066   4.111 -0.2623  0.1316  0.1588
   49MOL   O66938205   2.199   2.127   4.101 -0.2220  1.2999  0.5721
   49MOL   C67038206   1.815   2.055   4.074 -0.4914 -0.0010 -0.3278
   49MOL   C67138207   1.699   2.111   3.988  0.0486  0.2084 -0.1928
   49MOL   C67238208   1.673   2.256   4.018  0.2648 -0.3331 -0.0242
   49MOL   C67338209   1.552   2.305   3.933 -0.1866 -0.2833 -0.0189
   49MOL   O67438210   1.434   2.244   3.978  0.5560  0.0659  0.0315
   49MOL   C67538211   1.324   2.265   3.905 -0.1887 -0.4537 -0.7295
   49MOL   O67638212   1.310   2.340   3.810 -0.1796 -0.1757  0.3908
   49MOL   C67738213   1.204   2.185   3.948  0.0944 -0.4639  0.4870
   49MOL   C67838214   1.199   2.125   4.076 -0.0949 -0.1231  0.3791
   49MOL   C67938215   1.074   2.075   4.118  0.2749 -0.3795 -0.1584
   49MOL   C68038216   0.955   2.084   4.040 -0.7000  0.4141  0.4524
   49MOL   C68138217   0.830   2.030   4.079  0.4104 -0.0310 -0.7281
   49MOL   O68238218   0.736   2.008   3.999  0.0295  0.2935 -0.2231
   49MOL   O68338219   0.812   2.017   4.214 -0.2084 -0.2054  0.9474
   49MOL   C68438220   0.977   2.139   3.910 -0.0022 -0.8509  0.0852
   49MOL   C68538221   1.096   2.195   3.864  0.7247 -0.3064  0.4693
   49MOL   H68638222   1.789   2.445   4.010  1.5009  0.5564  0.0051
   49MOL   H68738223   1.838   2.319   3.894  0.7455 -0.5197 -0.0503
   49MOL   H68838224   2.011   2.333   4.052  0.1179  0.9725  1.2180
   49MOL   H68938225   1.913   2.288   4.191 -2.3714  3.6729 -0.7871
   49MOL   H69038226   1.954   2.119   3.933 -0.9159 -1.5160  0.3913
   49MOL   H69138227   2.054   2.067   4.219 -0.2824 -3.0589  0.2336
   49MOL   H69238228   2.087   1.967   4.068 -2.4772 -0.6725  1.0622
   49MOL   H69338229   1.840   1.950   4.058 -2.1988 -0.2934 -1.1690
   49MOL   H69438230   1.794   2.070   4.180 -3.3907  0.0275 -0.8694
   49MOL   H69538231   1.605   2.057   4.005 -0.9904  1.8226 -0.7027
   49MOL   H69638232   1.717   2.084   3.884 -0.7531 -0.0625 -0.2639
   49MOL   H69738233   1.640   2.271   4.121 -1.7529 -0.9826 -0.5626
   49MOL   H69838234   1.537   2.411   3.950 -0.0905 -0.3342  0.3870
   49MOL   H69938235   1.576   2.300   3.827  1.2893  1.5177  0.2015
   49MOL   H70038236   1.279   2.135   4.148  0.8446 -0.1021 -0.6420
   49MOL   H70138237   1.068   2.024   4.213 -0.3145 -2.2527 -1.1567
   49MOL   H70238238   0.901   2.152   3.833 -0.3034 -3.6057 -0.1617
   49MOL   H70338239   1.096   2.247   3.770 -1.7275  0.8697  1.0926
   49MOL   C70438240   0.244   1.951   4.402  0.7137 -0.0102 -0.2859
   49MOL   C70538241   0.385   1.951   4.344  0.3070  0.3498 -0.3056
   49MOL   C70638242   0.489   2.054   4.409  0.7510  0.2161 -0.3757
   49MOL   C70738243   0.602   2.093   4.306 -0.7228 -0.1873  0.1476
   49MOL   O70838244   0.673   1.977   4.263 -0.0668  0.2169  0.5232
   49MOL   C70938245   0.425   2.187   4.446  0.4293  0.4804  0.0157
   49MOL   C71038246   0.278   2.186   4.502 -0.3800  0.3220  0.4487
   49MOL   C71138247   0.187   2.103   4.414 -0.5644 -0.9858 -0.5240
   49MOL   C71238248   0.044   2.091   4.472  0.0811 -0.1318  0.4202
   49MOL   O71338249   7.987   2.013   4.394 -0.0525  0.0956  0.2305
   49MOL   C71438250   7.854   2.047   4.393 -0.4833 -0.1799  0.3692
   49MOL   O71538251   7.803   2.114   4.483  0.1483  0.2868  0.0662
   49MOL   C71638252   7.783   1.989   4.274 -0.1001  0.9236 -0.2570
   49MOL   C71738253   7.669   2.051   4.217 -0.6133  0.4573 -0.2954
   49MOL   C71838254   7.605   1.998   4.101  0.3109  0.4430  0.1086
   49MOL   C71938255   7.650   1.873   4.043  0.3399  0.5120  0.1502
   49MOL   C72038256   7.586   1.810   3.925 -0.5953  0.0513  0.1989
   49MOL   O72138257   7.639   1.724   3.851  0.1198 -0.0509  0.2059
   49MOL   O72238258   7.467   1.856   3.908  0.2921  0.4274  0.2833
   49MOL   C72338259   7.763   1.811   4.100 -0.1887 -0.2735  0.0994
   49MOL   C72438260   7.830   1.869   4.211  0.1232  0.3944  0.3721
   49MOL   H72538261   0.179   1.885   4.346 -0.1215  1.6275 -1.2991
   49MOL   H72638262   0.248   1.917   4.506  0.8535  2.9082  0.7166
   49MOL   H72738263   0.427   1.851   4.345 -0.1567  0.1488 -0.8060
   49MOL   H72838264   0.369   1.972   4.238  0.9428  0.2060 -0.4335
   49MOL   H72938265   0.530   2.010   4.499  0.2441  1.4533  0.4883
   49MOL   H73038266   0.560   2.130   4.213 -0.7366  1.1522  0.6841
   49MOL   H73138267   0.670   2.160   4.358  0.4262 -2.7650  2.0660
   49MOL   H73238268   0.503   2.217   4.516 -1.2433  0.6619  1.8333
   49MOL   H73338269   0.427   2.247   4.355  0.5655  1.3115  0.5605
   49MOL   H73438270   0.242   2.289   4.498 -0.0725  0.5098  2.3804
   49MOL   H73538271   0.276   2.160   4.607  1.6605 -1.6015  0.0504
   49MOL   H73638272   0.187   2.147   4.314 -0.7306  1.1628  0.3935
   49MOL   H73738273   0.048   2.041   4.568  0.3055  0.9335  0.9758
   49MOL   H73838274   0.012   2.196   4.469  1.6503  0.3390 -0.4750
   49MOL   H73938275   7.630   2.143   4.256 -1.1022  0.5843 -1.0607
   49MOL   H74038276   7.525   2.057   4.057  0.5846  0.5120 -0.2981
   49MOL   H74138277   7.793   1.722   4.047 -1.4266 -2.0317  2.2709
   49MOL   H74238278   7.922   1.826   4.247  0.1769  1.1720  1.1755
   49MOL   C74338279   7.207   1.419   3.570 -0.8233 -0.2768  0.1826
   49MOL   C74438280   7.205   1.523   3.684  0.2364  0.4758  0.2918
   49MOL   C74538281   7.309   1.636   3.658  0.2529 -0.0326  0.2086
   49MOL   C74638282   7.310   1.725   3.781  0.1350 -0.2048 -0.6410
   49MOL   O74738283   7.411   1.826   3.768 -0.0021  0.0068  0.3844
   49MOL   C74838284   7.449   1.578   3.627 -0.3729  0.4249 -0.6900
   49MOL   C74938285   7.440   1.475   3.517 -0.7380 -0.0130  0.4586
   49MOL   C75038286   7.346   1.361   3.549  0.5443 -0.2879  0.3174
   49MOL   C75138287   7.347   1.250   3.445 -0.7100  0.5406  0.5237
   49MOL   O75238288   7.465   1.175   3.451  0.0955 -0.0306 -0.1785
   49MOL   C75338289   7.477   1.085   3.354  0.7264  0.1695  0.0296
   49MOL   O75438290   7.395   1.064   3.265  0.3021  0.2776 -0.2919
   49MOL   C75538291   7.614   1.020   3.358 -0.9862 -0.5786  0.1505
   49MOL   C75638292   7.658   0.957   3.239 -0.4608  0.0586 -0.4047
   49MOL   C75738293   7.787   0.897   3.239 -0.2333 -0.9166 -0.9137
   49MOL   C75838294   7.874   0.895   3.350  0.2066 -0.3418  0.0944
   49MOL   C75938295   8.007   0.819   3.349 -0.2078 -0.7065  0.7715
   49MOL   O76038296   0.046   0.810   3.449  0.0026  0.1397 -0.3786
   49MOL   O76138297   8.030   0.762   3.226 -0.2148 -0.0898  0.4362
   49MOL   C76238298   7.828   0.960   3.466 -0.3173  0.4489  0.0855
   49MOL   C76338299   7.703   1.029   3.467 -0.0198  0.5565 -0.6574
   49MOL   H76438300   7.142   1.335   3.595 -4.4289  1.8004 -1.6363
   49MOL   H76538301   7.164   1.469   3.483  2.3410  0.5690 -0.9656
   49MOL   H76638302   7.103   1.558   3.698  0.6344  2.0992 -0.7862
   49MOL   H76738303   7.235   1.463   3.770  1.1983  0.6006  0.0478
   49MOL   H76838304   7.268   1.696   3.577  0.4143 -1.6928 -1.1375
   49MOL   H76938305   7.217   1.768   3.818  0.7093 -0.3931  1.0891
   49MOL   H77038306   7.339   1.669   3.870 -2.5992  1.3365  1.2801
   49MOL   H77138307   7.506   1.660   3.583  1.2758 -0.4001 -0.1249
   49MOL   H77238308   7.504   1.541   3.713 -0.3051  1.9638 -0.0578
   49MOL   H77338309   7.533   1.437   3.474 -0.4434  0.7724  0.3996
   49MOL   H77438310   7.401   1.530   3.431  0.7341 -1.0743 -0.9123
   49MOL   H77538311   7.386   1.322   3.643  0.1971  0.6647  0.8767
   49MOL   H77638312   7.265   1.178   3.442 -0.3909  0.0601  2.5164
   49MOL   H77738313   7.341   1.293   3.345 -1.0083 -1.9416 -0.5487
   49MOL   H77838314   7.598   0.965   3.150 -0.6298  1.9060 -0.1471
   49MOL   H77938315   7.828   0.844   3.154  1.7984 -2.0148  0.7021
   49MOL   H78038316   7.899   0.967   3.546 -0.4819  1.8123  0.1313
   49MOL   H78138317   7.663   1.070   3.559  2.5116 -0.9342  1.1917
   49MOL   H78238318   0.030   0.677   3.247 -0.9499 -0.3180  0.7748
   50MOL     C138319   5.832   1.554   2.091 -1.2029 -0.1239  0.1805
   50MOL     C238320   5.872   1.403   2.097 -0.6320 -0.7017 -0.1945
   50MOL     C338321   5.879   1.360   2.242  0.1131 -0.0172  0.3452
   50MOL     C438322   5.910   1.211   2.274  0.0848 -0.8538  0.3594
   50MOL     O538323   5.805   1.137   2.219  0.4354 -0.2923 -0.2155
   50MOL     C638324   5.977   1.450   2.318  0.3675 -0.8566  0.5464
   50MOL     C738325   5.946   1.603   2.305 -0.2228  0.0667  0.4762
   50MOL     C838326   5.936   1.641   2.158 -0.9022  0.1863  0.3300
   50MOL     C938327   5.917   1.796   2.144  0.0560  0.3243 -0.5779
   50MOL    O1038328   5.802   1.841   2.211  0.7329 -0.8295  0.6109
   50MOL    C1138329   5.694   1.868   2.144 -0.0601 -0.0827  0.1490
   50MOL    O1238330   5.688   1.869   2.024 -0.5798 -0.2721 -0.0945
   50MOL    C1338331   5.580   1.919   2.227 -0.5232 -0.0555 -0.0391
   50MOL    C1438332   5.575   1.881   2.367  0.1955 -0.8265  0.3467
   50MOL    C1538333   5.462   1.916   2.441 -0.4872 -0.2792  0.6072
   50MOL    C1638334   5.352   1.977   2.382  0.5105  0.4238 -0.3698
   50MOL    C1738335   5.229   2.012   2.460  0.0718 -0.2328  0.1178
   50MOL    O1838336   5.133   2.063   2.403 -0.4096  0.6944 -0.3484
   50MOL    O1938337   5.246   1.995   2.597  0.2740 -0.2163  0.1332
   50MOL    C2038338   5.349   1.993   2.244  0.0300  0.2159  1.1768
   50MOL    C2138339   5.460   1.966   2.167  0.1894  0.2016  0.8026
   50MOL    H2238340   5.826   1.584   1.986 -3.7317 -1.7438 -0.1828
   50MOL    H2338341   5.732   1.570   2.131 -2.4838  1.2405 -3.3570
   50MOL    H2438342   5.795   1.347   2.044 -1.5248  1.2105 -0.9592
   50MOL    H2538343   5.963   1.372   2.045 -0.2012  2.5954 -1.5982
   50MOL    H2638344   5.780   1.379   2.283 -0.6975 -0.1724 -1.4700
   50MOL    H2738345   5.999   1.165   2.231  0.3619  0.0328 -0.0100
   50MOL    H2838346   5.925   1.187   2.380  0.2158  0.4071  0.6329
   50MOL    H2938347   5.980   1.432   2.426 -1.4273  0.1134  0.7642
   50MOL    H3038348   6.081   1.433   2.288  0.7431 -0.0998  1.4038
   50MOL    H3138349   6.032   1.657   2.343 -0.3726  2.3307 -2.1983
   50MOL    H3238350   5.862   1.647   2.359  0.7744  1.9490  0.5346
   50MOL    H3338351   6.030   1.621   2.106 -1.3146  2.5132 -1.4179
   50MOL    H3438352   6.001   1.853   2.184  2.7565 -1.3050 -3.5679
   50MOL    H3538353   5.930   1.810   2.036  1.7722 -0.8685 -0.5476
   50MOL    H3638354   5.655   1.820   2.405  0.4997 -0.7551 -0.1746
   50MOL    H3738355   5.452   1.882   2.543 -2.1796 -4.4782 -0.8815
   50MOL    H3838356   5.259   2.036   2.201  0.6219  2.2277  1.8834
   50MOL    H3938357   5.463   1.977   2.059  3.2498 -0.7323  0.7299
   50MOL    H4038358   5.834   1.048   2.210 -1.2637 -0.6756 -2.0347
   50MOL    C4138359   4.847   2.280   2.922 -0.2676  0.4749  0.4820
   50MOL    C4238360   4.967   2.194   2.881  0.5437 -0.2527 -0.3699
   50MOL    C4338361   5.018   2.247   2.749 -0.1011  0.2633  0.1564
   50MOL    C4438362   5.146   2.184   2.696 -0.3792 -0.5144  0.1124
   50MOL    O4538363   5.127   2.045   2.675  0.5425  0.2577 -0.3239
   50MOL    C4638364   4.911   2.249   2.639  0.4757 -0.1922  0.7563
   50MOL    C4738365   4.789   2.330   2.687 -0.3178 -0.0168 -0.0621
   50MOL    C4838366   4.738   2.273   2.816  0.2328  0.5283 -0.5835
   50MOL    C4938367   4.608   2.349   2.854  0.3818  0.0115  0.0830
   50MOL    O5038368   4.638   2.490   2.865  0.2913 -0.3735  0.0829
   50MOL    C5138369   4.589   2.550   2.979  0.0477  0.1265  0.0741
   50MOL    O5238370   4.491   2.506   3.041  0.0693 -0.5826 -0.9345
   50MOL    C5338371   4.677   2.665   3.015 -0.2210 -0.2044 -0.2822
   50MOL    C5438372   4.662   2.722   3.148  0.8966 -0.6012 -0.1010
   50MOL    C5538373   4.733   2.833   3.193  0.4984  0.3619 -0.0167
   50MOL    C5638374   4.828   2.887   3.101 -0.0282 -0.4767 -0.8374
   50MOL    C5738375   4.913   3.005   3.146 -0.1413 -0.2903  0.4301
   50MOL    O5838376   5.017   3.035   3.094  0.0311 -0.6754 -0.0687
   50MOL    O5938377   4.877   3.061   3.263 -0.0143  0.8354 -0.1249
   50MOL    C6038378   4.849   2.828   2.974  0.4667  0.1493 -0.3316
   50MOL    C6138379   4.774   2.720   2.931  0.8237 -0.4185 -0.7529
   50MOL    H6238380   4.811   2.240   3.017 -1.1761  1.9717  0.7832
   50MOL    H6338381   4.867   2.386   2.939 -0.8613  0.7401 -0.4616
   50MOL    H6438382   5.044   2.190   2.958 -0.8164 -0.4861  1.0067
   50MOL    H6538383   4.935   2.091   2.869  0.8503 -0.5054  0.8693
   50MOL    H6638384   5.032   2.355   2.762  0.7115 -0.0230  1.7994
   50MOL    H6738385   5.153   2.232   2.599 -2.4859  0.1664  0.2736
   50MOL    H6838386   5.233   2.205   2.757  0.4920  0.4167 -1.4256
   50MOL    H6938387   4.938   2.313   2.554 -1.3018  0.9775  1.0449
   50MOL    H7038388   4.893   2.146   2.607 -1.6009  0.4179 -0.1609
   50MOL    H7138389   4.712   2.319   2.611  0.5942 -1.0836 -0.8476
   50MOL    H7238390   4.819   2.435   2.694  1.2850 -0.6462  3.1789
   50MOL    H7338391   4.704   2.170   2.799  0.7816 -0.4321  3.5712
   50MOL    H7438392   4.522   2.310   2.798  0.3070  0.9195 -0.4524
   50MOL    H7538393   4.584   2.309   2.952 -2.6226 -3.0196 -1.7759
   50MOL    H7638394   4.586   2.677   3.211 -0.3196  0.3911 -0.8626
   50MOL    H7738395   4.704   2.878   3.287 -0.8947 -0.6472  0.0630
   50MOL    H7838396   4.922   2.869   2.905  0.5923  1.4930  0.5755
   50MOL    H7938397   4.785   2.678   2.832  1.8582  0.8325 -1.1810
   50MOL    C8038398   5.315   3.210   3.684 -0.1848  0.3607 -0.6819
   50MOL    C8138399   5.222   3.114   3.617  0.2569 -0.3882 -0.7665
   50MOL    C8238400   5.127   3.186   3.513 -0.3640 -0.2853 -0.2237
   50MOL    C8338401   5.039   3.090   3.424  0.5831 -0.3709  0.0297
   50MOL    O8438402   4.972   3.156   3.323 -0.0723  0.7616  0.3769
   50MOL    C8538403   5.050   3.310   3.575 -0.6687  0.5474 -0.3963
   50MOL    C8638404   5.135   3.385   3.674  0.5357 -0.0767 -0.0435
   50MOL    C8738405   5.221   3.299   3.772  0.1802  0.1529  0.1538
   50MOL    C8838406   5.308   3.392   3.862  0.1202 -0.2481 -0.0916
   50MOL    O8938407   5.234   3.478   3.952  0.5516  0.1475 -0.1076
   50MOL    C9038408   5.221   3.608   3.920  0.7546  0.4803 -0.4697
   50MOL    O9138409   5.242   3.657   3.811  0.1600 -0.6887 -0.1870
   50MOL    C9238410   5.171   3.695   4.034 -0.5075 -0.1942 -0.0631
   50MOL    C9338411   5.144   3.650   4.167  0.5665 -0.0451 -0.6833
   50MOL    C9438412   5.085   3.726   4.267  0.5655 -0.6786 -0.3118
   50MOL    C9538413   5.065   3.863   4.236  0.5118 -0.1929 -0.1446
   50MOL    C9638414   5.022   3.946   4.351 -1.1950  0.2742 -0.1414
   50MOL    O9738415   4.995   3.902   4.459 -0.0473  0.8517  0.0191
   50MOL    O9838416   5.034   4.078   4.326 -0.1824  0.1120 -0.2256
   50MOL    C9938417   5.096   3.915   4.109 -0.5394 -0.2174  0.0943
   50MOL   C10038418   5.148   3.833   4.011  0.3104 -0.6170  0.0102
   50MOL   H10138419   5.384   3.157   3.750 -1.9182 -1.5984 -0.4179
   50MOL   H10238420   5.377   3.270   3.618  1.3869  1.2378  1.5006
   50MOL   H10338421   5.289   3.041   3.571  2.7853  2.2274 -1.3513
   50MOL   H10438422   5.161   3.059   3.689 -1.8064  0.7634 -1.5883
   50MOL   H10538423   5.196   3.220   3.436  0.0169 -0.8331 -0.1272
   50MOL   H10638424   5.100   3.021   3.365 -2.4239 -2.1914 -1.0447
   50MOL   H10738425   4.950   3.062   3.480 -1.0032 -2.4007 -3.3397
   50MOL   H10838426   5.025   3.368   3.486 -1.0566 -1.3069 -1.5237
   50MOL   H10938427   4.963   3.271   3.628 -0.7974  0.7041 -0.4935
   50MOL   H11038428   5.074   3.455   3.731 -1.0003 -0.2851 -1.4207
   50MOL   H11138429   5.197   3.460   3.625 -0.1121  0.2397 -0.3774
   50MOL   H11238430   5.163   3.234   3.838  0.8970  1.1346  1.7798
   50MOL   H11338431   5.382   3.340   3.922  0.5883 -0.9113 -1.2200
   50MOL   H11438432   5.374   3.443   3.792 -0.0751  0.1448  0.0082
   50MOL   H11538433   5.173   3.550   4.195 -0.9187  0.2895  2.2023
   50MOL   H11638434   5.067   3.692   4.368 -0.2394  0.0842 -0.1897
   50MOL   H11738435   5.073   4.018   4.085  0.1907  0.1404  0.9011
   50MOL   H11838436   5.174   3.861   3.910 -1.2608 -1.8291 -0.7472
   50MOL   C11938437   5.091   4.587   4.508 -0.9123 -0.2307 -0.1603
   50MOL   C12038438   5.062   4.447   4.459 -0.1553  0.2423  0.9620
   50MOL   C12138439   5.122   4.337   4.556 -0.4008 -0.0065  0.7894
   50MOL   C12238440   5.128   4.196   4.500 -0.4503  0.1835  0.2688
   50MOL   O12338441   5.004   4.168   4.436 -0.2299 -0.2740  0.3751
   50MOL   C12438442   5.268   4.375   4.594  0.4322 -0.2130  0.3634
   50MOL   C12538443   5.291   4.520   4.637  0.0522  0.7738 -0.3136
   50MOL   C12638444   5.244   4.617   4.530 -0.2997  0.6122 -0.4593
   50MOL   C12738445   5.248   4.762   4.581 -0.4076  0.4151 -0.6196
   50MOL   O12838446   5.206   4.850   4.479  0.3364 -0.1805 -0.2390
   50MOL   C12938447   5.297   4.893   4.391 -0.4218  0.8691 -0.2087
   50MOL   O13038448   5.416   4.880   4.401 -0.2061  0.0726 -0.2983
   50MOL   C13138449   5.234   4.962   4.277 -0.4068  0.4127  0.1129
   50MOL   C13238450   5.297   4.960   4.150  0.3683 -0.0925 -0.0244
   50MOL   C13338451   5.232   5.024   4.040 -0.0383 -0.1778  0.2021
   50MOL   C13438452   5.112   5.094   4.053  0.6408  0.6114  0.4678
   50MOL   C13538453   5.057   5.159   3.939  0.3186 -0.1947 -0.2117
   50MOL   O13638454   5.063   5.107   3.830 -0.3422 -0.1451  0.2448
   50MOL   O13738455   5.009   5.283   3.959 -0.4654 -0.1341 -0.4061
   50MOL   C13838456   5.038   5.087   4.172 -0.0616  0.1041  0.0425
   50MOL   C13938457   5.102   5.017   4.281  0.3766 -0.2529  0.0430
   50MOL   H14038458   5.048   4.657   4.436 -0.0232  0.0494 -0.4253
   50MOL   H14138459   5.043   4.598   4.605  1.1530  2.8216  0.5419
   50MOL   H14238460   4.957   4.428   4.436  0.6688 -4.0432  0.3257
   50MOL   H14338461   5.104   4.447   4.359 -0.1099 -2.4739  0.9449
   50MOL   H14438462   5.055   4.350   4.641 -1.6361  0.2527 -0.1989
   50MOL   H14538463   5.217   4.177   4.439 -1.9142 -1.6375 -1.3805
   50MOL   H14638464   5.148   4.132   4.585 -0.3027 -1.5188 -1.0189
   50MOL   H14738465   5.321   4.299   4.652  0.9199 -0.4663 -0.4028
   50MOL   H14838466   5.335   4.375   4.508 -0.9737 -0.0239 -0.7360
   50MOL   H14938467   5.394   4.544   4.662 -0.0739  2.4893 -1.4305
   50MOL   H15038468   5.235   4.537   4.729  1.1347  1.2239  0.2778
   50MOL   H15138469   5.309   4.605   4.443  0.5438 -0.7434  0.3309
   50MOL   H15238470   5.180   4.768   4.666 -0.1129  0.9648 -0.4163
   50MOL   H15338471   5.350   4.785   4.612 -0.6486  0.7621 -0.0555
   50MOL   H15438472   5.384   4.898   4.132  0.0294 -0.2691 -1.0619
   50MOL   H15538473   5.280   5.029   3.943  2.4973 -0.7630  1.3921
   50MOL   H15638474   4.941   5.134   4.176 -0.2385 -0.2096 -0.4087
   50MOL   H15738475   5.050   5.016   4.376  1.3132  0.8270  0.5828
   50MOL   C15838476   5.148   5.790   3.705 -0.3059 -0.0963 -0.6214
   50MOL   C15938477   5.138   5.635   3.681 -0.3285 -0.4117  0.2264
   50MOL   C16038478   5.049   5.572   3.796  0.5092 -0.1395  0.2332
   50MOL   C16138479   5.039   5.420   3.768 -0.5669 -0.4976  0.0243
   50MOL   O16238480   4.943   5.342   3.834 -0.0208 -0.0384  0.1770
   50MOL   C16338481   5.111   5.607   3.935  0.5050 -1.1219 -0.2886
   50MOL   C16438482   5.116   5.755   3.956  0.2733 -0.3744  0.2232
   50MOL   C16538483   5.197   5.830   3.849 -0.3011  0.2235 -0.1885
   50MOL   C16638484   5.180   5.980   3.871  0.6546  0.5818  0.1565
   50MOL   O16738485   5.046   6.019   3.855  0.6711 -0.5941  0.3395
   50MOL   C16838486   4.998   6.118   3.921 -0.4153 -0.5243 -0.0415
   50MOL   O16938487   5.065   6.195   3.988 -0.1293  0.0323 -0.0376
   50MOL   C17038488   4.851   6.125   3.904  0.1410  0.4225  0.4325
   50MOL   C17138489   4.780   6.031   3.821 -0.4314  0.6121 -0.4821
   50MOL   C17238490   4.636   6.040   3.809  0.1718 -0.1491  0.9950
   50MOL   C17338491   4.573   6.147   3.873 -0.5438  0.0487  1.1568
   50MOL   C17438492   4.428   6.160   3.865  0.2110  0.1568  0.0113
   50MOL   O17538493   4.377   6.257   3.808  0.3347 -0.0660  0.2024
   50MOL   O17638494   4.363   6.054   3.915  0.3792  0.2332  0.3746
   50MOL   C17738495   4.642   6.254   3.936  0.3151 -0.2769  0.5021
   50MOL   C17838496   4.782   6.237   3.964 -0.2030  0.5545 -0.1995
   50MOL   H17938497   5.211   5.836   3.629  0.3421  0.5557  0.3019
   50MOL   H18038498   5.043   5.817   3.690 -0.0730  0.5806 -1.0380
   50MOL   H18138499   5.098   5.605   3.584 -0.3685 -0.2499  0.1915
   50MOL   H18238500   5.239   5.593   3.680  0.0475  0.4761 -0.3420
   50MOL   H18338501   4.950   5.617   3.796  0.4362 -0.3084  0.7116
   50MOL   H18438502   5.026   5.412   3.661 -2.5639 -1.6781  0.3231
   50MOL   H18538503   5.136   5.378   3.794  0.4352  0.7138 -1.6797
   50MOL   H18638504   5.055   5.550   4.009  1.8705 -0.4996  1.2756
   50MOL   H18738505   5.215   5.572   3.937  0.9218  0.1090  0.8917
   50MOL   H18838506   5.169   5.783   4.047  0.0641  0.8898 -0.0247
   50MOL   H18938507   5.014   5.792   3.969  0.6669  2.1630 -3.1816
   50MOL   H19038508   5.301   5.798   3.859 -0.5535 -0.3424  0.7005
   50MOL   H19138509   5.228   6.005   3.966 -1.2210 -1.9740  1.8485
   50MOL   H19238510   5.236   6.038   3.798  0.9391  0.2160  0.0815
   50MOL   H19338511   4.832   5.952   3.769  0.6518  0.6226  0.5776
   50MOL   H19438512   4.587   5.979   3.734 -1.3678  2.4412 -0.1643
   50MOL   H19538513   4.596   6.340   3.983 -0.5595 -1.4003  1.7188
   50MOL   H19638514   4.832   6.313   4.023  0.3754  1.6069 -2.0307
   50MOL   C19738515   4.053   5.653   3.917  0.1382 -0.1509  0.1336
   50MOL   C19838516   4.129   5.789   3.911  0.8278  0.0151  0.9283
   50MOL   C19938517   4.093   5.873   3.782  0.0804 -0.3727  0.2212
   50MOL   C20038518   4.187   5.995   3.760  0.4317  0.0401  0.5455
   50MOL   O20138519   4.214   6.061   3.888  0.2594  0.2020 -0.0403
   50MOL   C20238520   4.092   5.785   3.650  0.6948 -0.3565  0.3120
   50MOL   C20338521   4.010   5.653   3.677  0.0825 -0.2000  0.2670
   50MOL   C20438522   4.067   5.574   3.786 -0.4972 -0.5593 -0.2609
   50MOL   C20538523   3.993   5.439   3.783  0.7453  0.6607 -0.1827
   50MOL   O20638524   4.012   5.358   3.902 -0.9072 -0.3347  0.0877
   50MOL   C20738525   4.097   5.250   3.895  0.4039  0.5779 -0.4788
   50MOL   O20838526   4.175   5.223   3.802 -0.0144 -0.6586  0.2895
   50MOL   C20938527   4.080   5.150   4.000 -0.4733 -0.6547  1.0501
   50MOL   C21038528   4.126   5.017   3.983  0.0253 -0.9105 -0.3561
   50MOL   C21138529   4.107   4.923   4.085  0.1606 -0.2221  0.0872
   50MOL   C21238530   4.044   4.961   4.208 -0.3406  0.4161  0.6585
   50MOL   C21338531   4.029   4.854   4.309  0.1195 -0.5663 -0.5160
   50MOL   O21438532   3.959   4.873   4.410 -0.7964 -0.2678 -0.0871
   50MOL   O21538533   4.102   4.746   4.292 -0.2208 -0.1812  0.7397
   50MOL   C21638534   4.006   5.092   4.223 -0.2519  0.3903 -0.0553
   50MOL   C21738535   4.021   5.185   4.122  0.1644  0.0891 -0.2609
   50MOL   H21838536   4.073   5.596   4.008 -0.5510  1.2345  1.1778
   50MOL   H21938537   3.948   5.675   3.938  0.1439  1.1485 -1.1607
   50MOL   H22038538   4.120   5.841   4.006 -1.5971 -1.1752  1.3837
   50MOL   H22138539   4.235   5.762   3.912  0.3947 -1.8191  2.8940
   50MOL   H22238540   3.991   5.907   3.797 -0.0353 -0.4293 -0.4084
   50MOL   H22338541   4.279   5.950   3.723  0.2999 -0.2699  0.5956
   50MOL   H22438542   4.151   6.066   3.686  1.2200 -1.1561 -1.0125
   50MOL   H22538543   4.041   5.836   3.568 -0.9801 -1.7701  0.4376
   50MOL   H22638544   4.193   5.753   3.627  0.8363  0.9019 -0.9347
   50MOL   H22738545   4.025   5.595   3.586  0.6559  0.2664  0.0559
   50MOL   H22838546   3.903   5.670   3.685  0.0425 -0.2660 -0.1142
   50MOL   H22938547   4.173   5.555   3.768 -0.2298  0.7578 -0.0958
   50MOL   H23038548   3.888   5.451   3.758  0.9502  2.4685 -0.1931
   50MOL   H23138549   4.042   5.384   3.702  0.4125  1.6386 -1.0638
   50MOL   H23238550   4.161   4.982   3.887 -2.5558 -0.6479 -1.4276
   50MOL   H23338551   4.136   4.822   4.060 -0.5854 -0.0654 -1.4940
   50MOL   H23438552   3.964   5.133   4.314 -1.3516  1.9999 -1.2559
   50MOL   H23538553   3.990   5.286   4.145 -0.8386 -0.5593  1.3887
   50MOL   C23638554   4.301   4.289   4.542 -0.1909  0.0778 -0.1618
   50MOL   C23738555   4.214   4.416   4.547 -0.2168  0.1788 -0.1709
   50MOL   C23838556   4.293   4.532   4.485  0.1195 -0.2095 -0.0557
   50MOL   C23938557   4.196   4.658   4.490 -0.3834  0.3277 -0.0750
   50MOL   O24038558   4.082   4.647   4.402 -0.2379 -0.1395 -0.0540
   50MOL   C24138559   4.431   4.567   4.554  0.4369  0.0803 -0.7589
   50MOL   C24238560   4.506   4.439   4.589 -0.4758 -0.4544 -0.2657
   50MOL   C24338561   4.425   4.311   4.631 -0.7138  0.1066  0.6886
   50MOL   C24438562   4.512   4.186   4.632  0.2685 -0.4598  0.3166
   50MOL   O24538563   4.621   4.217   4.709 -0.0364  0.7355  0.2904
   50MOL   C24638564   4.733   4.138   4.696 -0.6732  0.5776  0.5785
   50MOL   O24738565   4.752   4.057   4.606 -0.3074 -0.5753  0.0826
   50MOL   C24838566   4.829   4.160   4.805  0.3434  0.2147  1.3043
   50MOL   C24938567   4.955   4.079   4.798  0.9611  0.1897 -0.9261
   50MOL   C25038568   5.068   4.114   4.877  0.7160 -0.4285  0.4805
   50MOL   C25138569   5.050   4.224   4.965  0.2531  0.9755  0.4483
   50MOL   C25238570   5.165   4.272   5.052  0.8540  0.5202  0.0915
   50MOL   O25338571   5.150   4.342   5.155  0.1354 -0.3303 -0.6237
   50MOL   O25438572   5.293   4.244   5.005  0.1396 -0.5553 -0.3066
   50MOL   C25538573   4.928   4.287   4.986 -0.5123 -0.3490  0.0980
   50MOL   C25638574   4.815   4.260   4.901  0.4464  0.4525 -0.3080
   50MOL   H25738575   4.236   4.217   4.593  1.0376 -0.6830  0.3619
   50MOL   H25838576   4.326   4.269   4.438  0.4517  2.9275 -0.5893
   50MOL   H25938577   4.117   4.409   4.498 -0.4506  1.3256  0.1112
   50MOL   H26038578   4.191   4.439   4.651 -2.2806  1.9773 -0.9899
   50MOL   H26138579   4.307   4.503   4.381 -0.8395 -1.0333  0.0344
   50MOL   H26238580   4.170   4.668   4.595 -1.2446 -1.5536 -0.0912
   50MOL   H26338581   4.261   4.744   4.472  0.1948 -0.0300  0.3147
   50MOL   H26438582   4.484   4.640   4.494 -2.0335  2.2028 -0.4295
   50MOL   H26538583   4.419   4.618   4.650  2.2056  2.0466 -1.5461
   50MOL   H26638584   4.566   4.469   4.675 -1.8073  1.8675 -0.1085
   50MOL   H26738585   4.581   4.415   4.513  0.7072  2.5180 -0.1151
   50MOL   H26838586   4.392   4.311   4.735 -1.3378 -1.1350  0.5017
   50MOL   H26938587   4.461   4.097   4.669  4.2981 -3.4598 -0.9921
   50MOL   H27038588   4.546   4.174   4.529  2.5190  2.2235  0.6960
   50MOL   H27138589   4.962   3.994   4.732 -0.6779 -0.6344 -0.0748
   50MOL   H27238590   5.161   4.059   4.871 -0.5772 -2.5185 -1.2697
   50MOL   H27338591   4.907   4.354   5.068  2.1657 -0.2019  0.6970
   50MOL   H27438592   4.725   4.316   4.923  0.5893  1.3721 -1.9045
   50MOL   C27538593   5.776   4.517   5.247  0.3928  0.5550 -0.1624
   50MOL   C27638594   5.633   4.482   5.228  0.3078 -0.0033 -0.3037
   50MOL   C27738595   5.581   4.487   5.077 -0.7915  0.2390  0.4511
   50MOL   C27838596   5.431   4.443   5.054  0.4034  0.0203  0.2777
   50MOL   O27938597   5.410   4.307   5.088  0.1108  0.3643  0.3446
   50MOL   C28038598   5.619   4.629   5.023 -0.3490  0.6570  0.0210
   50MOL   C28138599   5.760   4.662   5.029 -0.4589 -0.2267  0.7041
   50MOL   C28238600   5.806   4.654   5.178  0.0505 -0.1119  0.4535
   50MOL   C28338601   5.956   4.689   5.205 -0.0677 -0.3385 -0.1189
   50MOL   O28438602   6.046   4.583   5.165 -0.6341 -0.0404  0.0655
   50MOL   C28538603   6.109   4.576   5.050 -0.2466 -0.0645  0.1933
   50MOL   O28638604   6.103   4.672   4.973 -0.1966  0.1349 -0.1433
   50MOL   C28738605   6.184   4.444   5.022 -0.0532 -0.7519 -0.8395
   50MOL   C28838606   6.235   4.421   4.893 -0.3792  0.0780  0.3219
   50MOL   C28938607   6.307   4.304   4.861  0.5887 -0.0601  0.9695
   50MOL   C29038608   6.315   4.200   4.961  0.4050  0.0287  0.3235
   50MOL   C29138609   6.393   4.076   4.924  0.0395  0.1899  0.1954
   50MOL   O29238610   6.445   4.048   4.814  0.5977 -0.1084  0.1965
   50MOL   O29338611   6.397   3.987   5.029  0.7904  0.3044 -0.0355
   50MOL   C29438612   6.247   4.221   5.085 -0.0258  0.0740  0.1483
   50MOL   C29538613   6.185   4.338   5.120 -0.0605  0.1381  0.3032
   50MOL   H29638614   5.807   4.512   5.351  1.6483 -0.1703 -0.5610
   50MOL   H29738615   5.842   4.444   5.201  0.4195 -0.1695  1.0049
   50MOL   H29838616   5.636   4.384   5.275 -1.3427  0.1805  0.2349
   50MOL   H29938617   5.568   4.549   5.285 -0.9644  0.4825 -2.2721
   50MOL   H30038618   5.643   4.412   5.028 -1.7562 -1.6254  1.9961
   50MOL   H30138619   5.368   4.511   5.111  1.2929  2.6044 -1.6992
   50MOL   H30238620   5.412   4.441   4.946 -3.2092  1.2683  0.8192
   50MOL   H30338621   5.605   4.635   4.915 -1.7346  1.3407  0.2221
   50MOL   H30438622   5.545   4.700   5.060 -2.5445 -0.7263 -1.5701
   50MOL   H30538623   5.781   4.753   4.972  4.3146 -1.1961  0.6309
   50MOL   H30638624   5.811   4.576   4.985  1.0513 -0.4912  2.8857
   50MOL   H30738625   5.743   4.728   5.228  1.0921  2.2309 -1.5760
   50MOL   H30838626   5.984   4.778   5.149  0.1489  0.4830  1.2763
   50MOL   H30938627   5.982   4.715   5.307 -0.7466  0.6663 -0.1900
   50MOL   H31038628   6.227   4.506   4.827 -1.3765 -0.1666  0.1316
   50MOL   H31138629   6.339   4.286   4.759 -1.6504 -1.3633  0.4449
   50MOL   H31238630   6.242   4.137   5.152  1.1269  1.1930  1.6667
   50MOL   H31338631   6.137   4.351   5.216 -0.5785 -3.4594  0.5710
   50MOL   C31438632   6.659   3.457   4.879 -0.1283  0.6101  0.2445
   50MOL   C31538633   6.546   3.560   4.894 -0.3307 -0.5271  0.0503
   50MOL   C31638634   6.590   3.682   4.965 -0.1592  0.5307 -0.0898
   50MOL   C31738635   6.478   3.780   4.981  0.1017  0.5220  0.5444
   50MOL   O31838636   6.518   3.900   5.029  0.0904 -0.0597  0.1303
   50MOL   C31938637   6.651   3.639   5.096  0.8086  0.2563  0.7845
   50MOL   C32038638   6.770   3.545   5.087 -0.3710  0.0798 -0.3493
   50MOL   C32138639   6.735   3.416   5.004  0.2588 -0.0167  0.3875
   50MOL   C32238640   6.851   3.327   4.959  0.3979  0.2840 -0.1478
   50MOL   O32338641   6.935   3.302   5.060 -0.8725  0.0216  0.0149
   50MOL   C32438642   7.057   3.355   5.066 -1.4533  0.1445 -0.2908
   50MOL   O32538643   7.105   3.426   4.976 -0.1366 -0.0884  0.0327
   50MOL   C32638644   7.141   3.316   5.183 -0.9275 -0.0447 -0.2596
   50MOL   C32738645   7.281   3.319   5.174  0.5084  0.0911  0.1508
   50MOL   C32838646   7.367   3.271   5.274  0.6670  0.7603 -0.8138
   50MOL   C32938647   7.303   3.236   5.398  0.1527  0.2410  0.0408
   50MOL   C33038648   7.387   3.182   5.511 -0.6102  0.0136  0.2003
   50MOL   O33138649   7.349   3.166   5.628 -0.2454  0.1165 -0.0235
   50MOL   O33238650   7.505   3.140   5.475 -0.1869  0.3816  0.2715
   50MOL   C33338651   7.162   3.247   5.417 -0.6691  0.1459  0.0948
   50MOL   C33438652   7.079   3.276   5.302  0.8291  0.4424  0.3731
   50MOL   H33538653   6.609   3.365   4.849  1.8841  0.2317 -2.1311
   50MOL   H33638654   6.729   3.479   4.799 -0.5284 -3.2689 -1.2929
   50MOL   H33738655   6.503   3.583   4.797  0.6723 -0.4089 -0.3711
   50MOL   H33838656   6.470   3.509   4.953  2.3796 -0.1994  4.0625
   50MOL   H33938657   6.677   3.727   4.916  1.6125 -1.3619  1.2226
   50MOL   H34038658   6.431   3.794   4.884  2.7548  2.8827 -0.4704
   50MOL   H34138659   6.410   3.738   5.055  0.6851 -1.7602 -0.1626
   50MOL   H34238660   6.678   3.727   5.155 -0.0423  1.5493 -0.7386
   50MOL   H34338661   6.575   3.589   5.156 -0.5576 -1.9775 -2.6885
   50MOL   H34438662   6.802   3.514   5.186 -2.0729 -1.4539 -0.2499
   50MOL   H34538663   6.854   3.597   5.040 -1.0747  0.8987 -0.7106
   50MOL   H34638664   6.663   3.357   5.059 -1.6776  1.8560 -0.0923
   50MOL   H34738665   6.812   3.237   4.910  1.3391 -1.9598  3.0227
   50MOL   H34838666   6.900   3.381   4.878  1.1371  1.5123  1.0885
   50MOL   H34938667   7.333   3.342   5.082 -0.6838  0.4712 -0.4276
   50MOL   H35038668   7.472   3.268   5.252  0.8538 -3.7342  0.1680
   50MOL   H35138669   7.116   3.217   5.510  0.5140  3.6291  1.8706
   50MOL   H35238670   6.972   3.266   5.313  0.8118 -1.7758 -1.5345
   50MOL   C35338671   7.776   3.152   5.980 -0.0934 -0.4943 -0.0492
   50MOL   C35438672   7.766   3.132   5.832  0.0334 -0.2962  0.0830
   50MOL   C35538673   7.719   3.259   5.759 -0.0389 -0.3617  0.5251
   50MOL   C35638674   7.691   3.228   5.606  0.2911  0.8282 -0.6804
   50MOL   O35738675   7.608   3.116   5.584 -0.0265  0.4315 -0.4496
   50MOL   C35838676   7.594   3.323   5.826  0.2602 -0.2454 -0.1126
   50MOL   C35938677   7.629   3.352   5.970  0.3844 -0.0561 -0.4494
   50MOL   C36038678   7.654   3.222   6.046  0.1175  0.0776  0.2689
   50MOL   C36138679   7.678   3.247   6.196  0.0079 -0.2760 -0.3077
   50MOL   O36238680   7.694   3.125   6.275 -0.5189  0.4215 -0.7208
   50MOL   C36338681   7.754   3.129   6.393  0.5604 -0.3878 -0.6198
   50MOL   O36438682   7.791   3.233   6.450  0.0663  0.2242 -0.4306
   50MOL   C36538683   7.753   2.992   6.454  0.5525  0.0946 -0.4787
   50MOL   C36638684   7.759   2.874   6.376  0.5197 -0.1194 -0.0056
   50MOL   C36738685   7.750   2.754   6.447 -0.2837 -0.4329  0.0815
   50MOL   C36838686   7.740   2.749   6.587  0.2975 -0.1691  0.0728
   50MOL   C36938687   7.748   2.624   6.668 -0.0743  0.0896  0.3936
   50MOL   O37038688   7.829   2.622   6.760  0.0970 -0.7473  0.3332
   50MOL   O37138689   7.676   2.516   6.626  0.2553 -0.4269  0.2826
   50MOL   C37238690   7.741   2.871   6.667 -0.1446  0.2522  0.2649
   50MOL   C37338691   7.746   2.990   6.595  0.4505 -0.2196 -0.1509
   50MOL   H37438692   7.800   3.055   6.025  0.2010 -1.4484 -2.1957
   50MOL   H37538693   7.867   3.208   6.001  0.9706 -1.7998 -1.0572
   50MOL   H37638694   7.860   3.100   5.789  0.6441  0.3585  0.9201
   50MOL   H37738695   7.700   3.049   5.806  0.8149 -1.1236  0.7074
   50MOL   H37838696   7.800   3.330   5.767 -1.3712  1.3494 -0.7804
   50MOL   H37938697   7.627   3.308   5.568  0.5704  0.0802 -2.8052
   50MOL   H38038698   7.779   3.212   5.544 -0.4112 -0.6794 -1.3215
   50MOL   H38138699   7.573   3.416   5.772  2.9153 -0.6427 -1.8920
   50MOL   H38238700   7.507   3.257   5.825 -2.4663  3.1905 -2.0236
   50MOL   H38338701   7.541   3.403   6.012  0.1170 -0.2601 -0.7622
   50MOL   H38438702   7.705   3.430   5.971  1.1047 -0.7652  0.5115
   50MOL   H38538703   7.572   3.151   6.037  0.2430 -0.1289  0.7293
   50MOL   H38638704   7.767   3.307   6.214 -0.2626 -0.0997  0.4470
   50MOL   H38738705   7.596   3.303   6.241 -0.6619 -0.9285 -0.6961
   50MOL   H38838706   7.763   2.881   6.268 -1.4564  2.4678  0.0492
   50MOL   H38938707   7.765   2.669   6.382 -1.6384  0.6401 -1.6890
   50MOL   H39038708   7.736   2.870   6.775  0.9041  1.9024  0.3457
   50MOL   H39138709   7.736   3.087   6.642  0.9607  0.1144 -0.7105
   50MOL   C39238710   7.225   2.713   6.302 -0.1333 -0.0081  0.7636
   50MOL   C39338711   7.334   2.684   6.412 -0.4632 -0.4274 -0.4146
   50MOL   C39438712   7.345   2.539   6.455  0.1374  0.1542  0.5990
   50MOL   C39538713   7.439   2.521   6.580 -0.1319 -1.0873 -0.4679
   50MOL   O39638714   7.572   2.543   6.525  0.4900  0.4126  0.3360
   50MOL   C39738715   7.204   2.484   6.493  0.2138 -0.3335 -0.0277
   50MOL   C39838716   7.094   2.507   6.382 -0.9580 -0.4063 -0.1291
   50MOL   C39938717   7.088   2.658   6.345  0.3088  0.3272 -0.0528
   50MOL   C40038718   6.976   2.677   6.231 -0.1771 -0.8894 -0.0698
   50MOL   O40138719   6.934   2.813   6.208 -0.3144  0.5358  0.2916
   50MOL   C40238720   6.818   2.856   6.245 -0.2434 -0.5122  0.2100
   50MOL   O40338721   6.732   2.790   6.296 -0.1591  0.1698 -0.2002
   50MOL   C40438722   6.798   3.002   6.200  0.4251 -0.0835 -0.1164
   50MOL   C40538723   6.700   3.082   6.265 -0.3674 -0.0445  0.3214
   50MOL   C40638724   6.680   3.216   6.225 -0.0838  0.1141  0.1630
   50MOL   C40738725   6.752   3.270   6.116  0.1667 -0.2954  0.2264
   50MOL   C40838726   6.719   3.410   6.068  0.2527 -0.8116  0.3793
   50MOL   O40938727   6.679   3.505   6.140 -0.4587 -0.6943 -0.4645
   50MOL   O41038728   6.722   3.406   5.935 -0.3102  0.4938  0.7841
   50MOL   C41138729   6.847   3.184   6.044 -0.4323 -0.1162 -0.0651
   50MOL   C41238730   6.878   3.057   6.097  0.3021 -0.0038 -0.3039
   50MOL   H41338731   7.208   2.818   6.276 -0.8338 -0.3459 -0.1845
   50MOL   H41438732   7.243   2.663   6.207 -1.8987  1.4401 -0.3758
   50MOL   H41538733   7.437   2.707   6.386 -0.2547  2.4187  2.5992
   50MOL   H41638734   7.301   2.744   6.496  1.6534 -0.6027  0.5654
   50MOL   H41738735   7.389   2.473   6.380  0.8462 -1.3046  2.2280
   50MOL   H41838736   7.422   2.584   6.667 -1.0756 -1.1285 -0.6225
   50MOL   H41938737   7.441   2.417   6.614  1.6483 -0.1430  2.5005
   50MOL   H42038738   7.224   2.378   6.512  2.5452  0.6484  3.4239
   50MOL   H42138739   7.154   2.520   6.583  0.3799 -2.2455  0.8590
   50MOL   H42238740   6.996   2.489   6.428 -0.4527 -1.4067  0.5631
   50MOL   H42338741   7.114   2.443   6.297 -1.3206  0.1309 -0.6231
   50MOL   H42438742   7.043   2.702   6.434  2.0630 -0.3438  1.1928
   50MOL   H42538743   7.011   2.629   6.139  1.7409  1.9222 -0.8600
   50MOL   H42638744   6.887   2.621   6.262  0.2216 -0.6242  1.6037
   50MOL   H42738745   6.643   3.042   6.347 -0.9985  0.0806 -0.0533
   50MOL   H42838746   6.602   3.266   6.281 -1.5114 -0.9197 -0.8705
   50MOL   H42938747   6.904   3.226   5.963  1.6218 -0.6247  1.0778
   50MOL   H43038748   6.952   2.999   6.045  0.4456 -0.9981  0.9798
   50MOL   C43138749   6.672   3.956   5.974 -0.2463  0.6621  0.3569
   50MOL   C43238750   6.651   3.805   5.975  0.2932  0.0905  0.1991
   50MOL   C43338751   6.606   3.747   5.848  0.2076  0.4907 -0.1372
   50MOL   C43438752   6.588   3.592   5.856 -0.1700 -0.7495 -0.2565
   50MOL   O43538753   6.721   3.538   5.863  0.0945  0.2040 -0.7240
   50MOL   C43638754   6.470   3.819   5.802  0.7343  0.1715  0.3188
   50MOL   C43738755   6.494   3.971   5.788 -0.6108  0.1277  0.4582
   50MOL   C43838756   6.552   4.035   5.921  0.5057  0.6377  0.5393
   50MOL   C43938757   6.596   4.182   5.909 -0.6426 -0.0567  0.1174
   50MOL   O44038758   6.624   4.232   6.039 -0.2288 -0.0693  0.5865
   50MOL   C44138759   6.665   4.363   6.041  0.1259 -0.3823 -1.5327
   50MOL   O44238760   6.674   4.440   5.948 -0.0278 -0.8105 -0.4229
   50MOL   C44338761   6.686   4.409   6.183 -0.4241 -0.2540  0.4309
   50MOL   C44438762   6.727   4.545   6.216  0.2449 -0.2805  0.3221
   50MOL   C44538763   6.747   4.594   6.346  0.3481  0.7809  0.3880
   50MOL   C44638764   6.734   4.502   6.454 -0.4014 -0.1383 -0.0639
   50MOL   C44738765   6.781   4.546   6.593  0.4103 -0.2390 -0.5441
   50MOL   O44838766   6.784   4.662   6.621  0.2527  0.4342 -0.6305
   50MOL   O44938767   6.810   4.446   6.688 -0.1723 -0.2042 -0.2241
   50MOL   C45038768   6.711   4.367   6.422 -0.9963  0.3931 -0.3398
   50MOL   C45138769   6.674   4.320   6.294 -0.1092 -0.0614  0.1007
   50MOL   H45238770   6.708   3.997   6.069 -0.0715 -2.1386  1.5276
   50MOL   H45338771   6.749   3.963   5.897 -0.0637 -1.5999  0.2976
   50MOL   H45438772   6.751   3.765   5.991 -1.0086 -3.2598  0.3939
   50MOL   H45538773   6.581   3.776   6.054 -0.4022  0.2544 -0.3469
   50MOL   H45638774   6.682   3.762   5.772 -1.3125 -2.0004 -2.2473
   50MOL   H45738775   6.528   3.567   5.944  1.6678  0.7974  1.4945
   50MOL   H45838776   6.538   3.553   5.768 -0.9400 -0.4430  0.0357
   50MOL   H45938777   6.444   3.777   5.705 -1.1175 -4.1422  2.5381
   50MOL   H46038778   6.387   3.791   5.866  0.4438 -2.5216 -1.1355
   50MOL   H46138779   6.400   4.024   5.768  0.4326  1.9542  0.3317
   50MOL   H46238780   6.565   3.988   5.708  1.2111 -1.3368  1.7219
   50MOL   H46338781   6.474   4.032   5.997 -1.3940 -1.2659 -1.4001
   50MOL   H46438782   6.692   4.184   5.857  0.0237  3.4116  1.3418
   50MOL   H46538783   6.523   4.245   5.857 -0.8668 -0.0008  0.4970
   50MOL   H46638784   6.737   4.609   6.130  1.4660  0.8980  1.3371
   50MOL   H46738785   6.761   4.700   6.361 -0.9236  1.1937 -1.1881
   50MOL   H46838786   6.721   4.293   6.499  1.1269  0.0454 -0.9286
   50MOL   H46938787   6.655   4.215   6.275 -0.0549 -0.2656  1.1604
   50MOL   C47038788   6.489   4.480   7.212 -0.4724 -0.6558 -0.2841
   50MOL   C47138789   6.532   4.424   7.071 -0.1560  0.7265  0.0491
   50MOL   C47238790   6.665   4.482   7.015  0.3396 -0.4954 -0.4857
   50MOL   C47338791   6.674   4.452   6.869 -0.3122 -1.0932  0.2172
   50MOL   O47438792   6.805   4.491   6.830  0.2919  0.2834 -0.1552
   50MOL   C47538793   6.676   4.637   7.041  0.2045 -0.1082 -0.4135
   50MOL   C47638794   6.632   4.668   7.185  0.2667 -0.4415  0.5182
   50MOL   C47738795   6.492   4.634   7.216 -0.3990  0.1429  0.4468
   50MOL   C47838796   6.444   4.697   7.348  0.3362  0.2938 -0.0050
   50MOL   O47938797   6.511   4.639   7.454 -0.2380  0.1789 -0.1668
   50MOL   C48038798   6.467   4.646   7.575  0.4539  0.6606  0.5313
   50MOL   O48138799   6.369   4.717   7.606  0.1015 -0.4839  0.6152
   50MOL   C48238800   6.536   4.571   7.674 -0.2298 -0.2456  0.3071
   50MOL   C48338801   6.668   4.519   7.650  1.0452  0.4370  0.2396
   50MOL   C48438802   6.738   4.451   7.751  0.6344  0.6152 -0.7782
   50MOL   C48538803   6.673   4.427   7.880  0.2886  0.1537 -0.2390
   50MOL   C48638804   6.751   4.346   7.989 -0.2407 -0.5025  0.5600
   50MOL   O48738805   6.857   4.282   7.962  0.2283  0.9748  0.0178
   50MOL   O48838806   6.690   4.342   0.080  0.2923  0.1412  0.3279
   50MOL   C48938807   6.543   4.481   7.901 -0.0537  0.1257  0.1954
   50MOL   C49038808   6.474   4.553   7.797  0.4425 -0.1967 -0.4675
   50MOL   H49138809   6.386   4.448   7.228 -0.5723 -0.1279  0.1362
   50MOL   H49238810   6.553   4.432   7.285 -1.4457 -0.9522  0.3806
   50MOL   H49338811   6.542   4.316   7.070 -0.5168  0.6970 -0.6087
   50MOL   H49438812   6.453   4.445   7.000  0.9683  0.4076 -1.3286
   50MOL   H49538813   6.744   4.424   7.062 -0.7597 -0.1975  1.8340
   50MOL   H49638814   6.659   4.347   6.843 -1.2795 -0.7931 -0.4483
   50MOL   H49738815   6.603   4.509   6.809  1.7638  0.2534 -1.0324
   50MOL   H49838816   6.781   4.659   7.021  0.4198 -0.6370  0.1189
   50MOL   H49938817   6.624   4.690   6.962 -2.3810 -1.6544  0.1633
   50MOL   H50038818   6.646   4.775   7.203  1.4862 -0.6866  1.0578
   50MOL   H50138819   6.705   4.610   7.242 -1.7450 -3.2685  0.3363
   50MOL   H50238820   6.428   4.667   7.133  0.8829  0.6235 -0.3603
   50MOL   H50338821   6.468   4.804   7.343  0.8018  0.2164  0.4954
   50MOL   H50438822   6.337   4.680   7.359  0.6228 -0.9547  0.9161
   50MOL   H50538823   6.713   4.540   7.554 -0.8501  0.0376 -0.7681
   50MOL   H50638824   6.839   4.420   7.729  1.2486  0.2036  2.3598
   50MOL   H50738825   6.498   4.470   7.998 -0.7602  1.4742  0.0257
   50MOL   H50838826   6.377   4.596   7.818  1.1296  1.4287 -0.5232
   50MOL   C50938827   6.928   3.957   0.480  0.0486  0.1625  0.2469
   50MOL   C51038828   6.848   4.053   0.382 -0.1259  0.3025  0.1431
   50MOL   C51138829   6.923   4.178   0.328  0.4521  0.4112 -0.0882
   50MOL   C51238830   6.837   4.285   0.261 -0.2352  0.2882  0.5843
   50MOL   O51338831   6.740   4.230   0.168  0.5657 -0.0470  0.0426
   50MOL   C51438832   6.999   4.244   0.439  0.0397 -0.3666 -0.3253
   50MOL   C51538833   7.086   4.146   0.516  0.2492 -0.5989  0.0393
   50MOL   C51638834   7.013   4.038   0.588 -0.1773 -0.1395  0.0440
   50MOL   C51738835   7.111   3.947   0.674 -0.0991  1.0520  0.1791
   50MOL   O51838836   7.033   3.841   0.736 -0.6051  0.1987 -0.1940
   50MOL   C51938837   6.953   3.870   0.845 -0.6122 -0.3085 -0.7302
   50MOL   O52038838   6.952   3.973   0.906  0.6419 -0.3301 -0.4396
   50MOL   C52138839   6.863   3.751   0.868 -0.3721  0.3792  0.7132
   50MOL   C52238840   6.813   3.666   0.762 -0.1272  0.3439 -0.6373
   50MOL   C52338841   6.712   3.567   0.784 -0.0624  0.2909  0.5107
   50MOL   C52438842   6.663   3.549   0.919  0.3260 -0.9455 -0.5497
   50MOL   C52538843   6.549   3.450   0.955 -0.6669  0.2545  0.2594
   50MOL   O52638844   6.479   3.390   0.874 -0.2157 -0.0053  0.3181
   50MOL   O52738845   6.538   3.438   1.087 -0.2800 -0.0636 -0.2591
   50MOL   C52838846   6.711   3.635   1.021  0.5025  0.3527 -0.4094
   50MOL   C52938847   6.805   3.736   0.994  0.6966 -0.0372  0.0129
   50MOL   H53038848   6.852   3.889   0.520  1.5815 -2.1389 -0.6605
   50MOL   H53138849   6.991   3.899   0.413 -1.5571 -3.5123  1.7412
   50MOL   H53238850   6.794   3.995   0.308  1.0870 -1.3183  0.4973
   50MOL   H53338851   6.772   4.094   0.448 -2.0133 -0.3274 -1.5880
   50MOL   H53438852   7.005   4.148   0.262  0.1428 -0.3101 -0.1510
   50MOL   H53538853   6.782   4.347   0.332 -0.3593  1.4808 -0.5364
   50MOL   H53638854   6.897   4.358   0.207 -0.3081  0.8003  1.1873
   50MOL   H53738855   7.048   4.338   0.412 -0.1622 -0.6722 -1.7950
   50MOL   H53838856   6.927   4.271   0.517  1.4933  2.6421  0.0226
   50MOL   H53938857   7.145   4.204   0.587 -0.3396  0.3945 -0.2877
   50MOL   H54038858   7.160   4.100   0.450  1.4947  0.7123  0.4939
   50MOL   H54138859   6.943   4.082   0.659 -0.8179  2.0670 -1.9286
   50MOL   H54238860   7.186   3.903   0.608 -2.1035 -2.1480 -0.1212
   50MOL   H54338861   7.170   4.007   0.743  1.2808 -0.2403  0.1479
   50MOL   H54438862   6.863   3.687   0.668 -0.6721 -0.8889 -1.2159
   50MOL   H54538863   6.665   3.510   0.705 -0.0403  0.9459  0.0202
   50MOL   H54638864   6.672   3.625   1.121 -1.3757 -1.7057 -1.2960
   50MOL   H54738865   6.845   3.799   1.072  3.0841 -1.0018 -0.4061
   50MOL   C54838866   6.558   2.976   0.900  0.4939 -0.1713 -0.4608
   50MOL   C54938867   6.485   3.074   0.998 -0.3589 -0.1045  0.2807
   50MOL   C55038868   6.575   3.142   1.099 -0.3813  0.0430 -0.2746
   50MOL   C55138869   6.486   3.236   1.193  0.2089  0.0977 -0.2670
   50MOL   O55238870   6.427   3.342   1.126 -0.7264 -0.1883 -0.3149
   50MOL   C55338871   6.655   3.035   1.176  0.1455  0.4789  0.2904
   50MOL   C55438872   6.729   2.946   1.080 -0.1403  0.2799  0.6704
   50MOL   C55538873   6.640   2.879   0.982  0.4043 -0.1606  0.8847
   50MOL   C55638874   6.704   2.767   0.902 -0.0977  0.7921  0.3912
   50MOL   O55738875   6.734   2.666   0.989 -0.1374  0.1928  0.0414
   50MOL   C55838876   6.817   2.571   0.958 -0.9631  0.7558 -0.6369
   50MOL   O55938877   6.877   2.570   0.848  0.0508 -0.5048 -0.5719
   50MOL   C56038878   6.853   2.482   1.072 -0.4687 -0.4306 -0.0987
   50MOL   C56138879   6.918   2.356   1.047  0.4335 -0.5117  0.2465
   50MOL   C56238880   6.991   2.299   1.153 -0.0996  0.7595  0.5721
   50MOL   C56338881   6.975   2.340   1.285  0.3822 -0.6763  1.0337
   50MOL   C56438882   7.030   2.261   1.395 -0.6497 -0.0526  0.8508
   50MOL   O56538883   7.102   2.166   1.373 -0.5444 -0.0813 -0.1435
   50MOL   O56638884   7.014   2.305   1.528  0.5524 -0.2507  0.4149
   50MOL   C56738885   6.895   2.453   1.314 -0.7518  0.3619 -0.3571
   50MOL   C56838886   6.839   2.526   1.203  0.1016 -0.5777  0.0755
   50MOL   H56938887   6.476   2.920   0.855 -1.9685  2.9470  0.0316
   50MOL   H57038888   6.611   3.027   0.820 -1.3355  0.0144 -1.5744
   50MOL   H57138889   6.435   3.160   0.952  1.4394  2.4942  2.9451
   50MOL   H57238890   6.406   3.016   1.045 -0.6368 -1.3973 -1.7563
   50MOL   H57338891   6.648   3.201   1.045  2.0781 -2.1981  0.4819
   50MOL   H57438892   6.403   3.175   1.227  0.5692 -0.3217 -0.1351
   50MOL   H57538893   6.534   3.259   1.288 -1.5949  0.8647  0.4697
   50MOL   H57638894   6.724   3.082   1.246  0.1797  2.4406 -1.0097
   50MOL   H57738895   6.599   2.963   1.236 -1.3457  2.4035  1.2499
   50MOL   H57838896   6.785   2.871   1.136 -0.1394 -2.8545 -3.2816
   50MOL   H57938897   6.800   3.021   1.044 -0.6221  0.0644 -0.7747
   50MOL   H58038898   6.562   2.835   1.044 -1.6983 -0.6034 -1.9652
   50MOL   H58138899   6.623   2.721   0.846 -0.6438 -0.2105  1.9840
   50MOL   H58238900   6.791   2.812   0.853 -0.8727  2.2550  0.3605
   50MOL   H58338901   6.926   2.317   0.947 -2.3667 -2.0393  0.5657
   50MOL   H58438902   7.042   2.205   1.140 -1.8157 -0.1408  0.2377
   50MOL   H58538903   6.870   2.490   1.412 -0.7057  2.0518 -0.9634
   50MOL   H58638904   6.814   2.630   1.218 -0.9802 -0.3587 -2.9389
   50MOL   C58738905   7.258   1.925   1.878 -0.5274  0.0810 -0.2116
   50MOL   C58838906   7.192   1.981   1.756 -0.2887  0.4108 -0.6547
   50MOL   C58938907   7.055   2.043   1.792 -0.4625 -0.4326 -0.3003
   50MOL   C59038908   6.999   2.116   1.669  0.1476  1.0662  0.3797
   50MOL   O59138909   7.088   2.217   1.624 -0.0933  0.1366 -0.4215
   50MOL   C59238910   6.973   1.922   1.854 -0.6667 -0.7939 -0.2552
   50MOL   C59338911   7.032   1.859   1.981  0.3054 -0.3516 -0.0640
   50MOL   C59438912   7.178   1.811   1.951  0.2193 -0.2614  0.4049
   50MOL   C59538913   7.255   1.740   2.075  0.4414 -0.1137 -0.1160
   50MOL   O59638914   7.194   1.615   2.120  0.2197 -0.0776 -0.1609
   50MOL   C59738915   7.139   1.595   2.237 -0.3856  0.2162 -1.0087
   50MOL   O59838916   7.131   1.687   2.321 -0.8887  0.1286  0.1326
   50MOL   C59938917   7.077   1.465   2.257  0.3232  0.2601 -0.0390
   50MOL   C60038918   7.050   1.420   2.389  0.1849  0.6825  0.5138
   50MOL   C60138919   6.988   1.290   2.408 -0.1302 -0.1129  0.0665
   50MOL   C60238920   6.965   1.208   2.295 -0.2769  0.0458  0.0408
   50MOL   C60338921   6.906   1.073   2.311 -0.2944  0.4626  0.4331
   50MOL   O60438922   6.879   1.028   2.422 -0.0818 -0.4261  0.0657
   50MOL   O60538923   6.882   1.004   2.191 -0.2626 -0.6037  0.1951
   50MOL   C60638924   6.996   1.252   2.164 -0.3467  0.2081 -0.0773
   50MOL   C60738925   7.045   1.382   2.142 -0.5081 -0.0774 -0.6116
   50MOL   H60838926   7.352   1.881   1.846 -0.0383  1.6670 -1.0579
   50MOL   H60938927   7.294   2.001   1.948  2.9816 -0.5193 -1.2398
   50MOL   H61038928   7.258   2.061   1.723  0.7868  0.4034  1.3583
   50MOL   H61138929   7.186   1.899   1.685  0.0550 -0.5360  0.3929
   50MOL   H61238930   7.069   2.125   1.863 -0.5699 -0.3143 -0.4131
   50MOL   H61338931   6.990   2.041   1.591 -1.5144  2.6876 -1.0155
   50MOL   H61438932   6.902   2.154   1.702  0.2878  1.6658  0.0982
   50MOL   H61538933   6.876   1.969   1.868  0.3579  1.5097 -0.5577
   50MOL   H61638934   6.983   1.849   1.774  1.0905 -0.0108 -0.7789
   50MOL   H61738935   6.969   1.784   2.028  0.1967 -0.3364 -0.1845
   50MOL   H61838936   7.044   1.946   2.045 -2.6598  1.0639 -1.3260
   50MOL   H61938937   7.159   1.720   1.894 -0.8071  1.4828 -2.1172
   50MOL   H62038938   7.362   1.731   2.054  0.4348 -0.4072 -0.0376
   50MOL   H62138939   7.254   1.803   2.164  0.5530 -0.9367  0.4799
   50MOL   H62238940   7.077   1.492   2.464 -2.7116  1.9938  0.3793
   50MOL   H62338941   6.960   1.252   2.506  1.9441  0.5675  0.9638
   50MOL   H62438942   6.980   1.195   2.074 -0.2653  0.8358 -0.4922
   50MOL   H62538943   7.067   1.424   2.045  0.3242  2.5475  0.6447
   50MOL   C62638944   6.830   0.698   1.814  0.5978 -0.4416 -1.5749
   50MOL   C62738945   6.773   0.713   1.962  0.0473 -0.3628 -0.2047
   50MOL   C62838946   6.893   0.726   2.053  0.1506  0.0504 -0.3552
   50MOL   C62938947   6.839   0.755   2.200 -0.3888  0.1037  0.1947
   50MOL   O63038948   6.780   0.883   2.212  0.4896  0.3189 -0.5977
   50MOL   C63138949   6.989   0.602   2.040  0.7523  0.1406 -0.1472
   50MOL   C63238950   7.035   0.578   1.892  0.4831  0.2973  0.3967
   50MOL   C63338951   6.919   0.572   1.801  0.4276  0.0358 -0.4776
   50MOL   C63438952   6.979   0.554   1.658 -0.2333  0.0846  0.5026
   50MOL   O63538953   7.040   0.676   1.620  0.0550  0.0003 -0.2330
   50MOL   C63638954   7.106   0.697   1.507  0.6743 -0.6949  0.2678
   50MOL   O63738955   7.099   0.613   1.415  0.6902 -0.4408 -0.6151
   50MOL   C63838956   7.183   0.820   1.502 -0.5634 -0.1383  1.0292
   50MOL   C63938957   7.173   0.925   1.598 -0.0342  0.0982  1.1784
   50MOL   C64038958   7.246   1.041   1.582 -0.5728 -0.3144  0.4158
   50MOL   C64138959   7.323   1.065   1.459  0.3184 -0.3633 -0.1118
   50MOL   C64238960   7.379   1.203   1.421 -0.3841  0.4773  0.0672
   50MOL   O64338961   7.355   1.306   1.491 -0.2559  0.4255 -0.4823
   50MOL   O64438962   7.432   1.212   1.299 -0.1238 -0.2977  1.1818
   50MOL   C64538963   7.346   0.955   1.380  0.1668  0.0476  0.1001
   50MOL   C64638964   7.283   0.831   1.401 -0.2187  0.3293  0.0833
   50MOL   H64738965   6.744   0.695   1.746 -1.1094 -0.4591  0.5086
   50MOL   H64838966   6.885   0.789   1.793 -1.6603  1.4939  0.5191
   50MOL   H64938967   6.724   0.810   1.952  2.2115  0.6919 -1.0438
   50MOL   H65038968   6.710   0.630   1.993  0.9054 -0.0653  2.4540
   50MOL   H65138969   6.952   0.814   2.029 -0.1645  0.9104  1.9050
   50MOL   H65238970   6.769   0.674   2.221  0.1397 -1.3409 -3.1997
   50MOL   H65338971   6.915   0.744   2.278 -0.2831  0.7522  0.1888
   50MOL   H65438972   7.073   0.616   2.109  0.2570 -0.1185  0.5149
   50MOL   H65538973   6.935   0.517   2.081 -1.4227  1.2784 -0.5874
   50MOL   H65638974   7.080   0.479   1.894 -0.3680 -0.1252 -0.8077
   50MOL   H65738975   7.111   0.649   1.861 -0.7283  1.0470 -0.8876
   50MOL   H65838976   6.852   0.490   1.829 -0.0352  0.8947  1.0167
   50MOL   H65938977   7.043   0.466   1.659 -3.1392 -2.1443 -0.7292
   50MOL   H66038978   6.904   0.539   1.580 -0.5287  0.5301  0.6968
   50MOL   H66138979   7.095   0.917   1.672 -2.1375 -0.0654 -0.9694
   50MOL   H66238980   7.229   1.128   1.645 -1.3888  0.1385 -0.4151
   50MOL   H66338981   7.414   0.968   1.296 -0.9148  0.2178 -0.7624
   50MOL   H66438982   7.305   0.751   1.332 -0.2439 -0.9557  1.5210
   50MOL   C66538983   7.379   1.768   1.309  0.3721 -1.1458  0.0150
   50MOL   C66638984   7.398   1.619   1.338  0.9413 -0.2891  0.2853
   50MOL   C66738985   7.521   1.571   1.259 -0.5211 -0.2901  0.0084
   50MOL   C66838986   7.552   1.425   1.280  0.3730 -0.4479 -0.3986
   50MOL   O66938987   7.430   1.355   1.242  0.8367 -0.3691 -0.2289
   50MOL   C67038988   7.515   1.593   1.112 -0.0568 -0.0377  0.2694
   50MOL   C67138989   7.476   1.738   1.082  0.6404  0.0740 -0.3196
   50MOL   C67238990   7.359   1.796   1.159 -0.0538  0.6844 -0.1418
   50MOL   C67338991   7.374   1.948   1.147  0.3748  0.3141  0.2384
   50MOL   O67438992   7.341   1.997   1.016  0.2013 -1.0451 -0.6808
   50MOL   C67538993   7.296   2.126   1.001 -0.2845 -0.6504  0.0326
   50MOL   O67638994   7.286   2.209   1.094  0.0097  0.6977 -0.0497
   50MOL   C67738995   7.261   2.160   0.863 -0.2522 -0.1511 -0.4399
   50MOL   C67838996   7.198   2.287   0.836 -0.0088 -0.2052  0.3764
   50MOL   C67938997   7.160   2.319   0.706 -0.3181 -0.8593  0.2292
   50MOL   C68038998   7.187   2.237   0.599 -0.5302  0.1192 -0.8075
   50MOL   C68138999   7.141   2.278   0.464 -0.3270  0.2219  0.5218
   50MOL   O68239000   7.171   2.224   0.361 -0.2627  0.0392  0.1412
   50MOL   O68339001   7.049   2.380   0.470  0.2150  0.6004  0.4312
   50MOL   C68439002   7.256   2.114   0.625  0.3118 -0.7662 -1.0875
   50MOL   C68539003   7.294   2.079   0.757  0.1333  0.3060 -0.3886
   50MOL   H68639004   7.301   1.807   1.374 -0.3727 -0.7664 -1.0935
   50MOL   H68739005   7.470   1.819   1.341 -1.3365  1.5711  0.7125
   50MOL   H68839006   7.408   1.588   1.442  0.0936  1.2977  0.8562
   50MOL   H68939007   7.312   1.567   1.295  1.4400 -0.2911 -0.7388
   50MOL   H69039008   7.601   1.633   1.298 -2.6698  1.2520  2.0963
   50MOL   H69139009   7.627   1.382   1.214  0.4121  0.1344 -0.7450
   50MOL   H69239010   7.581   1.394   1.380 -3.7343 -1.1059  0.6682
   50MOL   H69339011   7.612   1.575   1.066  0.7824  0.0666  1.9486
   50MOL   H69439012   7.451   1.526   1.054 -0.7441  0.0156  0.9520
   50MOL   H69539013   7.463   1.754   0.975  1.8853 -1.6164 -0.7503
   50MOL   H69639014   7.564   1.800   1.100  0.8301 -0.7453  1.6303
   50MOL   H69739015   7.262   1.763   1.124  0.4916 -2.7659  1.3684
   50MOL   H69839016   7.314   1.998   1.224  1.1496 -0.0181  1.0723
   50MOL   H69939017   7.472   1.991   1.167  0.1528  0.3780  1.2601
   50MOL   H70039018   7.163   2.360   0.908  3.2352  1.0349  0.7475
   50MOL   H70139019   7.106   2.411   0.690  2.2887  0.6076 -0.4664
   50MOL   H70239020   7.274   2.048   0.541  2.9639  1.0232 -1.9861
   50MOL   H70339021   7.348   1.987   0.778 -0.7032 -0.2223 -0.5173
   50MOL   C70439022   7.114   2.852   0.448  0.7622 -0.1002  0.3877
   50MOL   C70539023   7.135   2.711   0.391  0.2971  0.4486 -0.0601
   50MOL   C70639024   7.009   2.653   0.340 -0.3885 -0.4988 -0.1577
   50MOL   C70739025   7.044   2.518   0.276 -0.3455 -0.2398  0.0715
   50MOL   O70839026   6.982   2.413   0.340 -0.4936 -0.1019  0.1393
   50MOL   C70939027   6.908   2.650   0.454 -0.4773 -0.1155  0.3295
   50MOL   C71039028   6.883   2.793   0.520  0.3509 -0.1155 -0.5329
   50MOL   C71139029   7.021   2.843   0.569  0.3083  0.2984 -0.4960
   50MOL   C71239030   7.018   2.977   0.648  0.5562  0.3707  0.0024
   50MOL   O71339031   6.979   3.095   0.575 -1.1239 -0.2846  0.3673
   50MOL   C71439032   6.855   3.136   0.578 -0.3390 -0.5103  0.2958
   50MOL   O71539033   6.768   3.088   0.649 -0.2197 -0.1200 -0.1477
   50MOL   C71639034   6.830   3.252   0.489 -0.0002 -0.7131  0.0321
   50MOL   C71739035   6.942   3.297   0.411 -0.0523 -0.6836  0.5656
   50MOL   C71839036   6.922   3.406   0.325 -0.1622 -0.0715  0.0742
   50MOL   C71939037   6.801   3.480   0.324  1.2287 -0.5611  0.3936
   50MOL   C72039038   6.798   3.610   0.246  0.1721 -0.1818  0.9541
   50MOL   O72139039   6.881   3.628   0.154  0.1081  0.4462  0.2328
   50MOL   O72239040   6.688   3.684   0.271 -0.1943  0.2851  0.0103
   50MOL   C72339041   6.691   3.440   0.411 -0.1214 -0.0217  0.6211
   50MOL   C72439042   6.710   3.326   0.496  0.3559  0.6961 -1.0291
   50MOL   H72539043   7.203   2.903   0.484  0.3941  1.1363 -0.4217
   50MOL   H72639044   7.079   2.922   0.372  1.1598  1.7358  1.8631
   50MOL   H72739045   7.207   2.723   0.310  0.9148 -1.1589  0.2256
   50MOL   H72839046   7.179   2.647   0.468  1.9962  1.2468 -0.3521
   50MOL   H72939047   6.972   2.705   0.251 -1.8831  0.2294  0.8837
   50MOL   H73039048   7.004   2.515   0.175  0.8386 -1.1618 -0.3856
   50MOL   H73139049   7.150   2.495   0.260 -0.8275 -2.5687 -0.0183
   50MOL   H73239050   6.820   2.599   0.415 -0.7126  1.3863 -1.1927
   50MOL   H73339051   6.944   2.593   0.540  1.3198 -0.2080 -0.4522
   50MOL   H73439052   6.814   2.774   0.602  0.3958 -1.4707 -0.8072
   50MOL   H73539053   6.844   2.857   0.441  1.8673  1.5509  0.0190
   50MOL   H73639054   7.060   2.761   0.629  0.2589 -0.3318 -1.3171
   50MOL   H73739055   6.964   2.960   0.742 -0.5400  0.7015 -0.5597
   50MOL   H73839056   7.116   3.012   0.679  0.6035  0.3956 -0.1798
   50MOL   H73939057   7.037   3.247   0.424 -0.8275 -1.9096  1.6915
   50MOL   H74039058   7.003   3.442   0.262  1.2637 -1.1623  1.2502
   50MOL   H74139059   6.608   3.507   0.430 -0.7115 -1.5883  3.8207
   50MOL   H74239060   6.633   3.297   0.567  0.5047  1.0007 -0.7384
   50MOL   C74339061   6.512   3.900   7.748 -0.3725 -0.3439  0.2157
   50MOL   C74439062   6.509   3.786   7.851 -1.2873 -1.5183  0.0909
   50MOL   C74539063   6.582   3.836   7.973 -0.3179 -0.0795  0.4529
   50MOL   C74639064   6.593   3.731   0.048 -0.1370 -0.2648  0.3413
   50MOL   O74739065   6.652   3.789   0.170 -0.0793  0.7949 -0.0832
   50MOL   C74839066   6.725   3.880   7.940 -0.1080  0.1991 -0.0634
   50MOL   C74939067   6.725   3.994   7.839  0.1477 -0.1465  0.4622
   50MOL   C75039068   6.648   3.957   7.717  0.5828  0.2853 -0.0434
   50MOL   C75139069   6.624   4.080   7.621  0.3251  0.3119 -0.1682
   50MOL   O75239070   6.741   4.135   7.566  0.1221  1.0822 -0.2240
   50MOL   C75339071   6.727   4.222   7.476  0.5451  0.5796 -0.1569
   50MOL   O75439072   6.619   4.266   7.436  0.0002  0.5833  0.8631
   50MOL   C75539073   6.857   4.280   7.439 -0.3281 -0.2174 -0.0617
   50MOL   C75639074   6.983   4.269   7.508  0.3962 -0.1393 -0.2503
   50MOL   C75739075   7.104   4.320   7.459  0.1113 -1.1368 -0.1622
   50MOL   C75839076   7.097   4.408   7.347  0.4703 -0.7295  0.0800
   50MOL   C75939077   7.216   4.473   7.301 -0.2534 -0.1516  0.8345
   50MOL   O76039078   7.220   4.534   7.192 -0.1339  0.0146 -0.0589
   50MOL   O76139079   7.321   4.452   7.374  0.4534  0.3367 -0.1041
   50MOL   C76239080   6.970   4.418   7.282 -0.5321 -0.0994  0.5289
   50MOL   C76339081   6.856   4.351   7.318  0.3968  0.3270  0.1407
   50MOL   H76439082   6.466   3.857   7.659 -0.4278 -0.2352  0.1918
   50MOL   H76539083   6.439   3.979   7.768 -0.8213  0.0646 -2.7560
   50MOL   H76639084   6.406   3.758   7.871 -1.5296 -0.0462  0.9964
   50MOL   H76739085   6.555   3.695   7.813 -0.8736 -0.2968 -2.4806
   50MOL   H76839086   6.533   3.924   8.016  0.7943  0.7537  0.0201
   50MOL   H76939087   6.494   3.692   0.071 -1.3939  1.4588 -1.9523
   50MOL   H77039088   6.652   3.646   0.014  0.9389  0.2022  1.0101
   50MOL   H77139089   6.774   3.920   8.029 -0.1319 -0.2247  0.1393
   50MOL   H77239090   6.780   3.795   7.900 -1.5562 -0.2035 -1.2458
   50MOL   H77339091   6.827   4.021   7.812 -0.4274  0.4915 -1.1184
   50MOL   H77439092   6.684   4.086   7.881 -0.0000  0.1526 -0.3366
   50MOL   H77539093   6.701   3.877   7.664 -0.3125 -0.6827  0.4977
   50MOL   H77639094   6.557   4.040   7.546 -0.0875 -1.4525  1.1142
   50MOL   H77739095   6.582   4.163   7.678  1.3924 -0.5214  1.8940
   50MOL   H77839096   6.993   4.206   7.596  1.3341  1.9604  1.1975
   50MOL   H77939097   7.191   4.287   7.513  1.1671  0.8663 -0.5989
   50MOL   H78039098   6.973   4.478   7.192 -1.6060 -0.4206  0.2755
   50MOL   H78139099   6.768   4.336   7.257  0.3264  0.4532  0.2091
   50MOL   H78239100   7.362   4.537   7.386  0.9623  0.0441  0.2542
   51MOL     C139101   2.133   0.749   4.083  0.0688 -0.7050  0.1197
   51MOL     C239102   2.206   0.647   3.993 -0.2651 -0.9147  0.1035
   51MOL     C339103   2.282   0.527   4.068  0.1214 -0.2491 -0.5965
   51MOL     C439104   2.331   0.421   3.965  0.0449 -0.1162 -0.7153
   51MOL     O539105   2.469   0.438   3.936 -0.0162  0.4440 -0.0747
   51MOL     C639106   2.375   0.577   4.178  0.4926 -0.5778 -0.1555
   51MOL     C739107   2.307   0.675   4.273 -0.4873 -0.3861 -0.1396
   51MOL     C839108   2.233   0.788   4.206  0.6298  0.2070 -0.1423
   51MOL     C939109   2.158   0.877   4.305  0.8633 -0.5801 -0.5241
   51MOL    O1039110   2.111   0.991   4.233  0.1568 -0.3276 -0.4023
   51MOL    C1139111   2.114   1.117   4.295  0.3455  0.6191  0.1473
   51MOL    O1239112   2.137   1.138   4.414 -0.0400  0.8482 -0.1524
   51MOL    C1339113   2.060   1.218   4.209  0.6222  0.3972  0.3355
   51MOL    C1439114   2.042   1.352   4.249 -0.5298 -0.8135 -0.3337
   51MOL    C1539115   1.992   1.456   4.163  0.2237  0.5063 -0.0803
   51MOL    C1639116   1.982   1.420   4.023  0.0609 -0.3396 -0.4871
   51MOL    C1739117   1.934   1.517   3.921  0.1681  0.1949  0.1415
   51MOL    O1839118   1.908   1.492   3.803 -0.3976  0.2148 -0.1636
   51MOL    O1939119   1.919   1.645   3.965 -0.0752 -0.5518  0.2579
   51MOL    C2039120   1.997   1.286   3.981  0.3282 -0.1104 -0.6940
   51MOL    C2139121   2.029   1.187   4.074  0.8042  0.2234  0.0502
   51MOL    H2239122   2.092   0.837   4.033 -0.7317 -0.2274  1.5735
   51MOL    H2339123   2.041   0.706   4.122 -1.3095  2.0630  0.0811
   51MOL    H2439124   2.132   0.611   3.922  0.6429 -0.9232 -0.8536
   51MOL    H2539125   2.280   0.692   3.927 -2.2228  0.9297 -0.9237
   51MOL    H2639126   2.198   0.476   4.115  0.1696 -1.2835 -1.5974
   51MOL    H2739127   2.320   0.322   4.010  0.2754 -0.8293 -2.2060
   51MOL    H2839128   2.284   0.426   3.867  1.7375  1.6893 -1.4750
   51MOL    H2939129   2.403   0.489   4.237  0.3821 -0.5055  0.0071
   51MOL    H3039130   2.471   0.618   4.145 -0.4889  0.7457 -1.4022
   51MOL    H3139131   2.385   0.710   4.340 -0.0032  1.7102 -1.7304
   51MOL    H3239132   2.237   0.617   4.333  1.2271 -0.0349  2.2582
   51MOL    H3339133   2.310   0.842   4.152  1.3180  0.5297  1.1453
   51MOL    H3439134   2.069   0.826   4.342  0.1520  1.3378  0.4505
   51MOL    H3539135   2.223   0.909   4.386  1.6923 -0.8581 -1.0735
   51MOL    H3639136   2.072   1.384   4.348 -1.1690  1.7846 -0.9348
   51MOL    H3739137   1.968   1.555   4.200 -1.3659  1.4803 -3.5718
   51MOL    H3839138   1.983   1.264   3.876 -0.5438  0.3888 -0.6857
   51MOL    H3939139   2.036   1.086   4.037 -1.2029  0.4199 -0.9008
   51MOL    H4039140   2.514   0.361   3.967 -0.4860 -0.7441 -2.1681
   51MOL    C4139141   1.957   1.686   3.430 -0.0373 -0.0669 -0.8405
   51MOL    C4239142   1.939   1.693   3.583  0.1103  0.6272 -0.1640
   51MOL    C4339143   1.963   1.826   3.658 -0.1911 -1.0555  0.0410
   51MOL    C4439144   1.987   1.804   3.808  1.1185 -0.3160 -0.1357
   51MOL    O4539145   1.874   1.743   3.857  0.3519 -0.0415 -0.1985
   51MOL    C4639146   2.070   1.912   3.594 -0.8748 -1.1692 -0.2250
   51MOL    C4739147   2.063   1.912   3.438 -0.1587 -1.0461 -0.0967
   51MOL    C4839148   2.066   1.771   3.382 -0.2126 -0.1041  0.7629
   51MOL    C4939149   2.074   1.776   3.221 -0.1855  0.1382  0.5216
   51MOL    O5039150   2.140   1.656   3.176  0.8748  0.2245 -0.1561
   51MOL    C5139151   2.143   1.635   3.033  0.0897 -0.6002  0.3901
   51MOL    O5239152   2.101   1.715   2.952  0.1136  0.5966  0.1406
   51MOL    C5339153   2.218   1.516   2.990  0.0401 -0.4706  0.0636
   51MOL    C5439154   2.295   1.438   3.085 -0.5437  0.3139 -0.2709
   51MOL    C5539155   2.359   1.324   3.043  0.1204  0.7383  0.0736
   51MOL    C5639156   2.358   1.282   2.905  0.1308 -0.2238 -0.9813
   51MOL    C5739157   2.425   1.150   2.864  0.1817 -0.6028  0.5945
   51MOL    O5839158   2.491   1.075   2.928 -0.1060 -0.1115 -0.3472
   51MOL    O5939159   2.395   1.117   2.729 -0.5058  0.3937  0.2861
   51MOL    C6039160   2.302   1.371   2.807 -0.6311 -0.2869  0.5428
   51MOL    C6139161   2.226   1.479   2.851  0.4342 -0.1619 -0.7191
   51MOL    H6239162   1.979   1.583   3.403  0.5291  0.1067 -1.0499
   51MOL    H6339163   1.865   1.716   3.381 -0.8131 -0.6949  0.2070
   51MOL    H6439164   1.842   1.653   3.614  0.4212 -1.1091 -1.3483
   51MOL    H6539165   2.019   1.628   3.616  1.7252  2.4228 -0.4803
   51MOL    H6639166   1.874   1.888   3.658  0.2456 -0.4202  1.4695
   51MOL    H6739167   2.082   1.754   3.824  0.6192 -1.0159  0.7524
   51MOL    H6839168   1.997   1.904   3.850  2.8432 -0.8999  0.8954
   51MOL    H6939169   2.070   2.014   3.631 -2.6138 -1.2124 -0.0659
   51MOL    H7039170   2.166   1.868   3.620  0.7005  0.2377 -3.4510
   51MOL    H7139171   2.134   1.979   3.391 -1.8912 -0.6641 -2.2746
   51MOL    H7239172   1.974   1.968   3.410 -0.2847 -0.2792  1.7504
   51MOL    H7339173   2.160   1.730   3.421 -0.2427  0.5412  1.5294
   51MOL    H7439174   1.971   1.787   3.188 -0.5113  1.5496  1.9638
   51MOL    H7539175   2.129   1.864   3.189  1.1539 -0.9846 -0.3597
   51MOL    H7639176   2.288   1.459   3.191  1.7220  2.4365 -0.4728
   51MOL    H7739177   2.400   1.266   3.124  0.8392  1.5649  0.3109
   51MOL    H7839178   2.294   1.354   2.701 -0.6362  0.4181  0.4268
   51MOL    H7939179   2.182   1.542   2.775  0.9613  0.5844 -0.4220
   51MOL    C8039180   2.247   0.628   2.478  0.7769 -1.1264 -0.2564
   51MOL    C8139181   2.256   0.769   2.542 -0.2455 -0.1487 -0.3677
   51MOL    C8239182   2.283   0.764   2.692  0.2576 -0.1699  0.3549
   51MOL    C8339183   2.281   0.911   2.737  0.2552  0.3332 -0.2143
   51MOL    O8439184   2.405   0.964   2.692 -1.3081 -0.7525  0.0719
   51MOL    C8539185   2.171   0.693   2.762 -0.5723 -0.4671 -0.6816
   51MOL    C8639186   2.175   0.549   2.710  0.5885  0.7974  0.3599
   51MOL    C8739187   2.148   0.532   2.555  0.0821 -0.0558  0.1509
   51MOL    C8839188   2.146   0.384   2.513 -0.0593 -0.0900 -0.5282
   51MOL    O8939189   2.276   0.325   2.539  0.4785  0.1361 -0.3172
   51MOL    C9039190   2.348   0.280   2.442 -0.5539  1.1068 -0.8020
   51MOL    O9139191   2.326   0.308   2.324  0.5499 -0.1395 -0.0532
   51MOL    C9239192   2.465   0.191   2.481  0.2675  0.2940 -0.5076
   51MOL    C9339193   2.477   0.143   2.614  0.1242  0.5560  0.0361
   51MOL    C9439194   2.594   0.070   2.661 -0.3506 -0.3110 -0.1174
   51MOL    C9539195   2.709   0.059   2.582  0.5001  0.4331  0.0448
   51MOL    C9639196   2.840   0.025   2.647  0.2503  0.4014 -0.3175
   51MOL    O9739197   2.849   8.034   2.763  0.3535 -0.1270  0.4479
   51MOL    O9839198   2.941   0.026   2.563 -1.0462 -0.5835  0.0828
   51MOL    C9939199   2.693   0.104   2.447  0.5554 -0.3338  0.1607
   51MOL   C10039200   2.576   0.169   2.392  0.7711 -0.6088 -0.7956
   51MOL   H10139201   2.217   0.647   2.375 -0.3279 -0.4065  0.1863
   51MOL   H10239202   2.350   0.592   2.479  0.4992 -1.9522 -1.2202
   51MOL   H10339203   2.333   0.831   2.495 -0.5183  2.4234  2.4203
   51MOL   H10439204   2.174   0.839   2.527 -0.6200  0.0211  2.3230
   51MOL   H10539205   2.380   0.725   2.722 -0.0965  0.8383  2.9942
   51MOL   H10639206   2.198   0.972   2.702  0.8018  0.2147 -1.7619
   51MOL   H10739207   2.274   0.919   2.845 -0.8428  0.1152 -0.2553
   51MOL   H10839208   2.205   0.705   2.865  0.0700 -1.8165 -0.7309
   51MOL   H10939209   2.076   0.742   2.741 -0.1516 -0.3067 -2.3242
   51MOL   H11039210   2.104   0.489   2.766 -1.1244 -0.4175 -2.9851
   51MOL   H11139211   2.274   0.510   2.735  0.0711 -0.2411  0.7799
   51MOL   H11239212   2.049   0.577   2.547 -0.8690 -2.2610 -0.9269
   51MOL   H11339213   2.059   0.335   2.556 -1.1722  0.8713 -1.6322
   51MOL   H11439214   2.118   0.394   2.409 -1.3095 -1.8797 -0.3732
   51MOL   H11539215   2.397   0.159   2.684 -0.3012 -0.8930 -0.1161
   51MOL   H11639216   2.613   0.044   2.764  3.0726 -0.1160 -0.6313
   51MOL   H11739217   2.776   0.104   2.378  0.0609  1.5622 -0.4622
   51MOL   H11839218   2.562   0.205   2.291 -0.7592  3.4935  0.7775
   51MOL   C11939219   3.159   0.457   2.839  0.6617 -0.4840 -0.0598
   51MOL   C12039220   3.171   0.359   2.726  1.2894 -0.1156  0.2010
   51MOL   C12139221   3.102   0.223   2.743 -0.3497 -0.6486  1.0936
   51MOL   C12239222   3.136   0.126   2.627 -0.7875 -0.3329 -0.6397
   51MOL   O12339223   3.072   8.034   2.622  0.4113  0.5919  0.3091
   51MOL   C12439224   3.127   0.158   2.883 -0.4658 -0.1584  0.3213
   51MOL   C12539225   3.105   0.260   2.994 -0.0639  0.4330 -0.2138
   51MOL   C12639226   3.188   0.385   2.967 -0.0321 -0.6357 -0.7990
   51MOL   C12739227   3.207   0.464   3.096  0.4967 -0.0146  0.0063
   51MOL   O12839228   3.079   0.521   3.138 -0.4599 -0.4649 -0.9604
   51MOL   C12939229   3.052   0.649   3.095 -0.0616 -0.4805  0.0348
   51MOL   O13039230   3.132   0.714   3.033  0.6059  0.0251 -0.1130
   51MOL   C13139231   2.925   0.697   3.149  0.0083  0.4047 -0.3044
   51MOL   C13239232   2.868   0.807   3.082  0.1589 -0.0265  0.4244
   51MOL   C13339233   2.747   0.863   3.122 -0.2480 -0.1896  0.4693
   51MOL   C13439234   2.684   0.807   3.232  0.1549  0.2335  0.3552
   51MOL   C13539235   2.566   0.871   3.298 -0.0283  0.5983 -0.4073
   51MOL   O13639236   2.517   0.839   3.402  0.3264 -0.4676 -0.7408
   51MOL   O13739237   2.514   0.969   3.231  0.4809  0.0352  0.2960
   51MOL   C13839238   2.739   0.691   3.297 -0.4570 -0.2171  0.0672
   51MOL   C13939239   2.859   0.638   3.258  0.0010 -0.1538  0.2470
   51MOL   H14039240   3.215   0.550   2.830 -1.5713  0.9600  0.2568
   51MOL   H14139241   3.058   0.499   2.838 -0.0770 -2.0998  2.3393
   51MOL   H14239242   3.126   0.412   2.642  0.7190  0.0087  0.5785
   51MOL   H14339243   3.276   0.353   2.700  1.2623  0.4508 -0.0437
   51MOL   H14439244   2.993   0.231   2.738 -0.3173 -1.4593 -1.5597
   51MOL   H14539245   3.120   0.187   2.538  0.9573  2.8416  1.1338
   51MOL   H14639246   3.241   0.095   2.634 -0.5778  0.7345  1.3007
   51MOL   H14739247   3.085   0.059   2.899 -1.8378  0.2654 -0.6218
   51MOL   H14839248   3.231   0.126   2.884 -0.5318 -0.3829  2.4397
   51MOL   H14939249   3.115   0.213   3.092 -1.3357 -1.4054 -0.9380
   51MOL   H15039250   3.002   0.295   3.000 -0.9905 -2.4534  1.4978
   51MOL   H15139251   3.292   0.355   2.956  0.7596  1.8042 -0.1459
   51MOL   H15239252   3.247   0.396   3.172 -3.7944 -1.1952  1.3722
   51MOL   H15339253   3.285   0.540   3.102  0.2022  0.2755  0.1858
   51MOL   H15439254   2.928   0.850   3.003  0.5203 -1.8995 -0.3430
   51MOL   H15539255   2.707   0.950   3.072 -0.9789 -1.3104 -0.9495
   51MOL   H15639256   2.690   0.653   3.386  0.1482 -1.3759 -0.0968
   51MOL   H15739257   2.886   0.547   3.308  1.6393  1.6214  2.7524
   51MOL   C15839258   1.901   1.011   3.231 -0.2709  0.2731  0.8525
   51MOL   C15939259   2.038   0.954   3.195  0.1215 -0.3284 -0.0939
   51MOL   C16039260   2.149   1.029   3.264  0.7755 -0.6088 -0.0746
   51MOL   C16139261   2.274   0.974   3.214  0.3158 -0.3935 -0.1515
   51MOL   O16239262   2.384   1.013   3.292 -0.3268 -1.0161 -0.3580
   51MOL   C16339263   2.136   1.182   3.245 -0.2107  0.3829 -0.0637
   51MOL   C16439264   1.996   1.236   3.284 -0.2251 -0.1152  0.0129
   51MOL   C16539265   1.888   1.162   3.208  0.1979  0.3162  0.3226
   51MOL   C16639266   1.757   1.203   3.268  0.3000  0.4907  0.6001
   51MOL   O16739267   1.740   1.347   3.242 -0.2766  0.2843  0.1482
   51MOL   C16839268   1.611   1.397   3.239 -0.1042  0.5161 -0.0433
   51MOL   O16939269   1.509   1.328   3.237 -0.5848  0.4453 -0.0669
   51MOL   C17039270   1.609   1.543   3.213  0.6607  0.6606 -0.6257
   51MOL   C17139271   1.706   1.613   3.139 -0.0370  0.5224  0.0335
   51MOL   C17239272   1.693   1.754   3.121 -0.1283  0.1285  0.6866
   51MOL   C17339273   1.585   1.827   3.180 -0.0100 -0.3371  0.0443
   51MOL   C17439274   1.578   1.970   3.145 -0.3243  0.7094  0.1182
   51MOL   O17539275   1.668   2.027   3.075  0.0203  0.0184  0.0126
   51MOL   O17639276   1.481   2.033   3.210 -0.1924  0.5401  0.0402
   51MOL   C17739277   1.498   1.757   3.262  0.4868  0.7671  0.0113
   51MOL   C17839278   1.507   1.616   3.276  0.0491 -0.0490 -0.7299
   51MOL   H17939279   1.821   0.953   3.186 -0.3447  0.1920  1.0921
   51MOL   H18039280   1.891   0.993   3.338 -0.6738 -0.0472  0.7597
   51MOL   H18139281   2.032   0.851   3.232 -2.8381 -0.0811  0.1946
   51MOL   H18239282   2.053   0.949   3.087  1.1146  1.9253 -0.0732
   51MOL   H18339283   2.138   1.018   3.372 -0.8910  1.0429 -0.0484
   51MOL   H18439284   2.264   0.866   3.222  1.5717 -0.4442  0.9863
   51MOL   H18539285   2.283   1.009   3.111  1.6131  2.1896  0.7834
   51MOL   H18639286   2.218   1.231   3.297 -0.1670 -0.2616  0.4815
   51MOL   H18739287   2.139   1.208   3.139  1.8972 -1.1646 -0.4215
   51MOL   H18839288   1.986   1.345   3.277 -1.1834 -0.2400 -0.5699
   51MOL   H18939289   1.992   1.219   3.392 -1.4077 -2.4270 -0.3798
   51MOL   H19039290   1.884   1.177   3.100  0.0775 -0.1966  0.2561
   51MOL   H19139291   1.683   1.145   3.213  0.0954 -0.4873  1.8748
   51MOL   H19239292   1.745   1.182   3.374 -0.5448 -1.4824  0.1440
   51MOL   H19339293   1.791   1.557   3.100 -0.1992  1.5724 -1.8836
   51MOL   H19439294   1.773   1.805   3.071 -1.9897  2.0318 -0.4340
   51MOL   H19539295   1.416   1.812   3.306 -0.5296 -0.2672 -0.5614
   51MOL   H19639296   1.438   1.565   3.341  0.4292 -0.8527 -0.9612
   51MOL   C19739297   1.292   2.582   3.010  0.6698 -0.0418 -0.0756
   51MOL   C19839298   1.289   2.432   3.017  0.6726  0.5131 -0.1394
   51MOL   C19939299   1.377   2.380   3.131 -0.1520  0.1801  0.6112
   51MOL   C20039300   1.393   2.222   3.113  0.4850  0.2320  0.5583
   51MOL   O20139301   1.490   2.180   3.207 -0.0583  0.5707  0.1086
   51MOL   C20239302   1.522   2.434   3.111 -0.5657 -0.1503 -0.8358
   51MOL   C20339303   1.532   2.582   3.100 -0.1748 -0.6731  0.1114
   51MOL   C20439304   1.436   2.644   2.993  0.0532 -0.2658 -0.2803
   51MOL   C20539305   1.440   2.797   2.989 -0.2754 -0.2691  0.5586
   51MOL   O20639306   1.576   2.834   2.994 -0.1830 -0.2220 -0.1652
   51MOL   C20739307   1.636   2.852   2.879 -0.2367  0.4983 -0.4105
   51MOL   O20839308   1.584   2.845   2.769  0.1436 -0.3503  0.1185
   51MOL   C20939309   1.778   2.877   2.905 -0.3814  0.1387  0.2200
   51MOL   C21039310   1.875   2.880   2.799 -0.4844 -0.2818 -0.7627
   51MOL   C21139311   2.007   2.902   2.821 -0.3542  0.4190 -1.3092
   51MOL   C21239312   2.054   2.929   2.954 -0.4483 -0.0201  0.3221
   51MOL   C21339313   2.197   2.958   2.981 -0.0997 -0.4032  0.5256
   51MOL   O21439314   2.283   2.949   2.896 -1.1949  0.1677  0.5605
   51MOL   O21539315   2.223   2.995   3.109 -0.4007  0.0400  0.2092
   51MOL   C21639316   1.957   2.934   3.060  0.0201  0.3729  0.5843
   51MOL   C21739317   1.820   2.904   3.041 -0.1033 -0.3091  0.1896
   51MOL   H21839318   1.223   2.625   2.937  0.0395 -0.8391  0.0371
   51MOL   H21939319   1.254   2.618   3.105  0.8855  0.6387 -0.2456
   51MOL   H22039320   1.188   2.395   3.028  0.8630 -0.0842 -0.4145
   51MOL   H22139321   1.324   2.393   2.922 -2.4364 -0.8475 -0.7719
   51MOL   H22239322   1.334   2.422   3.222 -0.6299  2.0119 -0.4368
   51MOL   H22339323   1.297   2.174   3.129  0.7418 -0.8271 -0.9678
   51MOL   H22439324   1.429   2.194   3.015  2.2272  1.8983  0.6842
   51MOL   H22539325   1.585   2.398   3.192  0.4596 -0.1509 -1.6228
   51MOL   H22639326   1.546   2.387   3.015 -0.0173 -0.8109 -0.3739
   51MOL   H22739327   1.633   2.622   3.100  0.0341 -1.0826  3.2302
   51MOL   H22839328   1.493   2.622   3.193  2.3852  1.2800  0.3981
   51MOL   H22939329   1.479   2.617   2.897  1.5708  0.6373  0.1194
   51MOL   H23039330   1.382   2.848   2.913  0.4446  2.1273  1.5667
   51MOL   H23139331   1.395   2.834   3.082  0.8964  0.0765  1.0018
   51MOL   H23239332   1.847   2.868   2.696  1.9216  0.2123 -1.4897
   51MOL   H23339333   2.080   2.903   2.740  0.9354 -3.1058 -0.2853
   51MOL   H23439334   1.991   2.961   3.159  0.9101  2.1092 -0.1691
   51MOL   H23539335   1.751   2.904   3.124 -3.1094 -0.6478 -2.2081
   51MOL   C23639336   2.560   3.274   2.805 -0.1221 -0.4245 -0.4344
   51MOL   C23739337   2.450   3.224   2.897  0.2204  0.1660  0.0041
   51MOL   C23839338   2.490   3.217   3.042  0.4768 -0.7724 -0.1232
   51MOL   C23939339   2.378   3.165   3.131  0.3569  0.1624  0.7275
   51MOL   O24039340   2.366   3.029   3.123  0.1690  0.4684  0.0858
   51MOL   C24139341   2.621   3.148   3.064  0.2192  0.7712 -0.3847
   51MOL   C24239342   2.734   3.216   2.984 -0.0428 -0.1630 -0.5621
   51MOL   C24339343   2.699   3.207   2.836  1.1260  0.0033 -0.1636
   51MOL   C24439344   2.806   3.265   2.750 -0.2751  0.5576  0.0422
   51MOL   O24539345   2.789   3.224   2.607  0.1153  0.3428 -0.2205
   51MOL   C24639346   2.723   3.311   2.519 -0.1243  0.8368  0.5352
   51MOL   O24739347   2.667   3.414   2.560  0.0328  0.0306 -0.2171
   51MOL   C24839348   2.709   3.267   2.376  0.0124 -0.4857 -0.4204
   51MOL   C24939349   2.770   3.145   2.334 -0.3945 -0.0816  0.3155
   51MOL   C25039350   2.739   3.092   2.199  0.3007  0.2385 -0.1951
   51MOL   C25139351   2.667   3.169   2.105  0.5798 -0.1741 -0.3388
   51MOL   C25239352   2.640   3.115   1.962 -0.7457 -0.1280 -1.5151
   51MOL   O25339353   2.586   3.183   1.876  0.2017  0.5322  0.2593
   51MOL   O25439354   2.672   2.988   1.942 -0.2628  0.5314 -0.6383
   51MOL   C25539355   2.622   3.298   2.151  0.0313 -0.0229 -0.0599
   51MOL   C25639356   2.640   3.343   2.280  0.5193  0.0783 -0.1160
   51MOL   H25739357   2.525   3.240   2.707 -1.8586  0.3537 -0.0963
   51MOL   H25839358   2.571   3.382   2.807  1.3073 -0.5878  2.1174
   51MOL   H25939359   2.365   3.286   2.868 -0.0190 -0.5735 -0.9176
   51MOL   H26039360   2.416   3.125   2.865  1.7912 -0.7385  1.0512
   51MOL   H26139361   2.512   3.317   3.078  0.5539 -0.3389 -1.3763
   51MOL   H26239362   2.394   3.193   3.235  1.1638 -1.2854  0.9970
   51MOL   H26339363   2.284   3.206   3.094  0.0762  1.1039  2.4464
   51MOL   H26439364   2.648   3.133   3.168 -1.3439  0.8911  0.0461
   51MOL   H26539365   2.608   3.049   3.020  2.9104 -0.3472  1.2491
   51MOL   H26639366   2.834   3.177   3.002 -0.6994 -0.3666  3.0201
   51MOL   H26739367   2.741   3.317   3.024  1.1236 -1.5587  3.0350
   51MOL   H26839368   2.685   3.100   2.820 -1.8908 -0.2057  3.0974
   51MOL   H26939369   2.802   3.373   2.758 -0.4283  0.7161 -1.8245
   51MOL   H27039370   2.906   3.233   2.780  0.3462 -1.0094 -3.3657
   51MOL   H27139371   2.822   3.083   2.405  1.5812  0.6078 -0.4906
   51MOL   H27239372   2.758   2.987   2.182  0.4876  0.1472  0.5361
   51MOL   H27339373   2.553   3.355   2.090  0.4348  0.8814  0.3223
   51MOL   H27439374   2.598   3.435   2.317  1.2244  0.7539 -0.9630
   51MOL   C27539375   2.401   2.499   1.878  0.0831 -0.6679  0.0621
   51MOL   C27639376   2.413   2.647   1.829 -0.2179 -0.2139 -0.0562
   51MOL   C27739377   2.545   2.723   1.846  0.2241 -0.6452  0.5062
   51MOL   C27839378   2.526   2.872   1.804 -0.2601 -0.4881 -0.2864
   51MOL   O27939379   2.651   2.940   1.800  0.1525  0.2948  0.6344
   51MOL   C28039380   2.606   2.704   1.982 -0.4782 -0.2175  0.0243
   51MOL   C28139381   2.606   2.548   2.017  0.0930  0.1501 -0.1867
   51MOL   C28239382   2.461   2.488   2.016  0.6679  0.3173  0.6172
   51MOL   C28339383   2.459   2.339   2.050 -0.5755 -0.1326 -0.1261
   51MOL   O28439384   2.514   2.311   2.181  0.2628 -0.6704  0.4063
   51MOL   C28539385   2.438   2.328   2.291 -0.2714  0.2566  0.0790
   51MOL   O28639386   2.320   2.361   2.279  0.6446  0.2088  0.6665
   51MOL   C28739387   2.516   2.304   2.413  0.6828  0.2233  0.0980
   51MOL   C28839388   2.657   2.292   2.409 -0.2067  0.0503 -0.1656
   51MOL   C28939389   2.731   2.268   2.525 -0.3702 -0.0965 -0.1929
   51MOL   C29039390   2.668   2.255   2.647 -0.3901 -0.6202  0.2308
   51MOL   C29139391   2.748   2.229   2.772 -0.1189  0.1092  0.3277
   51MOL   O29239392   2.702   2.227   2.888  0.0071  0.5193 -0.5648
   51MOL   O29339393   2.875   2.204   2.741  0.0144 -0.2032 -0.1219
   51MOL   C29439394   2.529   2.262   2.652  0.0906 -0.0922 -0.2489
   51MOL   C29539395   2.449   2.293   2.537 -0.7698  0.3830 -0.6749
   51MOL   H29639396   2.297   2.470   1.894 -0.3997 -0.7643 -3.0670
   51MOL   H29739397   2.449   2.426   1.812 -3.5537 -1.8392 -1.4090
   51MOL   H29839398   2.403   2.647   1.720 -0.8820  1.6637 -0.0132
   51MOL   H29939399   2.333   2.710   1.869 -0.1227 -0.1393  0.0140
   51MOL   H30039400   2.620   2.682   1.779  0.8708  2.5253 -0.7760
   51MOL   H30139401   2.471   2.871   1.710 -1.1171  0.3085  0.1971
   51MOL   H30239402   2.456   2.926   1.868  1.5649 -0.1544  1.4869
   51MOL   H30339403   2.713   2.726   1.977 -0.4298 -0.4993 -0.1925
   51MOL   H30439404   2.555   2.762   2.059 -0.3233 -0.1241  0.0572
   51MOL   H30539405   2.636   2.549   2.122 -0.8690 -0.4134  0.1052
   51MOL   H30639406   2.676   2.497   1.950 -1.8982 -2.2280 -0.5184
   51MOL   H30739407   2.413   2.543   2.096  1.1803  0.4227  0.8583
   51MOL   H30839408   2.355   2.305   2.050 -0.3615 -0.7892 -0.3779
   51MOL   H30939409   2.504   2.278   1.971 -0.2430  1.5068 -1.2240
   51MOL   H31039410   2.722   2.314   2.326 -0.3347 -0.8551 -0.5125
   51MOL   H31139411   2.838   2.274   2.511 -0.7210 -0.0622 -2.9732
   51MOL   H31239412   2.480   2.259   2.749 -0.1428 -0.4681 -0.3787
   51MOL   H31339413   2.341   2.282   2.539 -0.6943 -0.3133  0.2639
   51MOL   C31439414   3.274   1.905   3.086  0.1066  0.5381 -0.1412
   51MOL   C31539415   3.194   1.964   2.963 -0.0885 -0.4497  0.2553
   51MOL   C31639416   3.045   1.966   2.992  0.4209  0.1194  0.6146
   51MOL   C31739417   2.970   2.025   2.870 -0.0532  0.1139  0.1306
   51MOL   O31839418   2.965   2.168   2.856 -0.0066  0.0287 -0.1056
   51MOL   C31939419   2.994   1.826   3.033 -0.4136 -0.2080 -0.2347
   51MOL   C32039420   3.069   1.768   3.151  0.4603  0.3708 -0.6169
   51MOL   C32139421   3.220   1.765   3.128 -0.3783  0.2135  0.0567
   51MOL   C32239422   3.288   1.704   3.254  0.3550  0.3786 -0.1509
   51MOL   O32339423   3.314   1.807   3.348  0.0031  0.6238 -0.4987
   51MOL   C32439424   3.385   1.778   3.460  0.1339 -0.7982 -0.1147
   51MOL   O32539425   3.418   1.665   3.500 -0.2261  0.2293  0.1328
   51MOL   C32639426   3.424   1.901   3.535  1.2411  0.2225  0.0338
   51MOL   C32739427   3.370   2.030   3.514 -0.4980 -1.0614 -0.0552
   51MOL   C32839428   3.410   2.142   3.597  0.4294 -0.2635 -0.0392
   51MOL   C32939429   3.521   2.130   3.689 -0.2476 -0.8708 -0.1330
   51MOL   C33039430   3.559   2.242   3.772 -0.2131  0.3298 -0.3316
   51MOL   O33139431   3.636   2.230   3.869 -0.2927 -0.5873  0.6989
   51MOL   O33239432   3.501   2.358   3.737 -0.0651  0.1984  0.5426
   51MOL   C33339433   3.569   1.998   3.708 -0.1528 -0.1427 -0.1174
   51MOL   C33439434   3.518   1.886   3.635 -0.2296  0.2042 -0.5297
   51MOL   H33539435   3.381   1.906   3.066  0.1433  0.0495  0.0211
   51MOL   H33639436   3.270   1.974   3.170  1.2316 -0.0569  0.4100
   51MOL   H33739437   3.232   2.064   2.940  1.2111 -0.8987  0.4023
   51MOL   H33839438   3.209   1.891   2.884 -1.1188 -0.8134  0.3860
   51MOL   H33939439   3.032   2.035   3.075  0.8162 -1.5079  2.0784
   51MOL   H34039440   3.025   1.988   2.784 -0.9911 -1.4239  0.1762
   51MOL   H34139441   2.866   1.994   2.870 -0.9005  2.6535 -3.0597
   51MOL   H34239442   2.886   1.825   3.045 -0.6878  2.0704 -1.9901
   51MOL   H34339443   3.005   1.765   2.943 -4.0002 -1.6971  0.2896
   51MOL   H34439444   3.034   1.666   3.165  0.5010  0.5757  1.0409
   51MOL   H34539445   3.043   1.817   3.245 -0.4545 -1.4128  0.0890
   51MOL   H34639446   3.232   1.701   3.041 -0.2073  0.3725 -0.0368
   51MOL   H34739447   3.234   1.623   3.302  1.5816 -1.1389 -1.3036
   51MOL   H34839448   3.391   1.676   3.235  0.4974  0.4720  0.4716
   51MOL   H34939449   3.288   2.042   3.444 -0.2068  0.2666 -0.1703
   51MOL   H35039450   3.359   2.237   3.586  1.4298  0.0636 -2.2325
   51MOL   H35139451   3.643   1.981   3.786 -0.0711  1.1565  0.0902
   51MOL   H35239452   3.565   1.792   3.661  0.6502  1.2734  1.8166
   51MOL   C35339453   3.699   2.691   3.434 -0.2084  0.5415 -0.2097
   51MOL   C35439454   3.734   2.645   3.581  0.3753 -0.5379  0.5995
   51MOL   C35539455   3.621   2.579   3.650 -0.1449 -0.6212 -0.6806
   51MOL   C35639456   3.654   2.527   3.791 -0.0684  0.3807  0.1832
   51MOL   O35739457   3.534   2.463   3.839 -0.4447  0.3378  0.0339
   51MOL   C35839458   3.502   2.681   3.660 -0.2263  0.3287 -0.3283
   51MOL   C35939459   3.460   2.730   3.513 -0.0923  0.8076  0.0946
   51MOL   C36039460   3.575   2.783   3.426 -0.6947  0.3181 -0.1111
   51MOL   C36139461   3.518   2.808   3.280 -0.9386 -0.1183 -0.0272
   51MOL   O36239462   3.433   2.927   3.294  0.2676  0.0320  0.0402
   51MOL   C36339463   3.319   2.928   3.229 -0.0144  0.0900  0.4267
   51MOL   O36439464   3.299   2.854   3.136  0.4023  0.2132 -0.2697
   51MOL   C36539465   3.218   3.021   3.282 -0.8227  0.4974  0.4273
   51MOL   C36639466   3.090   3.021   3.230  1.1454 -0.0125 -0.1460
   51MOL   C36739467   2.995   3.111   3.276  0.1050 -0.2973  0.4133
   51MOL   C36839468   3.022   3.201   3.384 -0.2309 -0.0078  0.0693
   51MOL   C36939469   2.918   3.291   3.422  0.5369  1.3385  0.5375
   51MOL   O37039470   2.803   3.261   3.421  0.5779  0.0844 -0.1714
   51MOL   O37139471   2.969   3.410   3.462 -0.4646 -0.6086 -0.7292
   51MOL   C37239472   3.154   3.208   3.433 -0.4061 -0.1490 -0.2088
   51MOL   C37339473   3.250   3.119   3.379  0.0829 -0.2704 -0.2323
   51MOL   H37439474   3.782   2.745   3.390 -0.4132 -0.4296 -1.8389
   51MOL   H37539475   3.674   2.600   3.379 -0.5569 -0.3105  1.3314
   51MOL   H37639476   3.820   2.578   3.575 -0.0775 -0.9782 -1.3241
   51MOL   H37739477   3.764   2.733   3.638  2.9786  0.5620 -2.3436
   51MOL   H37839478   3.589   2.510   3.573 -0.5129 -0.2110 -0.8906
   51MOL   H37939479   3.734   2.453   3.782  0.6489  1.3189 -1.4717
   51MOL   H38039480   3.684   2.614   3.850  2.8283 -0.7190  0.4318
   51MOL   H38139481   3.417   2.641   3.715 -0.8107  2.4227  0.3319
   51MOL   H38239482   3.528   2.772   3.714 -0.9898  0.5471 -0.3243
   51MOL   H38339483   3.380   2.804   3.520  0.8269  1.9531 -1.2072
   51MOL   H38439484   3.416   2.642   3.467  1.5213 -0.6647  1.3262
   51MOL   H38539485   3.613   2.879   3.462  2.3875 -0.0329 -2.1460
   51MOL   H38639486   3.595   2.845   3.212 -0.6731  2.6497  1.6768
   51MOL   H38739487   3.477   2.718   3.236  1.5186  0.1694 -3.1181
   51MOL   H38839488   3.067   2.950   3.152 -2.7388  0.4810  0.4759
   51MOL   H38939489   2.897   3.105   3.232 -0.6591 -1.8317  2.2086
   51MOL   H39039490   3.187   3.283   3.504 -1.7208 -0.1010  0.3709
   51MOL   H39139491   3.350   3.117   3.420 -0.5973 -0.6527  1.4685
   51MOL   C39239492   3.217   3.696   3.673 -0.4460  0.2012  0.1866
   51MOL   C39339493   3.126   3.590   3.632 -0.5201 -0.5831 -0.3005
   51MOL   C39439494   2.994   3.595   3.714 -0.3938 -0.5310  0.5921
   51MOL   C39539495   2.888   3.496   3.670  1.2620  0.5160 -0.0224
   51MOL   O39639496   2.862   3.495   3.534  0.1592 -0.3367  0.0374
   51MOL   C39739497   3.033   3.574   3.865 -0.0361  0.3143  0.9083
   51MOL   C39839498   3.130   3.684   3.911 -0.3364 -1.0477 -0.3345
   51MOL   C39939499   3.250   3.694   3.821  0.4501 -0.2522  0.5456
   51MOL   C40039500   3.350   3.809   3.854  0.1864  0.0841  0.5659
   51MOL   O40139501   3.323   3.930   3.786  0.0268  0.2878  0.3016
   51MOL   C40239502   3.284   4.037   3.857 -0.2935 -0.1488  0.0388
   51MOL   O40339503   3.268   4.039   3.981  0.1379 -0.1468  0.6089
   51MOL   C40439504   3.248   4.153   3.774 -0.1139  0.3589 -0.5777
   51MOL   C40539505   3.266   4.151   3.635  0.0751  0.6850  0.6313
   51MOL   C40639506   3.235   4.264   3.561 -0.0046  0.2045  0.7962
   51MOL   C40739507   3.170   4.377   3.615 -0.1700 -0.3089  0.3455
   51MOL   C40839508   3.139   4.505   3.545 -0.4878  0.1799 -0.4884
   51MOL   O40939509   3.067   4.595   3.591  0.0111  0.1014 -0.4388
   51MOL   O41039510   3.198   4.510   3.428  0.3482  0.6723 -0.0863
   51MOL   C41139511   3.136   4.369   3.752  0.0280  0.1471  0.6132
   51MOL   C41239512   3.169   4.261   3.828 -0.1216  0.5362  0.4700
   51MOL   H41339513   3.303   3.670   3.610 -0.4769  0.0423  0.2096
   51MOL   H41439514   3.178   3.792   3.639  0.1361 -0.2210 -1.7620
   51MOL   H41539515   3.103   3.616   3.529  0.4545  0.3747 -0.2888
   51MOL   H41639516   3.178   3.494   3.636 -0.2298 -0.4189 -0.1506
   51MOL   H41739517   2.956   3.697   3.704  1.1742 -0.0119 -0.3914
   51MOL   H41839518   2.903   3.394   3.706 -0.4348 -0.0289 -0.8187
   51MOL   H41939519   2.795   3.521   3.721  2.0427  1.5782  0.8955
   51MOL   H42039520   2.943   3.575   3.926 -2.0730 -2.2698 -1.9164
   51MOL   H42139521   3.084   3.479   3.881 -0.7390 -0.6339 -2.1831
   51MOL   H42239522   3.166   3.668   4.012  2.4876 -3.0517 -1.5736
   51MOL   H42339523   3.078   3.778   3.891 -0.3572 -0.7856  0.9485
   51MOL   H42439524   3.301   3.599   3.837 -0.5891 -1.5128 -3.0039
   51MOL   H42539525   3.359   3.814   3.962 -1.0469 -0.0194  0.6853
   51MOL   H42639526   3.448   3.785   3.813 -0.7613  1.6930 -2.8525
   51MOL   H42739527   3.315   4.066   3.590 -2.3253 -0.3601 -0.0779
   51MOL   H42839528   3.263   4.269   3.457 -1.3118 -1.0054  0.3670
   51MOL   H42939529   3.080   4.445   3.806  0.8038  0.2860  1.2351
   51MOL   H43039530   3.159   4.267   3.935  0.4387 -1.0038  0.6226
   51MOL   C43139531   2.781   4.542   3.085  0.2004  0.0851 -0.6396
   51MOL   C43239532   2.929   4.579   3.089  0.4746  0.1216  0.0547
   51MOL   C43339533   2.978   4.599   3.237 -0.2449 -0.1871 -0.0882
   51MOL   C43439534   3.130   4.632   3.234 -0.2804 -0.3550 -0.2170
   51MOL   O43539535   3.183   4.642   3.364 -0.4713 -0.3571  0.3981
   51MOL   C43639536   2.895   4.712   3.299 -0.0171  0.7315  0.2374
   51MOL   C43739537   2.753   4.672   3.297 -0.9639 -0.3868 -0.4089
   51MOL   C43839538   2.707   4.657   3.154  0.4381 -0.4626  0.2831
   51MOL   C43939539   2.551   4.651   3.139 -0.2559 -0.1278 -0.0719
   51MOL   O44039540   2.521   4.626   3.003 -0.2738  0.3341  0.3680
   51MOL   C44139541   2.513   4.717   2.912  0.3918 -0.6651  0.1944
   51MOL   O44239542   2.518   4.840   2.938 -0.1368 -0.0893 -0.1962
   51MOL   C44339543   2.504   4.665   2.766  0.0244 -0.1037  0.3789
   51MOL   C44439544   2.523   4.526   2.744  0.1614  0.0085 -0.0910
   51MOL   C44539545   2.521   4.477   2.611  0.0380  0.6368  0.1477
   51MOL   C44639546   2.508   4.563   2.499  0.0881  0.0691  0.3324
   51MOL   C44739547   2.514   4.507   2.364 -0.4429 -0.5250 -0.0633
   51MOL   O44839548   2.520   4.387   2.337  0.1170  0.8160  0.1619
   51MOL   O44939549   2.507   4.593   2.267  0.2470  0.6995  0.7050
   51MOL   C45039550   2.489   4.701   2.527  0.3942  0.4928  0.9204
   51MOL   C45139551   2.478   4.751   2.658 -0.0621  0.9535  0.4954
   51MOL   H45239552   2.738   4.543   2.985  0.3683  1.0139 -0.6997
   51MOL   H45339553   2.762   4.444   3.130  2.3217 -0.0423 -0.0073
   51MOL   H45439554   3.002   4.514   3.041  0.5248  1.5513 -1.8951
   51MOL   H45539555   2.939   4.673   3.035  0.5135  1.4119  2.2640
   51MOL   H45639556   2.962   4.505   3.289 -1.5394  0.4086  0.6128
   51MOL   H45739557   3.185   4.551   3.186 -1.6399 -1.3932 -0.0291
   51MOL   H45839558   3.150   4.718   3.171  1.5123 -0.3253  0.3450
   51MOL   H45939559   2.913   4.729   3.405  0.2049  0.5713  0.2255
   51MOL   H46039560   2.919   4.812   3.264  0.2029  0.1192 -1.4109
   51MOL   H46139561   2.687   4.747   3.341 -0.8382  0.7152 -2.0349
   51MOL   H46239562   2.752   4.577   3.351  2.3908  0.8532  1.9560
   51MOL   H46339563   2.733   4.747   3.097 -1.4329 -0.8862 -1.3122
   51MOL   H46439564   2.502   4.573   3.199 -0.7600 -0.5925 -1.0813
   51MOL   H46539565   2.516   4.748   3.175  0.7645  0.3392 -0.3329
   51MOL   H46639566   2.532   4.457   2.827 -0.9244 -1.6031 -1.2578
   51MOL   H46739567   2.526   4.369   2.605  1.3690  0.7268 -0.3792
   51MOL   H46839568   2.481   4.774   2.448 -1.7784  0.9981  1.5777
   51MOL   H46939569   2.462   4.856   2.678 -0.6006  0.6673  1.5808
   51MOL   C47039570   2.598   4.161   1.955 -0.3119 -0.0329  0.0887
   51MOL   C47139571   2.606   4.279   2.049  1.1865  0.0862  0.0494
   51MOL   C47239572   2.649   4.408   1.976 -0.1053 -0.0535  0.1849
   51MOL   C47339573   2.641   4.523   2.081 -0.3214  0.5226 -0.0694
   51MOL   O47439574   2.508   4.535   2.127  0.0422  0.0994 -0.4279
   51MOL   C47539575   2.790   4.381   1.925  0.6297  0.0468 -0.1231
   51MOL   C47639576   2.791   4.250   1.840  1.1121 -0.2627  0.1644
   51MOL   C47739577   2.743   4.131   1.916 -0.0960 -0.0789  0.3860
   51MOL   C47839578   2.742   4.016   1.820 -0.0804 -0.4256 -0.0396
   51MOL   O47939579   2.867   3.961   1.815  0.0624  0.7062 -0.0478
   51MOL   C48039580   2.910   3.908   1.697  0.3328 -0.3276 -0.2609
   51MOL   O48139581   2.833   3.901   1.599 -0.1486 -0.0351  0.3536
   51MOL   C48239582   3.062   3.876   1.700 -0.0885 -0.1511  0.5877
   51MOL   C48339583   3.123   3.834   1.579  0.6553  0.3034 -0.3038
   51MOL   C48439584   3.263   3.801   1.583  0.7352 -0.5564 -0.3063
   51MOL   C48539585   3.337   3.822   1.699 -0.6380 -0.2294 -0.3659
   51MOL   C48639586   3.483   3.795   1.697  0.6476 -0.6045 -0.3246
   51MOL   O48739587   3.547   3.750   1.601  0.0369  0.2034  0.4465
   51MOL   O48839588   3.549   3.834   1.807  0.0730 -0.3657 -0.1785
   51MOL   C48939589   3.274   3.869   1.819 -0.1130  0.2396 -0.8393
   51MOL   C49039590   3.137   3.885   1.822 -0.0051  0.6806  0.7386
   51MOL   H49139591   2.550   4.077   2.005 -2.0325  1.7431  1.4615
   51MOL   H49239592   2.536   4.204   1.877 -1.6430 -2.1460 -0.0540
   51MOL   H49339593   2.508   4.300   2.091  1.6217  1.6409  0.3168
   51MOL   H49439594   2.668   4.255   2.135  2.0818  0.0948 -0.5798
   51MOL   H49539595   2.575   4.425   1.899  1.1077 -0.6207 -1.1238
   51MOL   H49639596   2.714   4.498   2.158 -0.4220 -2.1530 -0.8058
   51MOL   H49739597   2.679   4.618   2.041  1.0580 -0.4855 -1.2218
   51MOL   H49839598   2.809   4.468   1.862  0.5263 -0.0527 -0.2925
   51MOL   H49939599   2.857   4.382   2.011  0.3613 -0.6363  0.1002
   51MOL   H50039600   2.892   4.240   1.801  1.4329  0.1345  0.8891
   51MOL   H50139601   2.723   4.270   1.757  1.9696  0.2571 -0.4149
   51MOL   H50239602   2.806   4.115   2.003  0.0619 -2.0710 -0.0779
   51MOL   H50339603   2.679   3.938   1.863 -0.1866 -0.4220 -0.1913
   51MOL   H50439604   2.698   4.050   1.727 -2.3697  0.1149  1.2027
   51MOL   H50539605   3.066   3.837   1.488 -1.7698  4.0934  1.2021
   51MOL   H50639606   3.306   3.771   1.489 -0.7897 -0.4472 -1.0623
   51MOL   H50739607   3.337   3.886   1.904 -1.6492  2.2199 -0.0482
   51MOL   H50839608   3.083   3.918   1.910 -3.4150  0.6520 -1.2230
   51MOL   C50939609   4.040   3.911   1.517  0.0551  0.2913  0.7882
   51MOL   C51039610   3.896   3.905   1.571 -0.5683 -0.3863 -0.5576
   51MOL   C51139611   3.869   3.987   1.702  0.0672  0.2070  0.1701
   51MOL   C51239612   3.732   3.976   1.761 -0.5797 -0.3727 -0.1702
   51MOL   O51339613   3.696   3.841   1.795 -1.2635 -0.7134 -0.9273
   51MOL   C51439614   3.975   3.960   1.801 -0.3770  0.1920  0.0563
   51MOL   C51539615   4.121   3.970   1.741  0.1891 -0.0302  0.3659
   51MOL   C51639616   4.139   3.880   1.627 -0.6193  0.2955 -0.5634
   51MOL   C51739617   4.284   3.888   1.569 -0.4280 -0.8212 -0.6311
   51MOL   O51839618   4.355   3.823   1.673 -0.1831  0.0198  0.3053
   51MOL   C51939619   4.430   3.712   1.645  0.3862 -0.1935 -0.6923
   51MOL   O52039620   4.455   3.678   1.531 -0.1401  0.4013  0.6480
   51MOL   C52139621   4.472   3.640   1.766 -0.0452  0.5016  0.2152
   51MOL   C52239622   4.429   3.672   1.898  0.1258  0.2821 -0.0162
   51MOL   C52339623   4.468   3.594   2.008 -0.3532  0.0421  0.3904
   51MOL   C52439624   4.546   3.480   1.993  0.5333 -0.5355  0.5613
   51MOL   C52539625   4.576   3.384   2.110 -0.0877 -0.3005  0.1792
   51MOL   O52639626   4.669   3.301   2.104 -0.3622 -0.1888  0.5040
   51MOL   O52739627   4.495   3.401   2.213  0.2682  0.2923  1.0259
   51MOL   C52839628   4.597   3.447   1.864  0.2727  0.2140  0.2195
   51MOL   C52939629   4.563   3.529   1.751  0.5837  0.1768 -0.2576
   51MOL   H53039630   4.054   3.843   1.434 -0.3199 -1.6405  2.2721
   51MOL   H53139631   4.048   4.013   1.479 -0.4715 -0.6912 -2.0968
   51MOL   H53239632   3.830   3.942   1.493 -0.6266  1.0710  0.1648
   51MOL   H53339633   3.862   3.803   1.593 -2.6031  0.5454  0.7601
   51MOL   H53439634   3.884   4.093   1.679 -2.3590 -0.0761 -3.1752
   51MOL   H53539635   3.727   4.039   1.849 -0.2751  1.0772 -1.1830
   51MOL   H53639636   3.654   4.014   1.696 -0.5286 -1.1299 -0.6844
   51MOL   H53739637   3.961   4.028   1.886  1.0119 -1.2267  1.4562
   51MOL   H53839638   3.957   3.861   1.842  1.4063 -2.0462 -4.2635
   51MOL   H53939639   4.198   3.959   1.817 -1.5918  0.2295  2.2484
   51MOL   H54039640   4.135   4.068   1.696  1.9982 -1.0892 -1.4686
   51MOL   H54139641   4.126   3.777   1.662  1.8985 -0.1592 -0.8532
   51MOL   H54239642   4.277   3.824   1.481 -0.4994  0.3348 -1.4643
   51MOL   H54339643   4.321   3.985   1.540 -2.0016  0.3980  1.2872
   51MOL   H54439644   4.347   3.742   1.906  0.4157  0.4763  1.3266
   51MOL   H54539645   4.418   3.610   2.102 -0.4171 -1.5968  0.6465
   51MOL   H54639646   4.667   3.366   1.850 -0.4593 -0.1227 -1.6488
   51MOL   H54739647   4.615   3.514   1.658 -0.5930  0.4201 -0.9671
   51MOL   C54839648   4.542   3.163   2.731  0.4827  0.7250 -0.1136
   51MOL   C54939649   4.506   3.239   2.608 -0.3623  0.7904 -1.0474
   51MOL   C55039650   4.619   3.333   2.558 -0.5836  0.5313  0.3461
   51MOL   C55139651   4.579   3.400   2.429 -0.0201 -0.3787 -0.2961
   51MOL   O55239652   4.532   3.309   2.329 -0.4700  0.5189 -0.0065
   51MOL   C55339653   4.659   3.432   2.673  0.1608  0.1572 -0.6264
   51MOL   C55439654   4.697   3.358   2.803  0.6863  0.5454  0.1295
   51MOL   C55539655   4.585   3.252   2.851 -1.2482 -0.9475  0.1285
   51MOL   C55639656   4.652   3.162   2.956  0.7038  0.9027 -0.1522
   51MOL   O55739657   4.572   3.057   2.996 -0.7588  0.3175 -0.2884
   51MOL   C55839658   4.479   3.063   3.105  0.3306 -0.0731  0.4285
   51MOL   O55939659   4.470   3.155   3.189 -0.6594 -0.2010 -0.0783
   51MOL   C56039660   4.394   2.940   3.118 -0.2542 -0.1296  0.3777
   51MOL   C56139661   4.349   2.894   3.240 -0.9347  1.0557 -0.1561
   51MOL   C56239662   4.270   2.779   3.247  0.0503  0.8238 -0.4512
   51MOL   C56339663   4.231   2.706   3.131 -0.1249 -0.2843  0.3421
   51MOL   C56439664   4.145   2.593   3.149 -0.7951  0.0176 -0.2443
   51MOL   O56539665   4.059   2.576   3.238 -0.8266 -0.0656  0.2369
   51MOL   O56639666   4.156   2.501   3.054 -0.2469  0.0272  0.0809
   51MOL   C56739667   4.279   2.754   3.009  0.0074 -0.3978  0.1784
   51MOL   C56839668   4.366   2.866   3.004 -0.2511  0.5680  1.1006
   51MOL   H56939669   4.464   3.088   2.748 -0.3492  1.6639  0.2798
   51MOL   H57039670   4.626   3.104   2.694 -0.5010 -0.4579 -0.5247
   51MOL   H57139671   4.488   3.167   2.528 -1.7689 -0.0432  0.0070
   51MOL   H57239672   4.415   3.291   2.636  0.1568  0.4629  1.3465
   51MOL   H57339673   4.717   3.286   2.548 -0.7368 -0.0699  1.4927
   51MOL   H57439674   4.501   3.470   2.457 -0.8985 -1.2871 -0.4272
   51MOL   H57539675   4.660   3.468   2.403  0.2993 -0.9461 -0.7866
   51MOL   H57639676   4.749   3.492   2.663  0.2379 -0.0355 -1.0770
   51MOL   H57739677   4.583   3.506   2.700  2.5397  2.6204 -0.5142
   51MOL   H57839678   4.717   3.425   2.887 -1.3727  1.9192 -0.4452
   51MOL   H57939679   4.782   3.293   2.780  0.7805  0.2438  1.3028
   51MOL   H58039680   4.496   3.297   2.894 -1.2560 -1.0917  0.2625
   51MOL   H58139681   4.747   3.126   2.918 -0.2988 -1.1472 -0.7509
   51MOL   H58239682   4.662   3.229   3.042  0.5750 -1.9742  2.1993
   51MOL   H58339683   4.377   2.939   3.334  0.1679 -1.7939  0.9269
   51MOL   H58439684   4.225   2.754   3.342  0.0272  1.0596 -0.3997
   51MOL   H58539685   4.256   2.710   2.913 -1.0099  1.6894 -0.5665
   51MOL   H58639686   4.408   2.902   2.911 -0.4916 -0.7934  0.4657
   51MOL   C58739687   3.789   2.147   3.259  0.2318 -0.2351 -0.1829
   51MOL   C58839688   3.915   2.231   3.231  0.1113 -0.2452 -0.7284
   51MOL   C58939689   3.983   2.175   3.097 -0.5123 -0.5454  0.0158
   51MOL   C59039690   4.096   2.274   3.068 -0.4716  0.3702 -0.3720
   51MOL   O59139691   4.043   2.404   3.039  0.6983  0.7050 -0.1773
   51MOL   C59239692   4.025   2.028   3.130  0.2082 -0.5153 -1.2180
   51MOL   C59339693   3.903   1.945   3.140  0.5209  0.1527 -0.3455
   51MOL   C59439694   3.814   1.990   3.264 -0.5143 -0.9335 -0.3368
   51MOL   C59539695   3.688   1.902   3.274  0.0394 -0.4237  0.4182
   51MOL   O59639696   3.728   1.769   3.319 -0.0340 -0.3268  0.6899
   51MOL   C59739697   3.701   1.661   3.243  0.9624  0.7936 -0.1806
   51MOL   O59839698   3.657   1.666   3.130  0.0872 -0.2541  0.1375
   51MOL   C59939699   3.742   1.532   3.314 -0.0204 -0.2594 -0.1978
   51MOL   C60039700   3.805   1.438   3.235 -0.2251 -0.1794  0.0650
   51MOL   C60139701   3.857   1.320   3.286 -0.8751 -1.0311  0.7643
   51MOL   C60239702   3.847   1.299   3.423 -0.3265  0.7627 -0.6992
   51MOL   C60339703   3.881   1.170   3.481  0.8822  0.3337  0.0922
   51MOL   O60439704   3.905   1.159   3.600 -0.3071 -0.1248 -0.2815
   51MOL   O60539705   3.894   1.069   3.396  0.6734  1.0321 -0.1164
   51MOL   C60639706   3.781   1.391   3.506  0.3738  0.0671  0.0807
   51MOL   C60739707   3.735   1.515   3.453  1.0025  0.6459  0.9098
   51MOL   H60839708   3.750   2.186   3.353 -0.2201  0.9316 -0.8449
   51MOL   H60939709   3.711   2.176   3.188  0.9734 -0.7436 -1.2305
   51MOL   H61039710   3.897   2.337   3.215 -2.0580 -0.1960  1.8782
   51MOL   H61139711   3.976   2.218   3.320 -2.4506 -0.4381  1.0409
   51MOL   H61239712   3.919   2.175   3.008 -3.0640 -2.4435  1.7723
   51MOL   H61339713   4.165   2.271   3.153 -1.4317 -1.4335  0.3676
   51MOL   H61439714   4.157   2.230   2.989 -0.3376  1.5652 -0.9519
   51MOL   H61539715   4.076   1.987   3.043  1.7767 -1.9137  0.3247
   51MOL   H61639716   4.086   2.014   3.219 -1.7147 -0.4512  0.1398
   51MOL   H61739717   3.917   1.839   3.162 -1.7731  0.1437  1.2634
   51MOL   H61839718   3.844   1.954   3.049 -2.7893  0.3472  1.7167
   51MOL   H61939719   3.862   1.969   3.359 -0.9411 -0.0738  0.0771
   51MOL   H62039720   3.615   1.932   3.349  0.1393  2.5704 -0.6357
   51MOL   H62139721   3.642   1.907   3.176  2.7317  1.2376 -0.8230
   51MOL   H62239722   3.813   1.456   3.129 -0.8079  0.3202  0.1087
   51MOL   H62339723   3.916   1.252   3.226  0.2904  0.2733  0.3639
   51MOL   H62439724   3.750   1.363   3.605  0.1108 -2.4337 -0.6850
   51MOL   H62539725   3.687   1.584   3.521 -0.3568  1.4827 -0.8565
   51MOL   C62639726   4.170   0.602   3.523  0.4284 -0.4596 -0.3581
   51MOL   C62739727   4.058   0.680   3.452 -0.6468 -0.6126  0.2633
   51MOL   C62839728   3.986   0.760   3.557  0.6042 -0.0232  0.3278
   51MOL   C62939729   3.888   0.852   3.490  0.0713 -0.0874 -0.3819
   51MOL   O63039730   3.970   0.957   3.447  0.5870  0.6083 -0.0652
   51MOL   C63139731   3.924   0.673   3.661 -0.0206  0.0053 -0.8429
   51MOL   C63239732   4.023   0.574   3.731  0.0998 -0.2063  0.5840
   51MOL   C63339733   4.116   0.500   3.625  0.4230  0.1101  0.0025
   51MOL   C63439734   4.229   0.416   3.695 -0.2206  0.1232 -0.3190
   51MOL   O63539735   4.298   0.353   3.593 -0.5014 -0.0514  0.4814
   51MOL   C63639736   4.351   0.230   3.603 -0.2834 -0.1500  0.1186
   51MOL   O63739737   4.327   0.151   3.698  0.0565  0.4922  0.2016
   51MOL   C63839738   4.431   0.190   3.487  0.5380 -0.2976  0.0551
   51MOL   C63939739   4.423   0.261   3.363  0.0635 -0.3565 -0.1743
   51MOL   C64039740   4.487   0.215   3.250 -0.7366 -0.3353 -0.0373
   51MOL   C64139741   4.580   0.104   3.259  0.0869 -0.8332 -0.5894
   51MOL   C64239742   4.640   0.059   3.137 -0.0157  0.3633 -0.4125
   51MOL   O64339743   4.732   8.012   3.133 -0.0552  0.1441  0.3242
   51MOL   O64439744   4.608   0.126   3.027 -0.0050  0.0466 -0.0623
   51MOL   C64539745   4.597   0.042   3.385 -0.1515 -0.1977  0.0106
   51MOL   C64639746   4.523   0.089   3.496  0.1687  0.3429 -0.4032
   51MOL   H64739747   4.236   0.551   3.453 -0.2706 -0.0235 -1.3504
   51MOL   H64839748   4.235   0.673   3.575 -0.0937 -0.7733  0.7392
   51MOL   H64939749   4.114   0.744   3.385 -0.3927 -1.1730 -0.0614
   51MOL   H65039750   3.997   0.613   3.391  0.8269 -4.1747  2.5048
   51MOL   H65139751   4.063   0.818   3.609  3.4312 -0.1016 -3.5581
   51MOL   H65239752   3.848   0.808   3.399 -1.3445 -1.2595  0.7885
   51MOL   H65339753   3.809   0.882   3.559 -0.5967  0.4727 -1.3814
   51MOL   H65439754   3.885   0.739   3.738 -2.4150 -1.7377 -0.5009
   51MOL   H65539755   3.837   0.619   3.622 -0.0592  0.4959 -1.4339
   51MOL   H65639756   3.962   0.506   3.791 -0.3221  2.5536  3.4233
   51MOL   H65739757   4.087   0.624   3.804  0.0529 -1.6215  1.6300
   51MOL   H65839758   4.053   0.429   3.572  3.4890 -0.9108 -2.4017
   51MOL   H65939759   4.297   0.474   3.757 -1.8254 -0.2034  1.7762
   51MOL   H66039760   4.186   0.348   3.768 -1.7607  0.2565 -1.0674
   51MOL   H66139761   4.365   0.351   3.348  1.7659  0.6968 -0.7113
   51MOL   H66239762   4.474   0.265   3.155  0.1541 -1.5305 -0.7997
   51MOL   H66339763   4.666   7.997   3.407  0.3540  0.5536  1.1669
   51MOL   H66439764   4.543   0.046   3.593  2.6660  1.3738 -0.4216
   51MOL   C66539765   5.036   8.017   2.601 -0.5381  0.2363  0.2131
   51MOL   C66639766   4.998   0.051   2.739 -0.6335  0.1938 -0.3213
   51MOL   C66739767   4.844   0.052   2.755  0.3988  0.2837 -0.1919
   51MOL   C66839768   4.780   0.142   2.868 -0.5437  0.6444 -0.2094
   51MOL   O66939769   4.665   0.069   2.902 -0.2179 -0.0942  0.2358
   51MOL   C67039770   4.776   0.088   2.618 -0.3469  0.2887 -0.9245
   51MOL   C67139771   4.819   0.017   2.494 -0.4388  0.4069  0.6388
   51MOL   C67239772   4.968   0.033   2.476  0.0822 -0.3470  0.6440
   51MOL   C67339773   5.009   7.986   2.351  0.1199  0.1201  0.0149
   51MOL   O67439774   4.978   7.852   2.364  0.1441  0.0968 -0.2190
   51MOL   C67539775   5.041   7.757   2.288 -0.0596 -0.4136 -0.5755
   51MOL   O67639776   5.127   7.783   2.201  0.0703 -0.3942 -0.2211
   51MOL   C67739777   5.007   7.621   2.326 -0.1477 -0.1433  0.1678
   51MOL   C67839778   4.920   7.592   2.436 -0.1750  0.6854 -0.9130
   51MOL   C67939779   4.905   7.459   2.480 -0.0465  0.0033 -0.2835
   51MOL   C68039780   4.957   7.346   2.412 -0.7048  0.5329  0.0114
   51MOL   C68139781   4.939   7.206   2.469  0.6405  0.0716 -0.1665
   51MOL   O68239782   4.875   7.184   2.567 -0.2834  0.3302 -0.4602
   51MOL   O68339783   4.999   7.114   2.410 -0.6959 -0.5994 -0.5775
   51MOL   C68439784   5.026   7.374   2.290  0.8380 -0.0687  0.1610
   51MOL   C68539785   5.048   7.508   2.250 -0.4346  0.2887 -0.0915
   51MOL   H68639786   5.140   0.013   2.590 -0.2537 -0.7280  0.1035
   51MOL   H68739787   5.026   7.911   2.624  1.4578  0.4571  2.3516
   51MOL   H68839788   5.046   0.001   2.823  2.4757  0.9560 -1.5639
   51MOL   H68939789   5.028   0.156   2.739  1.5339 -0.3917  0.6654
   51MOL   H69039790   4.820   7.984   2.777 -0.9168  0.6247  0.0068
   51MOL   H69139791   4.845   0.157   2.954 -0.1034  0.6097 -0.5380
   51MOL   H69239792   4.749   0.240   2.834 -1.1181  0.2400 -0.8751
   51MOL   H69339793   4.668   0.080   2.629 -0.2840  1.4518  0.7955
   51MOL   H69439794   4.785   0.195   2.598  0.4328  0.3812 -0.1658
   51MOL   H69539795   4.776   0.068   2.408 -3.7352 -3.1656  0.0610
   51MOL   H69639796   4.788   7.949   2.509 -0.9026  0.8211  2.7061
   51MOL   H69739797   4.991   0.137   2.455  2.5848 -0.9302  0.3829
   51MOL   H69839798   4.936   8.022   2.278  0.0403  1.9188  0.9585
   51MOL   H69939799   5.113   8.014   2.334  0.1703 -0.1508 -0.1380
   51MOL   H70039800   4.883   7.679   2.488  1.7279  1.2349 -0.4463
   51MOL   H70139801   4.857   7.446   2.576 -3.8217  3.2116 -1.5807
   51MOL   H70239802   5.059   7.290   2.230  0.2540 -0.6243  0.6006
   51MOL   H70339803   5.109   7.510   2.161  0.4941 -2.1738  0.4355
   51MOL   C70439804   5.201   6.547   2.583  0.1414 -0.7352 -0.6674
   51MOL   C70539805   5.210   6.696   2.564 -0.1136  0.8802 -0.8470
   51MOL   C70639806   5.075   6.763   2.529 -0.4172 -0.2680 -0.3066
   51MOL   C70739807   5.083   6.914   2.518 -0.1000  0.5629  0.2387
   51MOL   O70839808   4.968   6.965   2.454 -0.2822  0.0318 -0.3714
   51MOL   C70939809   5.025   6.691   2.403  0.2110 -0.7101  0.2509
   51MOL   C71039810   5.021   6.537   2.408 -0.2145  0.6048 -0.0530
   51MOL   C71139811   5.158   6.472   2.456  0.1809 -0.4103 -0.3548
   51MOL   C71239812   5.143   6.327   2.496  0.0936 -0.0276 -0.3841
   51MOL   O71339813   5.100   6.253   2.384 -0.0897  0.1181 -0.5906
   51MOL   C71439814   5.184   6.185   2.305 -0.5130  0.1412 -0.0610
   51MOL   O71539815   5.308   6.202   2.302 -0.3130 -0.6822 -0.1651
   51MOL   C71639816   5.121   6.081   2.213 -0.0828 -0.2887 -0.1514
   51MOL   C71739817   4.984   6.041   2.226  0.0531  1.1036  0.3046
   51MOL   C71839818   4.929   5.956   2.129  0.0175  0.5932 -0.4888
   51MOL   C71939819   5.007   5.897   2.029  0.0812 -0.2489  0.2251
   51MOL   C72039820   4.962   5.789   1.935  0.2081  0.7198  0.6541
   51MOL   O72139821   4.998   5.782   1.821  0.5414 -0.5175 -0.1664
   51MOL   O72239822   4.883   5.702   1.994  1.0505 -0.0052  0.1046
   51MOL   C72339823   5.143   5.940   2.017  0.4379 -0.1361  0.2972
   51MOL   C72439824   5.199   6.036   2.105  0.3406 -0.1752 -0.1335
   51MOL   H72539825   5.298   6.511   2.618  0.2709 -0.6312 -0.9176
   51MOL   H72639826   5.125   6.520   2.656 -0.3929 -2.5057 -1.8480
   51MOL   H72739827   5.262   6.742   2.648 -0.4758 -1.7976  0.9112
   51MOL   H72839828   5.259   6.716   2.469  0.2984  0.9901 -0.6115
   51MOL   H72939829   5.006   6.748   2.612 -1.8116 -0.1598 -1.4351
   51MOL   H73039830   5.091   6.947   2.622 -1.7976 -0.6487  0.7831
   51MOL   H73139831   5.169   6.950   2.462 -1.5531  1.1883 -1.6650
   51MOL   H73239832   4.921   6.717   2.382  0.7329  0.0679 -1.4450
   51MOL   H73339833   5.082   6.721   2.315  0.1439 -1.1794  0.0495
   51MOL   H73439834   4.984   6.487   2.319 -1.0849  0.9040  0.1337
   51MOL   H73539835   4.950   6.508   2.486 -1.2370 -0.9378 -1.5138
   51MOL   H73639836   5.233   6.490   2.378  2.9030  0.7657  2.4426
   51MOL   H73739837   5.234   6.285   2.540  0.5280 -0.2948 -1.5277
   51MOL   H73839838   5.064   6.317   2.571  0.4135  0.0033 -0.0392
   51MOL   H73939839   4.915   6.082   2.299 -1.2652  2.5346 -1.6880
   51MOL   H74039840   4.823   5.934   2.138  0.1564 -0.1839 -0.6891
   51MOL   H74139841   5.205   5.909   1.934  1.2443 -2.7253  1.7778
   51MOL   H74239842   5.296   6.080   2.088  0.2108  0.9779  1.9924
   51MOL   C74339843   5.040   5.293   2.238 -0.0097  0.0585 -0.0710
   51MOL   C74439844   5.053   5.357   2.096 -0.4089  0.6043 -0.1189
   51MOL   C74539845   4.929   5.429   2.064  0.7316 -0.2373 -0.5097
   51MOL   C74639846   4.944   5.478   1.919  0.5599 -0.4452  0.6154
   51MOL   O74739847   4.846   5.584   1.902 -0.2395  0.3017  0.1408
   51MOL   C74839848   4.795   5.350   2.087  0.0305  0.1687 -0.5133
   51MOL   C74939849   4.790   5.285   2.225  0.3959 -0.2963  0.6031
   51MOL   C75039850   4.918   5.206   2.264 -0.3989  0.3280 -0.3446
   51MOL   C75139851   4.921   5.166   2.407 -0.0078 -0.0864  0.0208
   51MOL   O75239852   4.814   5.077   2.428 -0.4728  0.6757  0.1475
   51MOL   C75339853   4.804   5.005   2.537 -0.6787 -0.7093 -0.1246
   51MOL   O75439854   4.884   5.019   2.634  0.3546  0.1589 -0.4411
   51MOL   C75539855   4.710   4.893   2.517  0.1615  0.4683 -0.3881
   51MOL   C75639856   4.607   4.894   2.418  0.0078  0.2534 -0.3755
   51MOL   C75739857   4.522   4.784   2.389  0.2324 -0.3117 -0.2304
   51MOL   C75839858   4.527   4.662   2.470 -0.6924 -0.3335  0.6133
   51MOL   C75939859   4.447   4.538   2.431 -0.1603  0.0934 -0.3979
   51MOL   O76039860   4.369   4.521   2.341  0.0020  0.4002  0.3108
   51MOL   O76139861   4.473   4.439   2.527 -0.5157  0.2466 -0.0190
   51MOL   C76239862   4.618   4.664   2.580 -0.6769  0.7618  0.5884
   51MOL   C76339863   4.711   4.774   2.600 -0.0620 -0.2739  0.1784
   51MOL   H76439864   5.132   5.235   2.251 -0.3335 -0.5869 -0.6587
   51MOL   H76539865   5.031   5.378   2.307  0.1604  0.3973 -0.4666
   51MOL   H76639866   5.136   5.427   2.105  0.7683 -0.9986  1.8088
   51MOL   H76739867   5.081   5.279   2.025 -0.3954 -0.2403  0.7974
   51MOL   H76839868   4.933   5.510   2.136  1.7771  1.4677 -2.4239
   51MOL   H76939869   5.042   5.514   1.888 -0.6983  1.6065 -1.1685
   51MOL   H77039870   4.915   5.402   1.847  0.9524  0.6046 -0.6852
   51MOL   H77139871   4.707   5.412   2.068  0.2472  0.5836 -0.1659
   51MOL   H77239872   4.793   5.262   2.022 -0.1225  0.6196 -1.1239
   51MOL   H77339873   4.709   5.212   2.225  0.5146 -0.4481  1.8895
   51MOL   H77439874   4.758   5.349   2.308 -0.1861 -2.0978  1.7896
   51MOL   H77539875   4.914   5.116   2.203 -1.3827  0.3848 -0.3732
   51MOL   H77639876   5.016   5.124   2.439 -0.1717 -1.7647 -1.6510
   51MOL   H77739877   4.904   5.243   2.482 -2.0211  0.4615 -0.9553
   51MOL   H77839878   4.593   4.981   2.355  3.3739  1.3566  0.3387
   51MOL   H77939879   4.454   4.797   2.306  0.2153 -0.3596 -0.2248
   51MOL   H78039880   4.632   4.572   2.635  2.6697 -0.5039 -2.1944
   51MOL   H78139881   4.785   4.765   2.678  0.0695 -1.9083 -0.1088
   51MOL   H78239882   4.463   4.357   2.481 -0.9735 -0.0040  0.5232
   52MOL     C139883   0.498   1.358   2.277 -0.1557  0.2776  0.5355
   52MOL     C239884   0.355   1.375   2.239  0.4482  0.0143  0.1494
   52MOL     C339885   0.250   1.303   2.333  0.2630  0.1606  0.3261
   52MOL     C439886   0.103   1.322   2.280 -0.2455  0.9163  0.4948
   52MOL     O539887   0.098   1.261   2.151 -0.2032 -0.9738 -0.4708
   52MOL     C639888   0.295   1.153   2.328  0.1360  0.1143 -0.7081
   52MOL     C739889   0.451   1.124   2.363  0.5433  0.0950  0.7617
   52MOL     C839890   0.537   1.206   2.267  0.6167  0.0775  0.0041
   52MOL     C939891   0.687   1.183   2.276 -0.3400  0.3617 -0.0107
   52MOL    O1039892   0.747   1.262   2.176 -0.2521  0.1237 -0.0568
   52MOL    C1139893   0.782   1.217   2.055 -0.5371 -0.6195 -0.2222
   52MOL    O1239894   0.740   1.110   2.002 -0.4213  0.0986  0.3804
   52MOL    C1339895   0.880   1.314   1.991  0.3122 -0.3248  0.2931
   52MOL    C1439896   0.932   1.279   1.859  0.0125  0.5596 -0.3556
   52MOL    C1539897   1.007   1.368   1.787  0.6301 -0.4601  0.0508
   52MOL    C1639898   1.058   1.488   1.848 -0.4228  0.7782  0.0475
   52MOL    C1739899   1.150   1.580   1.777  0.5685 -0.4081  0.3823
   52MOL    O1839900   1.223   1.656   1.842  0.2427 -0.5982 -0.2420
   52MOL    O1939901   1.142   1.574   1.643  0.2935 -0.8727  0.4141
   52MOL    C2039902   1.022   1.513   1.986  0.2780  0.2019 -0.5772
   52MOL    C2139903   0.930   1.429   2.056 -0.6865 -0.3811 -0.3136
   52MOL    H2239904   0.556   1.424   2.212  1.8983 -2.1752 -0.2188
   52MOL    H2339905   0.519   1.402   2.375  0.4448  1.0105  0.0821
   52MOL    H2439906   0.331   1.480   2.257  1.5920  0.3359 -0.1617
   52MOL    H2539907   0.335   1.357   2.134  0.9201  0.8182 -0.0840
   52MOL    H2639908   0.263   1.347   2.432  1.8436  1.5175 -0.4626
   52MOL    H2739909   0.033   1.278   2.351  1.1192 -0.3051  1.1035
   52MOL    H2839910   0.093   1.431   2.279 -0.0422  0.9361 -1.5072
   52MOL    H2939911   0.243   1.096   2.404  1.3554 -1.0248 -0.7059
   52MOL    H3039912   0.268   1.111   2.231  2.0206  1.7289 -1.9918
   52MOL    H3139913   0.464   1.018   2.343 -1.9119  0.0874 -1.0457
   52MOL    H3239914   0.473   1.147   2.467 -1.2576 -0.4854  1.2874
   52MOL    H3339915   0.507   1.169   2.169  2.1502 -2.0103  0.3084
   52MOL    H3439916   0.733   1.217   2.369  0.3978 -0.0390 -0.2230
   52MOL    H3539917   0.711   1.078   2.264  0.7467  0.5568  0.4584
   52MOL    H3639918   0.912   1.187   1.806 -1.9047 -0.6799  2.3825
   52MOL    H3739919   1.059   1.345   1.695  0.8857  0.5118 -0.0611
   52MOL    H3839920   1.058   1.602   2.036 -0.8242  0.1706  0.2932
   52MOL    H3939921   0.899   1.451   2.157 -1.7384  0.5418 -0.8407
   52MOL    H4039922   0.009   1.271   2.119 -0.2186 -0.1189 -0.1821
   52MOL    C4139923   1.428   2.053   1.551  0.2050  0.8371 -0.2067
   52MOL    C4239924   1.343   1.923   1.592 -0.5098 -0.1511 -0.3973
   52MOL    C4339925   1.229   1.896   1.490 -0.2253 -0.3548 -0.3409
   52MOL    C4439926   1.137   1.789   1.539 -0.4758  0.4502 -0.0463
   52MOL    O4539927   1.216   1.678   1.564 -0.8303 -0.6744  0.4962
   52MOL    C4639928   1.157   2.027   1.449  0.0468  0.5719  0.0712
   52MOL    C4739929   1.253   2.141   1.412 -1.0138 -0.2225 -0.0588
   52MOL    C4839930   1.353   2.179   1.523  0.8593 -0.1777 -0.2537
   52MOL    C4939931   1.441   2.302   1.481 -0.0538  0.3134 -0.5257
   52MOL    O5039932   1.535   2.331   1.584  0.2365  0.4229  0.0205
   52MOL    C5139933   1.643   2.398   1.558  0.1493 -0.1892 -0.1904
   52MOL    O5239934   1.651   2.477   1.468 -0.3047 -0.2395  0.0193
   52MOL    C5339935   1.756   2.350   1.650 -0.0392 -0.0838  0.2044
   52MOL    C5439936   1.885   2.388   1.625 -0.2281  0.7420  0.1769
   52MOL    C5539937   1.995   2.332   1.698 -0.0084  0.2773  0.5675
   52MOL    C5639938   1.975   2.233   1.795  0.1826 -0.5972 -0.4690
   52MOL    C5739939   2.085   2.175   1.879 -0.0439  0.0463 -0.1871
   52MOL    O5839940   2.203   2.206   1.884  0.9381 -0.0667 -0.1231
   52MOL    O5939941   2.040   2.082   1.959 -0.1638  0.2269  0.4755
   52MOL    C6039942   1.843   2.194   1.814  0.6471 -0.3998 -0.1478
   52MOL    C6139943   1.733   2.250   1.748 -0.0547  0.2888 -0.5826
   52MOL    H6239944   1.486   2.076   1.641  1.7923  0.8578 -1.2086
   52MOL    H6339945   1.512   2.046   1.482  1.0034  0.6869  0.7664
   52MOL    H6439946   1.412   1.840   1.601 -0.3772 -0.0567 -0.5359
   52MOL    H6539947   1.302   1.948   1.689 -3.3820 -1.5260 -1.2192
   52MOL    H6639948   1.299   1.858   1.416 -0.4780 -0.3385 -0.5868
   52MOL    H6739949   1.094   1.818   1.636 -0.0244  1.7269 -0.2134
   52MOL    H6839950   1.061   1.772   1.463 -0.4096  0.1129 -0.0337
   52MOL    H6939951   1.089   2.008   1.366  1.0387  1.0178 -0.8573
   52MOL    H7039952   1.099   2.048   1.539 -0.5146 -0.9541  0.0802
   52MOL    H7139953   1.191   2.227   1.388  0.5114  0.8600 -0.2095
   52MOL    H7239954   1.307   2.125   1.318 -0.0417  0.3125  0.4026
   52MOL    H7339955   1.288   2.202   1.608  1.8266  1.5696  0.0461
   52MOL    H7439956   1.492   2.273   1.390  0.3923 -3.1274  0.7439
   52MOL    H7539957   1.386   2.394   1.459  0.7687  0.9233 -0.0512
   52MOL    H7639958   1.916   2.465   1.556  0.2960  1.7016  1.4502
   52MOL    H7739959   2.091   2.380   1.690  0.3589 -0.4593  0.5268
   52MOL    H7839960   1.820   2.117   1.886  0.2611  0.7175  0.9360
   52MOL    H7939961   1.635   2.209   1.762  1.0242 -2.5997 -1.2534
   52MOL    C8039962   2.015   2.060   2.505 -0.4492  0.5683 -0.2624
   52MOL    C8139963   2.110   2.084   2.391  0.2659  0.0840  0.3922
   52MOL    C8239964   2.060   2.043   2.257 -0.3895  0.0305  0.1994
   52MOL    C8339965   2.172   2.056   2.152 -0.1538 -0.1139 -0.0143
   52MOL    O8439966   2.139   1.998   2.029 -0.6918 -0.6231 -0.0447
   52MOL    C8539967   2.024   1.889   2.272 -0.0179 -0.3111 -0.6713
   52MOL    C8639968   1.929   1.859   2.387 -0.2151  0.0864 -0.1681
   52MOL    C8739969   1.981   1.908   2.523  0.4754 -0.0500 -0.2290
   52MOL    C8839970   1.872   1.880   2.632  0.1713  0.1117 -0.2516
   52MOL    O8939971   1.836   1.751   2.652  0.0749 -0.5268 -0.3544
   52MOL    C9039972   1.730   1.720   2.725 -0.2166  0.4424 -0.0004
   52MOL    O9139973   1.645   1.804   2.759  0.6081 -0.2308  0.5563
   52MOL    C9239974   1.723   1.580   2.761 -0.0392  0.7856 -0.5374
   52MOL    C9339975   1.834   1.491   2.741  0.3001  0.0131  0.4933
   52MOL    C9439976   1.825   1.357   2.780  0.4698  0.3237  0.1894
   52MOL    C9539977   1.702   1.298   2.825 -0.0717  0.0142  0.1513
   52MOL    C9639978   1.701   1.148   2.853 -0.8205 -0.2157  0.0775
   52MOL    O9739979   1.800   1.072   2.867 -0.4845  0.1873  0.1609
   52MOL    O9839980   1.575   1.107   2.872  0.4483  0.3753 -0.0902
   52MOL    C9939981   1.591   1.382   2.842  0.4818 -0.3545  0.2143
   52MOL   C10039982   1.605   1.523   2.823 -0.6387  0.4823 -0.0986
   52MOL   H10139983   2.062   2.090   2.599 -1.0232 -1.1419  0.6079
   52MOL   H10239984   1.931   2.127   2.492 -0.9138  0.7267  3.0113
   52MOL   H10339985   2.134   2.191   2.386  0.0986  0.2838  3.2484
   52MOL   H10439986   2.195   2.018   2.404  0.0178 -0.6112 -1.3883
   52MOL   H10539987   1.978   2.106   2.223 -0.7537  0.1131  1.2216
   52MOL   H10639988   2.178   2.165   2.147  2.6536 -0.0951  2.3132
   52MOL   H10739989   2.272   2.021   2.176 -0.7177  1.2722  4.9162
   52MOL   H10839990   1.996   1.857   2.172  0.9137 -0.8508 -0.7582
   52MOL   H10939991   2.110   1.828   2.300 -1.2607 -1.2883  1.1762
   52MOL   H11039992   1.924   1.753   2.413 -1.9242  0.3959  0.8560
   52MOL   H11139993   1.829   1.889   2.357 -0.8346 -1.9254 -0.1500
   52MOL   H11239994   2.072   1.852   2.542  1.3898  1.1453 -0.9851
   52MOL   H11339995   1.911   1.926   2.723 -2.1465 -1.6400  1.6465
   52MOL   H11439996   1.784   1.936   2.601  0.6616  0.0284 -1.8691
   52MOL   H11539997   1.926   1.524   2.696  1.8244 -4.6530 -0.0761
   52MOL   H11639998   1.912   1.294   2.768  0.7108  0.7320 -0.2036
   52MOL   H11739999   1.494   1.347   2.873  0.2152  0.4450  0.2911
   52MOL   H11840000   1.524   1.594   2.834  1.2360  2.6954 -0.1782
   52MOL   C11940001   1.829   0.606   2.910 -0.1919  0.0739 -0.5519
   52MOL   C12040002   1.780   0.748   2.918  0.1594 -0.8881  0.1331
   52MOL   C12140003   1.633   0.765   2.966  0.2798  0.1668 -0.0502
   52MOL   C12240004   1.582   0.911   2.981  0.4500  0.6649  0.4728
   52MOL   O12340005   1.558   0.966   2.849 -0.5922  0.4804  0.7637
   52MOL   C12440006   1.538   0.675   2.886 -0.2430 -0.2520  0.9122
   52MOL   C12540007   1.590   0.534   2.867  0.2064  0.1210  0.3903
   52MOL   C12640008   1.737   0.537   2.809 -0.0629 -0.0804  0.2661
   52MOL   C12740009   1.790   0.392   2.775 -0.3340 -0.6848  0.0921
   52MOL   O12840010   1.690   0.316   2.713 -0.0185 -0.0393 -0.1546
   52MOL   C12940011   1.679   0.320   2.577  0.3715  0.3106 -0.4008
   52MOL   O13040012   1.759   0.368   2.504  0.2755  0.0719  0.2233
   52MOL   C13140013   1.549   0.261   2.533  0.4123 -0.7446  0.1156
   52MOL   C13240014   1.512   0.265   2.394 -0.1900  0.6170  0.2358
   52MOL   C13340015   1.394   0.220   2.343 -0.5545  0.3081  0.6281
   52MOL   C13440016   1.295   0.170   2.435  0.3341  0.2486  0.5900
   52MOL   C13540017   1.164   0.128   2.379  0.3227  0.8181  0.1803
   52MOL   O13640018   1.137   0.131   2.258  0.3497  0.5527 -0.0895
   52MOL   O13740019   1.081   0.097   2.476  0.1315 -0.4142 -0.4834
   52MOL   C13840020   1.323   0.177   2.577 -0.6170 -0.2479  0.2631
   52MOL   C13940021   1.453   0.212   2.627 -0.1140 -0.2405 -0.0703
   52MOL   H14040022   1.932   0.609   2.875  0.2645  1.5165  0.8518
   52MOL   H14140023   1.832   0.555   3.006  0.8158  3.0195  1.0555
   52MOL   H14240024   1.836   0.817   2.982 -0.5941  0.3974 -0.5634
   52MOL   H14340025   1.773   0.795   2.820  0.4408  1.0019  0.9922
   52MOL   H14440026   1.633   0.731   3.070 -0.1561  1.9532  0.5560
   52MOL   H14540027   1.494   0.914   3.045 -0.1145  2.3785 -0.3357
   52MOL   H14640028   1.655   0.969   3.037 -0.3696  1.6861  0.5049
   52MOL   H14740029   1.443   0.668   2.939  0.6026  0.0087  2.4633
   52MOL   H14840030   1.514   0.724   2.791  1.9296  0.5361  0.7527
   52MOL   H14940031   1.514   0.479   2.811 -1.1418  2.8259 -0.5102
   52MOL   H15040032   1.595   0.488   2.966  0.1501 -0.1523  0.2656
   52MOL   H15140033   1.735   0.602   2.722 -0.8027  0.7170  0.8706
   52MOL   H15240034   1.883   0.402   2.718 -0.3753 -0.3416  0.0850
   52MOL   H15340035   1.823   0.348   2.869 -0.8410 -1.5876 -0.1527
   52MOL   H15440036   1.595   0.287   2.328  0.3606 -2.3221 -0.1494
   52MOL   H15540037   1.384   0.213   2.236 -0.8642 -1.2684  0.7575
   52MOL   H15640038   1.240   0.158   2.644 -0.4765  1.4754  0.9526
   52MOL   H15740039   1.470   0.214   2.734  1.7332  0.1367 -0.3502
   52MOL   C15840040   0.649   0.067   2.106  0.2314  0.0585 -0.1003
   52MOL   C15940041   0.766   0.113   2.191  0.1757 -0.1252 -0.9884
   52MOL   C16040042   0.719   0.128   2.338 -0.6201  0.2923 -0.5438
   52MOL   C16140043   0.841   0.165   2.426  0.0484  0.1693  0.1917
   52MOL   O16240044   0.939   0.056   2.429 -0.7393  0.5691 -0.1670
   52MOL   C16340045   0.605   0.232   2.356  0.0081 -0.3818 -0.2155
   52MOL   C16440046   0.482   0.200   2.266 -0.0189 -0.6411  0.2108
   52MOL   C16540047   0.522   0.161   2.125  0.3832 -0.1224  0.9108
   52MOL   C16640048   0.399   0.102   2.054 -0.5536  0.3131 -0.0176
   52MOL   O16740049   0.436   0.114   1.922  0.1706  0.3207 -0.1586
   52MOL   C16840050   0.383   0.205   1.834 -0.3769 -0.1856  0.1210
   52MOL   O16940051   0.294   0.290   1.862  0.2677  0.0661  0.0862
   52MOL   C17040052   0.452   0.202   1.702 -0.1821  0.1767 -0.5230
   52MOL   C17140053   0.543   0.099   1.666  0.2946 -0.1540  0.6253
   52MOL   C17240054   0.602   0.103   1.540  0.4475  0.7546 -0.7298
   52MOL   C17340055   0.582   0.209   1.453  0.9611  0.3417 -0.1940
   52MOL   C17440056   0.654   0.214   1.324  0.7902 -1.0674 -0.5080
   52MOL   O17540057   0.707   0.117   1.276 -0.0445 -0.3298 -0.2426
   52MOL   O17640058   0.648   0.337   1.265  0.1921  0.1676  0.3603
   52MOL   C17740059   0.479   0.306   1.482 -0.3913 -0.5229 -0.3124
   52MOL   C17840060   0.417   0.301   1.607  0.4467  0.2516  0.0085
   52MOL   H17940061   0.687   0.060   2.004  1.4193 -1.5355  0.4201
   52MOL   H18040062   0.618   8.002   2.135  0.2937 -0.3543 -1.4106
   52MOL   H18140063   0.843   0.035   2.189 -1.9375 -2.2270 -1.6932
   52MOL   H18240064   0.818   0.195   2.141  2.0437  0.8273  2.3282
   52MOL   H18340065   0.684   0.032   2.374 -1.4205  1.0756  0.7874
   52MOL   H18440066   0.887   0.258   2.392  0.2231  0.3217  0.8283
   52MOL   H18540067   0.805   0.182   2.528 -1.1833  2.9094 -0.6439
   52MOL   H18640068   0.564   0.244   2.456  1.2883  1.3677  0.1336
   52MOL   H18740069   0.649   0.329   2.332  0.9979 -0.5083  1.0308
   52MOL   H18840070   0.409   0.280   2.254 -0.4955 -0.9480  1.0342
   52MOL   H18940071   0.425   0.114   2.301 -1.5249 -0.0310 -0.7014
   52MOL   H19040072   0.542   0.255   2.074 -1.2056 -0.0847  0.3495
   52MOL   H19140073   0.380   8.033   2.079 -1.8536  0.5777  0.1476
   52MOL   H19240074   0.311   0.158   2.086 -1.6636 -1.6070  0.3967
   52MOL   H19340075   0.560   0.018   1.735 -2.0370 -0.1070  1.3226
   52MOL   H19440076   0.662   0.016   1.519  0.3757  0.3029  0.9210
   52MOL   H19540077   0.446   0.385   1.416 -0.1019  0.5800  0.8516
   52MOL   H19640078   0.339   0.374   1.621  0.2854 -0.1426  1.1503
   52MOL   C19740079   0.608   0.583   0.771 -0.1738 -0.9136  0.0661
   52MOL   C19840080   0.660   0.474   0.864  0.1170 -0.2207 -0.6295
   52MOL   C19940081   0.549   0.411   0.946  0.5801  0.4147 -0.5791
   52MOL   C20040082   0.595   0.300   1.032  0.3141 -0.2840 -0.2203
   52MOL   O20140083   0.700   0.338   1.122 -0.8792  0.5938  0.4581
   52MOL   C20240084   0.465   0.519   1.024  0.5657 -0.1571  0.2160
   52MOL   C20340085   0.436   0.651   0.944  0.4579  0.0788 -0.4202
   52MOL   C20440086   0.543   0.703   0.849 -0.3097  0.2092  0.1552
   52MOL   C20540087   0.493   0.799   0.750  0.1791 -0.4462  0.4270
   52MOL   O20640088   0.595   0.866   0.673 -0.2163  0.3162  0.2825
   52MOL   C20740089   0.652   0.981   0.709 -0.0112  0.0785 -0.6189
   52MOL   O20840090   0.628   1.036   0.815  0.1237  0.3213 -0.1452
   52MOL   C20940091   0.747   1.038   0.609 -0.2304 -0.1084 -0.0328
   52MOL   C21040092   0.836   1.142   0.644  0.4084  0.3071 -0.2151
   52MOL   C21140093   0.915   1.206   0.546 -0.1762 -0.4687  0.3313
   52MOL   C21240094   0.916   1.160   0.413 -0.2660  0.2719  1.1509
   52MOL   C21340095   0.998   1.223   0.304 -0.0827  0.5888  0.1444
   52MOL   O21440096   0.993   1.201   0.181  0.4709 -0.4400  0.0382
   52MOL   O21540097   1.096   1.300   0.355  0.1631  0.1959  0.2378
   52MOL   C21640098   0.842   1.037   0.388 -0.3464  0.0162  0.2984
   52MOL   C21740099   0.759   0.979   0.485 -0.1059 -0.1181  0.1483
   52MOL   H21840100   0.683   0.619   0.701  1.7957 -1.3994  1.8737
   52MOL   H21940101   0.542   0.537   0.697  1.4315  0.7582 -2.4681
   52MOL   H22040102   0.697   0.395   0.798  1.8530 -1.5542  1.8688
   52MOL   H22140103   0.731   0.525   0.928 -0.0359 -0.8806  0.0737
   52MOL   H22240104   0.484   0.361   0.875  0.0734 -0.9200  0.7892
   52MOL   H22340105   0.508   0.262   1.086  0.1413 -0.1121 -0.3819
   52MOL   H22440106   0.630   0.214   0.974  0.7892 -0.3092  0.0975
   52MOL   H22540107   0.366   0.476   1.039  0.1926  1.3483  2.3372
   52MOL   H22640108   0.505   0.549   1.121 -1.0455 -0.7370  1.0661
   52MOL   H22740109   0.400   0.726   1.015  1.6668  0.7250 -0.4755
   52MOL   H22840110   0.355   0.631   0.874  0.1748  0.7853 -0.3025
   52MOL   H22940111   0.617   0.751   0.914  2.4906 -1.8701 -1.3903
   52MOL   H23040112   0.424   0.746   0.684  2.2190 -1.7134 -0.7473
   52MOL   H23140113   0.423   0.872   0.791  1.5478  0.8501  0.5225
   52MOL   H23240114   0.837   1.180   0.746  1.8589  0.3364 -0.2180
   52MOL   H23340115   0.975   1.286   0.587  1.3644 -1.7263  0.5934
   52MOL   H23440116   0.831   0.990   0.291  3.4726 -2.9118  1.1383
   52MOL   H23540117   0.694   0.898   0.454 -0.2640  0.5853 -1.4268
   52MOL   C23640118   1.529   1.583   0.165  0.1042  0.5008 -0.5166
   52MOL   C23740119   1.396   1.545   0.229 -0.1536  0.0168  0.2672
   52MOL   C23840120   1.277   1.525   0.128 -0.0843 -0.0501  0.1315
   52MOL   C23940121   1.149   1.477   0.213 -1.0578  0.3085 -0.7085
   52MOL   O24040122   1.185   1.342   0.245 -0.4473  0.2697  0.2921
   52MOL   C24140123   1.265   1.648   0.034  0.1812  0.5537 -0.0009
   52MOL   C24240124   1.401   1.691   8.005  0.2892  0.4622 -1.0354
   52MOL   C24340125   1.515   1.710   0.075 -0.5949  0.1967  0.0459
   52MOL   C24440126   1.649   1.742   0.003  0.0935  0.8768 -0.1397
   52MOL   O24540127   1.757   1.752   0.094 -0.1275 -0.1965  0.6709
   52MOL   C24640128   1.882   1.717   0.057 -0.0527 -0.2592 -0.1770
   52MOL   O24740129   1.912   1.693   7.974 -0.0777 -0.3794  0.5595
   52MOL   C24840130   1.974   1.709   0.168  0.1007 -0.8989 -0.5024
   52MOL   C24940131   1.937   1.744   0.302 -0.5074 -0.4269 -1.1186
   52MOL   C25040132   2.043   1.764   0.398 -0.1085 -0.5225  0.3446
   52MOL   C25140133   2.175   1.716   0.369 -0.1547  0.0841  0.6849
   52MOL   C25240134   2.277   1.702   0.478  0.6007  1.2326 -0.2794
   52MOL   O25340135   2.264   1.761   0.581  0.1800  0.0610 -0.7494
   52MOL   O25440136   2.388   1.634   0.450 -0.0420 -0.0759 -0.1347
   52MOL   C25540137   2.203   1.666   0.241 -0.3478  0.3990 -0.6031
   52MOL   C25640138   2.108   1.673   0.145 -0.2358 -0.0469  0.0494
   52MOL   H25740139   1.603   1.593   0.245  0.3694  2.2531 -0.9442
   52MOL   H25840140   1.572   1.509   0.098  0.8314 -1.3028  1.8923
   52MOL   H25940141   1.415   1.453   0.284  1.6305 -0.3123 -0.8517
   52MOL   H26040142   1.378   1.619   0.307 -0.9827 -1.9817  2.0145
   52MOL   H26140143   1.297   1.438   0.066  0.7871  1.6495 -2.0450
   52MOL   H26240144   1.144   1.539   0.303 -3.0232 -0.1513 -0.4787
   52MOL   H26340145   1.056   1.489   0.158 -0.5985  0.8135 -1.3783
   52MOL   H26440146   1.193   1.624   7.991  0.6352 -0.4824 -0.1037
   52MOL   H26540147   1.220   1.735   0.083  1.4407  0.4220  1.4204
   52MOL   H26640148   1.379   1.772   7.935 -4.0515 -0.8919 -1.3637
   52MOL   H26740149   1.433   1.607   7.943  0.4686 -1.0960  1.0788
   52MOL   H26840150   1.507   1.799   0.136  1.1569  0.5343 -0.1837
   52MOL   H26940151   1.670   1.655   7.976 -0.4079  0.3238  0.4441
   52MOL   H27040152   1.648   1.822   7.965 -0.4944  1.1826  0.1895
   52MOL   H27140153   1.841   1.781   0.335  1.4264  2.3473  1.7050
   52MOL   H27240154   2.013   1.796   0.496  1.1371 -1.8916  1.1929
   52MOL   H27340155   2.298   1.625   0.213  0.1186 -0.1312  1.7121
   52MOL   H27440156   2.132   1.645   0.044 -1.3294  0.6835 -0.4227
   52MOL   C27540157   2.907   1.735   0.759 -0.1118  0.3226 -0.6257
   52MOL   C27640158   2.802   1.765   0.658  0.0018 -0.4459 -0.2095
   52MOL   C27740159   2.680   1.666   0.664 -0.0828 -0.1718  0.1713
   52MOL   C27840160   2.591   1.691   0.545  0.3731 -0.4370 -0.0939
   52MOL   O27940161   2.479   1.610   0.566  0.5064  0.0521 -0.4643
   52MOL   C28040162   2.740   1.522   0.657 -0.3174 -0.2217 -0.3002
   52MOL   C28140163   2.842   1.494   0.774 -0.7757 -0.1396 -0.6496
   52MOL   C28240164   2.962   1.592   0.754  0.3155 -0.2408  0.0567
   52MOL   C28340165   3.062   1.566   0.871 -0.4047  0.4089  0.5501
   52MOL   O28440166   3.153   1.668   0.895 -0.6668  0.5683  0.4783
   52MOL   C28540167   3.278   1.654   0.852  0.0587 -0.1808  0.0173
   52MOL   O28640168   3.324   1.557   0.797 -0.3619 -0.3596  0.3262
   52MOL   C28740169   3.354   1.776   0.891  0.3687 -0.7253  0.4882
   52MOL   C28840170   3.303   1.870   0.988  0.0318  0.1397  0.3318
   52MOL   C28940171   3.378   1.987   1.022 -0.8285 -0.7525 -0.0419
   52MOL   C29040172   3.502   2.016   0.966 -0.5217  0.3055  0.0689
   52MOL   C29140173   3.574   2.127   1.024 -0.1504  0.2884 -0.1257
   52MOL   O29240174   3.525   2.212   1.095 -0.6645  0.0507 -0.2163
   52MOL   O29340175   3.688   2.132   0.972 -0.2397 -0.1321 -0.1229
   52MOL   C29440176   3.553   1.922   0.875  0.1824 -0.0660  0.1712
   52MOL   C29540177   3.481   1.806   0.837  0.1548  0.4952  0.4647
   52MOL   H29640178   2.985   1.808   0.736  0.5141 -0.8318 -2.2537
   52MOL   H29740179   2.869   1.761   0.858  0.7222  2.2168 -0.7727
   52MOL   H29840180   2.757   1.862   0.678 -0.6731 -0.6585 -0.6684
   52MOL   H29940181   2.844   1.769   0.557  0.1862  2.7840 -0.0601
   52MOL   H30040182   2.622   1.692   0.752  2.1752  0.7070  1.4392
   52MOL   H30140183   2.575   1.799   0.533  4.0508  0.2730  0.7735
   52MOL   H30240184   2.638   1.652   0.455 -2.6045 -1.6550 -1.1813
   52MOL   H30340185   2.654   1.456   0.666  0.9857 -2.0809 -1.0913
   52MOL   H30440186   2.790   1.499   0.563 -2.4411  0.2697 -1.5652
   52MOL   H30540187   2.884   1.394   0.767  0.7798  0.5426 -1.1157
   52MOL   H30640188   2.798   1.494   0.874 -3.3661  3.4701 -1.6603
   52MOL   H30740189   3.013   1.569   0.660 -0.1968 -0.3163 -0.2077
   52MOL   H30840190   3.000   1.542   0.958  0.8348 -2.1892  0.7595
   52MOL   H30940191   3.110   1.469   0.857  1.4288  1.3582  0.1831
   52MOL   H31040192   3.210   1.857   1.040  0.3426  0.1758  0.9017
   52MOL   H31140193   3.341   2.055   1.098 -0.9512 -0.5295 -0.3009
   52MOL   H31240194   3.656   1.928   0.841  0.3382 -0.1436  0.6303
   52MOL   H31340195   3.520   1.728   0.773  0.3039  1.8270 -1.0737
   52MOL   C31440196   4.004   2.599   1.188  0.7373  0.1121 -0.0454
   52MOL   C31540197   3.956   2.480   1.103 -1.1749 -0.1369  0.6437
   52MOL   C31640198   3.903   2.365   1.195 -0.2065 -0.8118  0.6638
   52MOL   C31740199   3.872   2.238   1.106 -0.1019 -0.3298 -0.3968
   52MOL   O31840200   3.772   2.257   1.002  0.3080 -0.2575 -0.0713
   52MOL   C31940201   3.993   2.335   1.319  0.5860  0.8957 -0.8363
   52MOL   C32040202   4.040   2.457   1.395  0.0756  0.5476 -0.7387
   52MOL   C32140203   4.100   2.559   1.301 -0.3737  0.2519 -0.2671
   52MOL   C32240204   4.176   2.678   1.363  0.5139 -0.2748 -0.1889
   52MOL   O32340205   4.236   2.760   1.261  0.3386  0.2511  0.2851
   52MOL   C32440206   4.302   2.869   1.305 -0.5251 -0.2354 -0.5177
   52MOL   O32540207   4.335   2.886   1.423  0.4633 -0.1266 -0.8496
   52MOL   C32640208   4.337   2.962   1.198 -0.4603 -0.5301  0.2488
   52MOL   C32740209   4.293   2.939   1.064 -0.3770 -0.1828  0.1561
   52MOL   C32840210   4.298   3.049   0.971 -0.4649  0.3104  0.4323
   52MOL   C32940211   4.351   3.173   1.006  0.2979 -0.0481 -0.3596
   52MOL   C33040212   4.340   3.297   0.931  0.6001  0.0964 -0.3013
   52MOL   O33140213   4.308   3.304   0.814 -0.6784 -0.2476  0.1018
   52MOL   O33240214   4.370   3.409   0.996  0.4637  0.3589 -0.4336
   52MOL   C33340215   4.400   3.184   1.140 -0.6933  0.2979  0.5557
   52MOL   C33440216   4.397   3.079   1.240 -0.3149  0.2287  0.1965
   52MOL   H33540217   4.056   2.664   1.117 -1.3789  0.4093 -1.3781
   52MOL   H33640218   3.911   2.641   1.226  0.5401  1.2065 -1.6763
   52MOL   H33740219   3.875   2.519   1.041  0.1773  1.0582 -0.3911
   52MOL   H33840220   4.040   2.452   1.039 -1.1831  0.3796  0.4091
   52MOL   H33940221   3.814   2.411   1.238  1.4874  2.1995  1.1206
   52MOL   H34040222   3.969   2.208   1.066  1.5552  1.1657  2.3790
   52MOL   H34140223   3.838   2.165   1.179  0.5448 -0.1144  0.1241
   52MOL   H34240224   3.948   2.265   1.390  1.2213  0.8881 -0.4358
   52MOL   H34340225   4.071   2.272   1.276 -0.5936 -1.7798  0.7752
   52MOL   H34440226   4.102   2.422   1.478  0.5838  2.1329 -0.4436
   52MOL   H34540227   3.951   2.496   1.445  1.2319 -0.2910  2.0960
   52MOL   H34640228   4.184   2.506   1.256  1.6668  1.8793  1.5583
   52MOL   H34740229   4.100   2.733   1.419  0.0133 -1.2393  0.0921
   52MOL   H34840230   4.253   2.642   1.431  2.1591  0.7269 -1.4943
   52MOL   H34940231   4.252   2.844   1.034  0.6376 -1.0506  1.4698
   52MOL   H35040232   4.267   3.032   0.869 -1.4650 -2.9420  1.2396
   52MOL   H35140233   4.441   3.279   1.171 -1.1467  0.3403  1.0330
   52MOL   H35240234   4.438   3.098   1.338 -0.8378 -4.2544  1.4202
   52MOL   C35340235   4.086   3.659   0.608 -0.4710 -0.1231 -0.1761
   52MOL   C35440236   4.144   3.594   0.733  0.0709  0.5508  0.2848
   52MOL   C35540237   4.216   3.690   0.823  0.5325  0.1636 -0.6341
   52MOL   C35640238   4.271   3.617   0.948  0.3602 -0.1434 -0.1490
   52MOL   O35740239   4.374   3.527   0.905 -0.7039 -0.1098  0.2304
   52MOL   C35840240   4.316   3.778   0.746 -0.4060  0.2290 -0.6382
   52MOL   C35940241   4.246   3.856   0.626 -0.3855 -0.4702  0.0565
   52MOL   C36040242   4.186   3.748   0.528  0.3328 -0.1497  0.2110
   52MOL   C36140243   4.119   3.812   0.405  0.0147 -0.4775  0.4523
   52MOL   O36240244   4.104   3.717   0.303  0.1715  0.3134  0.2556
   52MOL   C36340245   4.197   3.696   0.212  0.1276  0.7809 -0.3767
   52MOL   O36440246   4.314   3.732   0.223 -0.4684 -0.2257 -0.4878
   52MOL   C36540247   4.142   3.659   0.078  0.0789 -0.1429  0.2449
   52MOL   C36640248   4.003   3.650   0.048  0.3553  0.3105 -0.1387
   52MOL   C36740249   3.969   3.630   7.948 -0.0583  0.5439  0.0193
   52MOL   C36840250   4.064   3.617   7.844  0.3485  0.4705  0.3175
   52MOL   C36940251   4.021   3.609   7.704 -0.1697  0.4129 -0.2678
   52MOL   O37040252   3.908   3.590   7.668  0.0231  0.5988 -0.2913
   52MOL   O37140253   4.136   3.613   7.623  0.4583  0.3622  0.1283
   52MOL   C37240254   4.200   3.619   7.880 -0.2909  0.2593  0.3778
   52MOL   C37340255   4.235   3.642   8.011 -0.2718  0.3767 -0.3301
   52MOL   H37440256   4.030   3.587   0.549 -1.6590  1.6291 -1.2262
   52MOL   H37540257   4.008   3.728   0.642 -2.2086 -2.9700  1.8286
   52MOL   H37640258   4.066   3.542   0.789 -0.1773  0.2927 -0.2997
   52MOL   H37740259   4.200   3.509   0.692 -0.7659 -0.6486  1.5936
   52MOL   H37840260   4.138   3.759   0.857  1.5983  1.7395 -1.2998
   52MOL   H37940261   4.304   3.688   1.024 -1.0727 -0.1147  0.4669
   52MOL   H38040262   4.179   3.570   0.983 -0.5806  1.5170 -0.3511
   52MOL   H38140263   4.365   3.844   0.817 -0.1639 -1.2911  0.6105
   52MOL   H38240264   4.396   3.717   0.704  0.3024  0.2438  0.6961
   52MOL   H38340265   4.318   3.921   0.577 -0.8208 -1.1367 -1.4977
   52MOL   H38440266   4.157   3.912   0.658 -0.1741  1.1307 -2.0491
   52MOL   H38540267   4.262   3.676   0.496  0.6811 -0.2622  1.2805
   52MOL   H38640268   4.017   3.844   0.426  0.0630  0.0705 -0.1202
   52MOL   H38740269   4.181   3.897   0.375  0.8435 -1.0391  0.5824
   52MOL   H38840270   3.927   3.662   0.125  1.5665 -1.1203  1.3122
   52MOL   H38940271   3.863   3.622   7.932  0.0813  0.1277 -0.7193
   52MOL   H39040272   4.287   3.610   7.817  1.8712 -0.6887  3.3676
   52MOL   H39140273   4.340   3.643   8.035 -0.1891 -0.2749 -0.6411
   52MOL   C39240274   4.228   4.081   7.235 -0.2352  0.3496  0.1078
   52MOL   C39340275   4.232   3.991   7.359 -0.3847 -0.0918  0.4274
   52MOL   C39440276   4.165   3.857   7.347  0.3408  0.8077 -0.1287
   52MOL   C39540277   4.167   3.788   7.483 -0.5671 -0.5748 -0.0169
   52MOL   O39640278   4.101   3.661   7.488 -0.2588 -0.4648 -0.0985
   52MOL   C39740279   4.027   3.859   7.279  0.2440  1.0638 -0.1115
   52MOL   C39840280   4.043   3.930   7.147  0.5032  0.0386  0.1848
   52MOL   C39940281   4.094   4.070   7.161 -0.1828 -0.9172  0.2189
   52MOL   C40040282   4.102   4.141   7.031  0.7376 -0.8944 -0.4573
   52MOL   O40140283   4.198   4.091   6.942 -0.4340  0.4654 -0.3974
   52MOL   C40240284   4.181   4.116   6.810  0.8003 -0.0605  0.0014
   52MOL   O40340285   4.086   4.182   6.764 -0.0913 -0.7025  0.1530
   52MOL   C40440286   4.273   4.044   6.723 -0.1903  0.1546  0.2242
   52MOL   C40540287   4.251   4.043   6.583  0.0944  0.7107 -0.0123
   52MOL   C40640288   4.344   3.982   6.489  0.7623  0.6372 -0.3657
   52MOL   C40740289   4.459   3.924   6.547 -0.0679 -0.0884 -0.7004
   52MOL   C40840290   4.549   3.852   6.448 -0.4722 -0.3374 -0.4511
   52MOL   O40940291   4.616   3.764   6.489 -0.3284 -0.0579 -0.3196
   52MOL   O41040292   4.538   3.882   6.319  0.6933 -0.2959 -0.4044
   52MOL   C41140293   4.483   3.925   6.685 -0.5775 -0.3170  0.1345
   52MOL   C41240294   4.387   3.974   6.771  0.2048 -0.1489  0.2208
   52MOL   H41340295   4.248   4.187   7.255  0.8959  0.0363  0.7207
   52MOL   H41440296   4.313   4.034   7.185 -0.8889 -0.3976 -0.3085
   52MOL   H41540297   4.334   3.971   7.392 -0.9634 -1.1878  1.5449
   52MOL   H41640298   4.190   4.039   7.447 -0.3302 -2.4575  1.7705
   52MOL   H41740299   4.228   3.792   7.286 -0.9888 -1.7207  1.0688
   52MOL   H41840300   4.271   3.787   7.518 -0.4588 -0.0492 -0.3255
   52MOL   H41940301   4.114   3.843   7.560 -1.1270 -1.2802  0.1066
   52MOL   H42040302   3.991   3.758   7.263 -0.7363  1.7565 -2.4260
   52MOL   H42140303   3.951   3.912   7.338 -3.0999 -1.3322 -2.1349
   52MOL   H42240304   3.946   3.924   7.096  1.1506  1.2062 -1.2289
   52MOL   H42340305   4.121   3.877   7.093 -0.0369  0.3160 -0.8891
   52MOL   H42440306   4.030   4.124   7.231  2.0052  0.5751  1.1043
   52MOL   H42540307   4.002   4.136   6.988  1.2559 -1.2365 -1.6374
   52MOL   H42640308   4.130   4.244   7.054 -0.5924 -0.9012  1.2683
   52MOL   H42740309   4.161   4.090   6.545 -0.8840 -1.6792 -0.7588
   52MOL   H42840310   4.317   3.986   6.385 -1.8948  0.9160  0.2911
   52MOL   H42940311   4.570   3.870   6.719 -1.7193 -1.4421  1.3103
   52MOL   H43040312   4.396   3.956   6.877 -2.0403  1.1447  0.6534
   52MOL   C43140313   4.593   3.848   5.789 -0.5418 -0.3810 -0.6609
   52MOL   C43240314   4.632   3.817   5.935  0.1043  0.3290 -0.1119
   52MOL   C43340315   4.514   3.757   6.016 -0.2609  0.4216 -0.2276
   52MOL   C43440316   4.560   3.709   6.152 -0.7064 -0.0455  0.3340
   52MOL   O43540317   4.635   3.811   6.221  0.2032  0.2303 -0.2472
   52MOL   C43640318   4.394   3.851   6.008  0.6936  0.0865  0.2224
   52MOL   C43740319   4.359   3.874   5.861 -0.5859  0.1079 -0.1722
   52MOL   C43840320   4.476   3.942   5.780  0.2907 -0.7077 -0.3236
   52MOL   C43940321   4.431   3.986   5.637  0.2617 -0.3813 -0.2589
   52MOL   O44040322   4.340   4.093   5.631  0.1384 -0.5346  0.2604
   52MOL   C44140323   4.258   4.113   5.522 -0.5210 -0.8681  0.1539
   52MOL   O44240324   4.249   4.049   5.415 -0.3249  0.8710  0.1853
   52MOL   C44340325   4.179   4.237   5.541  0.5309  0.5315 -0.0091
   52MOL   C44440326   4.081   4.276   5.444  0.5773 -0.4241  0.2887
   52MOL   C44540327   4.004   4.391   5.446 -0.2209  0.2852 -0.0021
   52MOL   C44640328   4.026   4.487   5.548 -0.5045  0.0306 -0.2566
   52MOL   C44740329   3.946   4.608   5.544 -0.2390 -0.3021  0.1505
   52MOL   O44840330   3.977   4.703   5.614  0.0363 -0.3046  0.0394
   52MOL   O44940331   3.824   4.595   5.483  0.0934  0.2598  0.1903
   52MOL   C45040332   4.121   4.447   5.650  0.0065  0.0210  0.3235
   52MOL   C45140333   4.193   4.321   5.647 -0.6380 -0.0646  0.5026
   52MOL   H45240334   4.683   3.888   5.743 -1.4371  1.0326 -1.1989
   52MOL   H45340335   4.566   3.760   5.730  0.4710 -0.8927 -0.3786
   52MOL   H45440336   4.729   3.766   5.930  1.4961  2.8949 -0.2210
   52MOL   H45540337   4.654   3.912   5.982  0.7672  0.3276 -0.4094
   52MOL   H45640338   4.479   3.669   5.963 -1.4272  1.8013 -1.8148
   52MOL   H45740339   4.485   3.657   6.211 -2.3255  0.1757 -1.5141
   52MOL   H45840340   4.637   3.635   6.131 -0.1811  0.5464  0.1391
   52MOL   H45940341   4.309   3.808   6.061 -0.2812  2.4938  0.6605
   52MOL   H46040342   4.406   3.948   6.056 -1.8225 -0.3768  1.8726
   52MOL   H46140343   4.270   3.937   5.857 -1.0829 -0.6083 -0.4053
   52MOL   H46240344   4.324   3.785   5.810  1.2246 -0.8210  0.1697
   52MOL   H46340345   4.505   4.034   5.831 -2.5974  0.4675 -0.6760
   52MOL   H46440346   4.518   4.008   5.573 -0.5550  0.6569 -1.0307
   52MOL   H46540347   4.375   3.909   5.585 -2.2960  1.6811 -0.6582
   52MOL   H46640348   4.062   4.200   5.370 -1.7773  2.7784 -2.5301
   52MOL   H46740349   3.927   4.410   5.373 -0.7981  1.0251  0.7916
   52MOL   H46840350   4.123   4.503   5.742  1.4956 -1.5394  1.2574
   52MOL   H46940351   4.269   4.304   5.721  0.7441  0.2308 -0.8081
   52MOL   C47040352   4.004   4.846   5.143  0.3231  0.0232  0.3438
   52MOL   C47140353   3.896   4.848   5.257  0.3794  0.7517  0.2146
   52MOL   C47240354   3.793   4.734   5.235  0.3033 -0.3028 -0.6581
   52MOL   C47340355   3.694   4.743   5.349  0.4808  0.2528  0.2617
   52MOL   O47440356   3.742   4.726   5.482 -0.2316  0.1559  0.1047
   52MOL   C47540357   3.721   4.761   5.101  0.6887  0.0462  0.0193
   52MOL   C47640358   3.831   4.754   4.988  0.6613 -0.1472 -0.2283
   52MOL   C47740359   3.949   4.861   5.007  0.9768 -0.7024 -0.1354
   52MOL   C47840360   4.055   4.840   4.892  0.1471  0.0141 -1.0994
   52MOL   O47940361   4.116   4.712   4.903  0.5842  0.3495 -0.5903
   52MOL   C48040362   4.239   4.689   4.953 -0.3620  0.6375  0.2255
   52MOL   O48140363   4.316   4.774   4.999 -0.0159 -0.2829 -0.2155
   52MOL   C48240364   4.267   4.538   4.976 -0.1308  0.2955  0.7738
   52MOL   C48340365   4.395   4.487   5.000  0.7248  0.0988  0.3534
   52MOL   C48440366   4.413   4.348   5.003  0.5723 -0.5157 -0.4424
   52MOL   C48540367   4.312   4.254   4.978 -0.1026  0.1365  0.5214
   52MOL   C48640368   4.336   4.112   4.972  0.8591  0.1998  0.0723
   52MOL   O48740369   4.450   4.062   4.980  0.0825  0.2629  0.3508
   52MOL   O48840370   4.228   4.032   4.954 -0.4901  0.5039 -0.6011
   52MOL   C48940371   4.185   4.308   4.958  0.8403  0.5286 -0.1642
   52MOL   C49040372   4.161   4.445   4.956 -0.3228 -0.5431 -0.0514
   52MOL   H49140373   4.084   4.915   5.169  0.0213  1.1985 -1.7167
   52MOL   H49240374   4.053   4.749   5.154  0.5772  0.1489  0.3196
   52MOL   H49340375   3.943   4.838   5.355  1.4526 -1.4848 -0.5079
   52MOL   H49440376   3.850   4.946   5.247 -0.5752  0.3303  0.3869
   52MOL   H49540377   3.845   4.638   5.233  1.0337  0.1026 -1.2778
   52MOL   H49640378   3.627   4.827   5.332  0.3227  0.1374  0.3082
   52MOL   H49740379   3.625   4.659   5.339  1.0772 -0.3951  1.4420
   52MOL   H49840380   3.641   4.689   5.084  1.3386 -1.0367  1.3994
   52MOL   H49940381   3.682   4.863   5.108  1.3977  0.2527  1.2733
   52MOL   H50040382   3.783   4.770   4.892 -0.1748 -1.1465  0.0091
   52MOL   H50140383   3.889   4.662   4.975  0.1599 -0.3190 -1.3733
   52MOL   H50240384   3.892   4.954   4.997 -0.3178 -1.0765  3.2109
   52MOL   H50340385   4.005   4.852   4.797 -0.8807 -0.4532 -0.6211
   52MOL   H50440386   4.124   4.925   4.889 -0.4719  0.4852 -1.9480
   52MOL   H50540387   4.484   4.548   5.011  1.1875 -0.2148 -1.3630
   52MOL   H50640388   4.517   4.319   5.006  1.0093  1.1763  1.9291
   52MOL   H50740389   4.100   4.243   4.942 -1.0963  2.5523  1.6240
   52MOL   H50840390   4.066   4.485   4.922  0.0029 -0.2432 -0.6083
   52MOL   C50940391   4.460   3.491   4.909 -0.0878  0.2899  0.3124
   52MOL   C51040392   4.424   3.638   4.940 -0.5475  0.2569  0.1933
   52MOL   C51140393   4.276   3.652   4.972  0.0425 -0.4027 -0.3434
   52MOL   C51240394   4.242   3.805   5.014 -0.1534  0.2097  1.0127
   52MOL   O51340395   4.261   3.892   4.904  0.1244  0.6699 -0.8848
   52MOL   C51440396   4.182   3.592   4.860 -0.3292 -1.0200 -0.4842
   52MOL   C51540397   4.214   3.448   4.829  0.2334  0.3302 -0.0150
   52MOL   C51640398   4.366   3.434   4.795  0.1070 -0.0400 -0.2810
   52MOL   C51740399   4.395   3.285   4.760  0.0102  0.1310 -0.0010
   52MOL   O51840400   4.380   3.194   4.870 -0.4272  0.2117  0.2356
   52MOL   C51940401   4.350   3.069   4.844  0.3582 -0.6588  0.0501
   52MOL   O52040402   4.363   3.020   4.733 -0.3983  0.2410  0.0915
   52MOL   C52140403   4.310   3.001   4.969 -0.3968 -0.0754 -0.2769
   52MOL   C52240404   4.240   3.064   5.073 -0.0061  0.2640 -0.0065
   52MOL   C52340405   4.208   2.994   5.190  0.2756  0.8786  0.0132
   52MOL   C52440406   4.249   2.860   5.200  0.7749  0.3236 -0.5381
   52MOL   C52540407   4.211   2.769   5.318 -0.5359 -0.8139  0.2693
   52MOL   O52640408   4.255   2.656   5.324  0.2594 -0.1166 -0.0153
   52MOL   O52740409   4.139   2.823   5.416 -0.4231  0.2339 -0.5774
   52MOL   C52840410   4.338   2.801   5.103 -0.2684 -0.3740 -0.6695
   52MOL   C52940411   4.359   2.870   4.983  0.9150 -0.0440  0.5427
   52MOL   H53040412   4.564   3.470   4.885  0.6485  2.6158  1.3198
   52MOL   H53140413   4.444   3.444   5.006  0.3466  0.9402  0.7063
   52MOL   H53240414   4.489   3.657   5.025 -0.2904  1.0977 -0.1792
   52MOL   H53340415   4.458   3.706   4.862 -1.5683  0.0498 -0.4398
   52MOL   H53440416   4.261   3.596   5.064 -2.4104  1.1992  0.2824
   52MOL   H53540417   4.136   3.810   5.037  0.1013 -1.3339  2.5771
   52MOL   H53640418   4.300   3.843   5.098 -1.6267  2.2400  1.1426
   52MOL   H53740419   4.077   3.607   4.888 -0.0165 -2.4219  1.6035
   52MOL   H53840420   4.209   3.656   4.777 -0.2407  0.2283  0.4836
   52MOL   H53940421   4.156   3.415   4.743  1.5932 -0.8065 -0.5188
   52MOL   H54040422   4.168   3.389   4.908  0.8312  0.4107  0.4019
   52MOL   H54140423   4.373   3.493   4.704 -0.7073  1.9547  0.9408
   52MOL   H54240424   4.335   3.254   4.674  1.2053 -1.0264 -0.4213
   52MOL   H54340425   4.497   3.279   4.722 -0.1831 -0.2621 -0.4644
   52MOL   H54440426   4.215   3.169   5.079 -0.8666 -0.0241  2.0407
   52MOL   H54540427   4.149   3.041   5.267  1.5711  1.3980  0.6987
   52MOL   H54640428   4.368   2.699   5.119 -1.9993 -0.9738 -1.1654
   52MOL   H54740429   4.411   2.821   4.902  0.0415  0.3881 -0.2878
   52MOL   C54840430   3.803   3.037   5.655 -0.2740  0.8849 -0.2356
   52MOL   C54940431   3.892   2.947   5.567  0.0200  0.4214  0.4909
   52MOL   C55040432   3.886   2.807   5.618  0.2556  0.6961 -0.0839
   52MOL   C55140433   3.980   2.705   5.547 -0.3091  0.2750  0.4629
   52MOL   O55240434   4.116   2.736   5.534  0.1076  0.1316  0.5188
   52MOL   C55340435   3.929   2.802   5.776  0.2944 -0.5223  0.2353
   52MOL   C55440436   3.834   2.890   5.854  0.2904  0.0874  0.1121
   52MOL   C55540437   3.840   3.039   5.805 -0.2148  0.4592 -0.0450
   52MOL   C55640438   3.741   3.130   5.882 -0.7060 -0.8317 -0.6537
   52MOL   O55740439   3.728   3.257   5.817 -0.1112  0.7398  0.5677
   52MOL   C55840440   3.646   3.356   5.867  0.5336  0.0918 -0.2641
   52MOL   O55940441   3.611   3.354   5.982  0.4213  0.4082 -0.1338
   52MOL   C56040442   3.615   3.460   5.772  0.3490 -0.0959 -0.3845
   52MOL   C56140443   3.645   3.463   5.634 -0.0379 -0.4165 -0.2400
   52MOL   C56240444   3.598   3.561   5.549 -0.8115 -0.0025 -0.0816
   52MOL   C56340445   3.516   3.662   5.593  0.6540 -0.3438  0.3591
   52MOL   C56440446   3.439   3.763   5.501 -0.6111  1.3820  1.1499
   52MOL   O56540447   3.373   3.858   5.542 -0.2142 -0.1282  0.1784
   52MOL   O56640448   3.444   3.729   5.371 -0.9152 -0.0573  0.4955
   52MOL   C56740449   3.493   3.669   5.730 -0.0868  0.0514 -0.5609
   52MOL   C56840450   3.544   3.575   5.818  0.3110 -0.4772  0.6799
   52MOL   H56940451   3.790   3.135   5.610 -1.1919  0.1438 -1.6095
   52MOL   H57040452   3.700   3.004   5.643 -1.0005  2.8238  0.5220
   52MOL   H57140453   3.859   2.942   5.463  0.4183 -1.2342  0.4379
   52MOL   H57240454   3.994   2.985   5.572 -0.8360  2.8110  0.6695
   52MOL   H57340455   3.782   2.778   5.624  1.1028 -2.1980  1.4667
   52MOL   H57440456   3.980   2.613   5.607 -1.9793 -0.0541 -0.0059
   52MOL   H57540457   3.943   2.683   5.447 -2.8361 -0.1358  1.4365
   52MOL   H57640458   3.931   2.701   5.815  2.0456 -0.7581 -0.4439
   52MOL   H57740459   4.030   2.841   5.786  1.2845 -3.3435  1.5749
   52MOL   H57840460   3.868   2.886   5.957 -0.6429  0.6076  0.4440
   52MOL   H57940461   3.737   2.842   5.864  0.1419  0.7683  2.1579
   52MOL   H58040462   3.932   3.092   5.827 -2.1084  3.4456  0.9946
   52MOL   H58140463   3.641   3.091   5.902 -0.2355 -0.3121  2.9280
   52MOL   H58240464   3.782   3.150   5.981  1.1186  0.4087 -1.6323
   52MOL   H58340465   3.713   3.389   5.593  0.9803  0.2508  0.2247
   52MOL   H58440466   3.618   3.550   5.444  0.8116  4.0370 -0.2682
   52MOL   H58540467   3.426   3.744   5.769 -0.4281 -1.1698  1.2671
   52MOL   H58640468   3.521   3.580   5.924 -2.7210  1.4573  0.0079
   52MOL   C58740469   3.264   4.082   4.916 -0.3935 -0.6654 -0.2403
   52MOL   C58840470   3.293   4.044   5.068 -0.2429 -0.8288 -0.1489
   52MOL   C58940471   3.232   3.908   5.104 -0.7587 -0.0470 -0.3534
   52MOL   C59040472   3.263   3.849   5.243 -0.1460 -0.4823 -0.4798
   52MOL   O59140473   3.403   3.839   5.266  0.5502  0.0313 -0.1516
   52MOL   C59240474   3.082   3.909   5.081 -0.7760 -0.1900  0.0600
   52MOL   C59340475   3.051   3.956   4.939  0.2574 -0.3002 -0.5131
   52MOL   C59440476   3.114   4.089   4.896  0.3481  0.2042  0.2163
   52MOL   C59540477   3.087   4.125   4.749 -0.2170  0.4032 -0.3226
   52MOL   O59640478   2.944   4.127   4.722  0.0939 -0.1699 -0.2922
   52MOL   C59740479   2.882   4.027   4.670  0.6719 -1.1736 -0.0005
   52MOL   O59840480   2.924   3.910   4.667  0.1615 -0.1748 -0.6173
   52MOL   C59940481   2.744   4.066   4.611 -0.6429  0.3070 -0.1089
   52MOL   C60040482   2.644   3.969   4.585 -0.2850  0.2003 -0.3882
   52MOL   C60140483   2.518   4.004   4.539 -0.2919 -0.0989 -0.2997
   52MOL   C60240484   2.492   4.139   4.509  0.2684  0.3140 -0.6768
   52MOL   C60340485   2.363   4.174   4.437  0.2204 -0.4896 -0.8698
   52MOL   O60440486   2.294   4.081   4.383 -0.1979 -0.3231 -0.6599
   52MOL   O60540487   2.326   4.306   4.436  0.7781  0.4708  0.6230
   52MOL   C60640488   2.585   4.242   4.535 -0.4215 -0.5873  0.2219
   52MOL   C60740489   2.712   4.203   4.588 -0.1083 -0.1025  0.1423
   52MOL   H60840490   3.299   4.181   4.884  2.7198 -2.1380 -1.6774
   52MOL   H60940491   3.303   4.014   4.841  0.5411  1.8547 -2.1257
   52MOL   H61040492   3.401   4.038   5.079 -0.2975 -0.6102  0.5123
   52MOL   H61140493   3.254   4.119   5.137 -0.3774 -1.2625  0.2524
   52MOL   H61240494   3.270   3.838   5.029  2.0294  0.1404  0.8014
   52MOL   H61340495   3.210   3.909   5.317 -0.5337  1.6462 -2.4080
   52MOL   H61440496   3.225   3.747   5.254 -0.0925 -0.7196 -2.3585
   52MOL   H61540497   3.039   3.809   5.090 -2.6954  0.5216 -0.8977
   52MOL   H61640498   3.043   3.981   5.153 -0.2548  2.6569 -2.4069
   52MOL   H61740499   2.943   3.969   4.933  0.2812  0.0791 -0.1553
   52MOL   H61840500   3.070   3.869   4.876  0.8302  0.6408 -1.6796
   52MOL   H61940501   3.084   4.164   4.969  1.3594 -0.0842  0.9385
   52MOL   H62040502   3.123   4.225   4.725 -1.7130  1.8286  3.0619
   52MOL   H62140503   3.141   4.056   4.684  1.4548  2.3420 -1.0362
   52MOL   H62240504   2.667   3.866   4.607  0.2883  0.4618  0.2485
   52MOL   H62340505   2.441   3.930   4.524 -1.7954  1.3168  0.3070
   52MOL   H62440506   2.556   4.345   4.521  0.2347 -0.3894  0.2748
   52MOL   H62540507   2.784   4.281   4.607  0.4213  0.1072 -2.5076
   52MOL   C62640508   1.788   4.333   4.185  0.0631  0.2670 -0.3058
   52MOL   C62740509   1.922   4.289   4.244  0.0514 -0.2608 -0.6356
   52MOL   C62840510   1.966   4.393   4.351  0.8387 -0.6887  0.3092
   52MOL   C62940511   2.091   4.347   4.440  0.2613 -0.2957  0.0393
   52MOL   O63040512   2.200   4.331   4.355 -0.0540  0.0276  0.3232
   52MOL   C63140513   1.987   4.527   4.284  0.2254  0.6750  0.3426
   52MOL   C63240514   1.864   4.573   4.214  0.5089  0.0354  0.0678
   52MOL   C63340515   1.813   4.469   4.111 -0.1838 -0.4260  0.5996
   52MOL   C63440516   1.692   4.505   4.022 -0.3144 -0.3296 -0.1648
   52MOL   O63540517   1.710   4.635   3.965  0.2760  0.1305 -0.0327
   52MOL   C63640518   1.696   4.654   3.840  0.1526 -0.8070 -0.0109
   52MOL   O63740519   1.703   4.567   3.760 -0.1839 -0.3075  0.1472
   52MOL   C63840520   1.689   4.799   3.808 -0.4269 -0.7490 -0.7511
   52MOL   C63940521   1.673   4.849   3.682  0.6690  0.0510  0.0003
   52MOL   C64040522   1.690   4.984   3.652 -0.0342  0.0613 -0.1411
   52MOL   C64140523   1.717   5.080   3.751 -0.0272  0.9787 -0.1693
   52MOL   C64240524   1.742   5.227   3.715 -0.3226  0.4070 -0.3250
   52MOL   O64340525   1.721   5.283   3.607  0.4943 -0.4061 -0.1130
   52MOL   O64440526   1.783   5.295   3.827 -0.0057 -0.5525  0.8835
   52MOL   C64540527   1.711   5.034   3.884 -0.2424  0.6137  0.0556
   52MOL   C64640528   1.703   4.897   3.912 -0.4580  0.1951  0.1051
   52MOL   H64740529   1.733   4.263   4.122  0.7243  3.0506 -4.1480
   52MOL   H64840530   1.726   4.365   4.268 -0.8707  0.0857 -0.9245
   52MOL   H64940531   1.906   4.195   4.297  0.2436 -0.2607 -0.5785
   52MOL   H65040532   1.992   4.270   4.163  2.3203  1.0218  0.9519
   52MOL   H65140533   1.892   4.403   4.430 -0.1492 -2.4353 -0.3758
   52MOL   H65240534   2.107   4.419   4.520  0.1107  2.1419 -2.0852
   52MOL   H65340535   2.053   4.251   4.476  1.6972 -0.8685  0.0668
   52MOL   H65440536   2.028   4.606   4.347 -0.4294  0.9395  0.4344
   52MOL   H65540537   2.067   4.518   4.211 -0.1871  1.7079 -0.2303
   52MOL   H65640538   1.899   4.658   4.155 -2.4332  0.7462 -0.7799
   52MOL   H65740539   1.790   4.611   4.285  1.2409  4.3296 -1.2989
   52MOL   H65840540   1.896   4.446   4.045  0.2183  0.9224  0.6136
   52MOL   H65940541   1.668   4.424   3.953 -1.7122  0.2270 -0.3466
   52MOL   H66040542   1.608   4.519   4.090  1.0021 -0.9361  1.6147
   52MOL   H66140543   1.666   4.774   3.604  0.0892  1.6059 -1.4702
   52MOL   H66240544   1.682   5.000   3.545 -0.0060  0.5941 -0.0675
   52MOL   H66340545   1.712   5.101   3.969 -1.4884  1.0962 -0.2939
   52MOL   H66440546   1.717   4.866   4.015 -3.3220 -0.6532  0.2759
   52MOL   C66540547   1.908   5.631   4.205  0.0207  0.5125 -0.1845
   52MOL   C66640548   1.845   5.611   4.069  0.0291  0.3202  0.6519
   52MOL   C66740549   1.739   5.494   4.060  0.0119 -0.0865  0.4520
   52MOL   C66840550   1.692   5.492   3.917 -0.0553  0.1864 -0.2224
   52MOL   O66940551   1.783   5.443   3.818  0.2671 -0.0920  0.0553
   52MOL   C67040552   1.801   5.367   4.127  0.6000  0.0682  0.1427
   52MOL   C67140553   1.864   5.393   4.263 -0.1489 -0.1266 -0.2290
   52MOL   C67240554   1.972   5.498   4.256 -0.1759 -0.0069 -0.3970
   52MOL   C67340555   2.041   5.497   4.395 -0.6000 -0.5938  0.1944
   52MOL   O67440556   1.966   5.565   4.497  0.1602  0.1357  0.3391
   52MOL   C67540557   1.970   5.529   4.625 -0.0966 -0.1899 -0.7850
   52MOL   O67640558   2.040   5.436   4.660  0.5633  0.1227  0.2263
   52MOL   C67740559   1.899   5.618   4.720 -0.0217  0.2849  0.3618
   52MOL   C67840560   1.838   5.730   4.674  0.2203  0.0318 -0.4886
   52MOL   C67940561   1.766   5.817   4.760  0.4881  0.5474 -0.5618
   52MOL   C68040562   1.735   5.777   4.891  0.3098 -0.1518  1.2170
   52MOL   C68140563   1.661   5.871   4.980  0.1847  0.0453 -0.6858
   52MOL   O68240564   1.608   5.845   5.090 -0.2469  0.3601  0.3577
   52MOL   O68340565   1.658   5.996   4.930  0.2828  0.2836  0.1507
   52MOL   C68440566   1.793   5.659   4.941  1.1251  0.0142 -0.0541
   52MOL   C68540567   1.873   5.581   4.855  0.3229  0.7981  0.4287
   52MOL   H68640568   1.983   5.709   4.191  0.2047  0.4284  0.3152
   52MOL   H68740569   1.829   5.662   4.274 -0.0504  1.4423 -0.6845
   52MOL   H68840570   1.807   5.710   4.043 -0.8290 -0.3838 -0.8560
   52MOL   H68940571   1.922   5.599   3.993 -0.2639  0.6165  0.3011
   52MOL   H69040572   1.659   5.519   4.130 -1.3062  0.1686 -1.1381
   52MOL   H69140573   1.596   5.443   3.900  0.1157 -0.3495  0.3510
   52MOL   H69240574   1.680   5.596   3.888 -0.1250  0.2553  0.0574
   52MOL   H69340575   1.723   5.291   4.138  0.5453  0.1377  0.2424
   52MOL   H69440576   1.879   5.322   4.066 -1.8501 -2.6876 -1.1084
   52MOL   H69540577   1.899   5.298   4.305  1.4166 -0.0585 -1.3423
   52MOL   H69640578   1.786   5.418   4.335  1.0609  2.5712  0.2031
   52MOL   H69740579   2.048   5.456   4.191 -0.8372 -1.6663 -0.1163
   52MOL   H69840580   2.068   5.398   4.431 -0.3153 -0.3679  0.6204
   52MOL   H69940581   2.134   5.552   4.377 -0.3881 -1.7430 -2.4459
   52MOL   H70040582   1.852   5.764   4.573 -1.6679  1.8260 -0.1825
   52MOL   H70140583   1.735   5.912   4.717 -1.7068 -0.2262 -0.7493
   52MOL   H70240584   1.780   5.634   5.045 -1.9182 -2.4233 -0.9309
   52MOL   H70340585   1.913   5.489   4.895 -0.8640  0.6018  1.1757
   52MOL   C70440586   1.697   6.102   5.439 -0.0859 -0.7444 -0.0993
   52MOL   C70540587   1.647   6.139   5.303  0.2837 -0.3592  0.1613
   52MOL   C70640588   1.751   6.151   5.191 -0.3330 -1.1563  0.6913
   52MOL   C70740589   1.678   6.195   5.058 -0.2131  0.5987 -0.5669
   52MOL   O70840590   1.592   6.096   5.016  0.3718 -0.5105  0.0600
   52MOL   C70940591   1.853   6.258   5.231  0.0923  0.0949  0.0943
   52MOL   C71040592   1.909   6.221   5.371 -0.5645 -0.2028 -0.0298
   52MOL   C71140593   1.810   6.194   5.484 -0.4260  0.0717  0.3391
   52MOL   C71240594   1.862   6.129   5.612 -0.2335  0.3718  0.1072
   52MOL   O71340595   1.959   6.210   5.669 -0.2736 -0.0876 -0.0971
   52MOL   C71440596   2.077   6.159   5.722 -0.2532  0.5616 -0.5496
   52MOL   O71540597   2.103   6.041   5.711  0.5002 -0.3511  0.1842
   52MOL   C71640598   2.182   6.258   5.765  0.1684 -0.1737 -0.0300
   52MOL   C71740599   2.320   6.225   5.773  0.3955 -0.1438 -0.3177
   52MOL   C71840600   2.417   6.321   5.822  0.7744  0.3239 -0.3067
   52MOL   C71940601   2.374   6.447   5.863 -0.0368 -0.1675 -1.0524
   52MOL   C72040602   2.472   6.548   5.905  0.2784 -0.1443  0.1096
   52MOL   O72140603   2.591   6.542   5.911 -0.4567 -0.1000 -0.0445
   52MOL   O72240604   2.409   6.662   5.929  0.8231 -0.1640  0.4301
   52MOL   C72340605   2.234   6.479   5.855  0.0906 -0.3790 -0.5617
   52MOL   C72440606   2.140   6.381   5.811 -0.4149  0.2990  0.1243
   52MOL   H72540607   1.620   6.103   5.517  1.4580 -1.6247  1.4694
   52MOL   H72640608   1.733   5.999   5.434 -0.1398 -0.6484 -2.8528
   52MOL   H72740609   1.567   6.069   5.281 -0.3467  0.7916 -1.2754
   52MOL   H72840610   1.602   6.238   5.301 -0.2376 -0.5058  2.5948
   52MOL   H72940611   1.810   6.062   5.168  0.2858 -0.7633  0.7609
   52MOL   H73040612   1.625   6.288   5.076 -1.4453  0.3774 -2.8486
   52MOL   H73140613   1.764   6.201   4.990  0.7558 -0.1906  0.5678
   52MOL   H73240614   1.934   6.261   5.159  0.1656  0.1588  0.1791
   52MOL   H73340615   1.808   6.357   5.235  0.5700  0.3917 -1.6588
   52MOL   H73440616   1.968   6.308   5.402 -0.5376 -0.1606 -0.2001
   52MOL   H73540617   1.984   6.143   5.357 -0.2723  0.2252 -0.8828
   52MOL   H73640618   1.756   6.284   5.513  0.4008  1.0970 -1.2287
   52MOL   H73740619   1.778   6.114   5.680 -0.9494  1.4665 -0.5223
   52MOL   H73840620   1.891   6.026   5.591  0.5652  0.4053  1.0183
   52MOL   H73940621   2.357   6.129   5.739  1.2588 -1.1601  3.2214
   52MOL   H74040622   2.521   6.294   5.830  0.7073  0.6124  1.9750
   52MOL   H74140623   2.190   6.564   5.904  2.4454 -0.0345  1.0306
   52MOL   H74240624   2.034   6.397   5.828 -0.6927 -1.9027  0.6866
   52MOL   C74340625   2.150   7.004   5.810 -1.2080 -1.0028  0.0127
   52MOL   C74440626   2.259   6.901   5.839 -0.7601 -0.6096  0.2256
   52MOL   C74540627   2.404   6.965   5.839 -0.9934 -0.2909  0.1527
   52MOL   C74640628   2.514   6.863   5.850 -0.4518  0.3373  0.6302
   52MOL   O74740629   2.499   6.786   5.968  0.4481 -1.0371 -0.1199
   52MOL   C74840630   2.433   7.060   5.716  0.4957 -0.0580 -0.1210
   52MOL   C74940631   2.319   7.152   5.677  0.2869 -0.3973 -0.1683
   52MOL   C75040632   2.182   7.077   5.678  0.2709  0.0391 -0.0385
   52MOL   C75140633   2.069   7.173   5.625 -0.5578  0.6422  0.0690
   52MOL   O75240634   2.065   7.272   5.716 -0.1480 -0.5061  0.0267
   52MOL   C75340635   1.982   7.374   5.701  0.4328 -0.0765  0.2677
   52MOL   O75440636   1.919   7.392   5.600  0.2156  0.1932  0.3002
   52MOL   C75540637   1.986   7.469   5.812  0.3059  0.0236 -0.6148
   52MOL   C75640638   2.028   7.432   5.940  0.0965 -0.8218 -0.0987
   52MOL   C75740639   2.014   7.521   6.052 -0.7376 -0.1696  0.3714
   52MOL   C75840640   1.976   7.656   6.026  0.1526  0.1298  0.1880
   52MOL   C75940641   1.971   7.758   6.142 -1.4916  0.0829  0.5181
   52MOL   O76040642   1.997   7.730   6.252 -0.0849  0.7610  0.2761
   52MOL   O76140643   1.939   7.884   6.102 -0.0018 -0.3910 -0.5768
   52MOL   C76240644   1.924   7.691   5.896 -0.6388  0.7697 -0.0246
   52MOL   C76340645   1.927   7.597   5.791  0.8839  0.6249 -0.2778
   52MOL   H76440646   2.059   6.947   5.797 -0.2641 -2.4290 -0.5229
   52MOL   H76540647   2.147   7.062   5.902 -1.2576 -0.0196 -0.5950
   52MOL   H76640648   2.236   6.852   5.933  0.6128 -0.8399  0.4551
   52MOL   H76740649   2.250   6.815   5.773  0.9433 -0.1120 -0.6854
   52MOL   H76840650   2.406   7.028   5.927  0.5406 -1.2106  0.7871
   52MOL   H76940651   2.530   6.795   5.767 -2.0203  0.0128  0.5691
   52MOL   H77040652   2.606   6.919   5.865 -1.0841  1.5576  0.0406
   52MOL   H77140653   2.536   7.094   5.718  0.5766 -0.2743 -0.4620
   52MOL   H77240654   2.453   6.993   5.632  0.0225  0.0655 -0.3334
   52MOL   H77340655   2.349   7.180   5.576  0.3401 -1.9552 -0.5992
   52MOL   H77440656   2.319   7.239   5.742 -2.0578 -1.3709  1.1994
   52MOL   H77540657   2.184   6.990   5.614 -0.3436 -1.2125  1.6182
   52MOL   H77640658   2.084   7.210   5.523 -0.9152  0.1371 -0.1660
   52MOL   H77740659   1.978   7.114   5.627  0.4481 -0.8982  1.4953
   52MOL   H77840660   2.063   7.333   5.968  2.0419 -0.1677 -0.1607
   52MOL   H77940661   2.053   7.493   6.149  0.0249  1.1572  0.4558
   52MOL   H78040662   1.891   7.789   5.863  0.3440  0.8550 -0.7620
   52MOL   H78140663   1.885   7.628   5.696 -0.6363  1.0606  0.5171
   52MOL   H78240664   1.977   7.954   6.153 -2.6576 -0.0670  1.0271
   53MOL     C140665   0.055   7.919   0.793  0.3403  0.1668 -0.3274
   53MOL     C240666   7.984   7.994   0.714  0.3282 -0.0463 -0.3613
   53MOL     C340667   8.029   8.019   0.568  0.3472 -0.4015  1.0849
   53MOL     C440668   7.916   0.060   0.500 -0.5605  0.0712  0.5146
   53MOL     O540669   7.937   0.097   0.367  0.0560 -0.0332 -0.0206
   53MOL     C640670   0.126   0.057   0.570  0.3641 -0.1629 -0.5633
   53MOL     C740671   0.240   8.019   0.647 -0.0158  0.4748 -0.2888
   53MOL     C840672   0.190   7.993   0.790  0.0301  0.7119  0.2523
   53MOL     C940673   0.294   7.920   0.880 -0.1032 -0.6260  0.2788
   53MOL    O1040674   0.260   7.885   1.011 -0.2858  0.0903  0.5163
   53MOL    C1140675   0.292   7.966   1.117  0.0983  0.2563  0.5298
   53MOL    O1240676   0.351   0.036   1.103  0.0244  0.5210  0.0947
   53MOL    C1340677   0.245   7.920   1.255  0.2451  0.7474 -0.2901
   53MOL    C1440678   0.269   8.008   1.364  0.2224  0.1260 -0.1536
   53MOL    C1540679   0.247   7.968   1.495 -0.3635 -0.2097 -0.0967
   53MOL    C1640680   0.181   7.849   1.529  0.4304 -0.1793 -0.6056
   53MOL    C1740681   0.131   7.823   1.666  0.2352  0.2998 -0.1031
   53MOL    O1840682   0.127   7.916   1.751  0.8951  0.5263  0.1685
   53MOL    O1940683   0.092   7.689   1.692  0.9605 -0.6598  0.5860
   53MOL    C2040684   0.161   7.757   1.421 -0.7762 -0.6977  0.0440
   53MOL    C2140685   0.195   7.795   1.287 -0.1518  0.5715  0.2934
   53MOL    H2240686   0.032   7.901   0.898  0.2120  2.1786  0.0070
   53MOL    H2340687   0.067   7.818   0.754  0.2005 -0.6750  1.7459
   53MOL    H2440688   7.889   7.941   0.713 -1.5620  2.9036  4.0855
   53MOL    H2540689   7.970   0.057   0.760  3.1347  0.4463 -0.5034
   53MOL    H2640690   8.029   7.924   0.515  0.2784  0.1769  0.0291
   53MOL    H2740691   7.827   8.033   0.491  0.8417 -1.5318 -2.7578
   53MOL    H2840692   7.878   0.146   0.556 -0.4793  0.7277 -0.4309
   53MOL    H2940693   0.158   0.076   0.467  1.7556  0.1248 -0.0954
   53MOL    H3040694   0.134   0.155   0.618  1.6026 -0.4371 -0.1997
   53MOL    H3140695   0.327   0.047   0.637  0.1086  0.2097 -0.9085
   53MOL    H3240696   0.273   7.928   0.597  1.3694  1.3596 -1.0063
   53MOL    H3340697   0.176   0.052   0.842  1.0818  0.3064  1.3130
   53MOL    H3440698   0.309   7.823   0.833 -0.6880 -1.0505  0.9608
   53MOL    H3540699   0.386   7.978   0.868  0.0212 -0.5048  1.6558
   53MOL    H3640700   0.322   0.062   1.336  1.1300 -0.4579 -0.3225
   53MOL    H3740701   0.270   0.012   1.565  0.1538  1.5638 -2.2183
   53MOL    H3840702   0.098   7.669   1.429 -0.3708 -0.9336  0.6910
   53MOL    H3940703   0.169   7.724   1.210  0.2434  0.9869 -0.2253
   53MOL    H4040704   7.868   0.159   0.345  2.1582  2.1043 -0.8227
   53MOL    C4140705   7.925   7.667   2.218  0.6590  0.7688  0.3465
   53MOL    C4240706   7.926   7.693   2.072 -0.6211 -0.0949 -0.1452
   53MOL    C4340707   7.919   7.564   1.983 -0.4857  0.0861 -0.4482
   53MOL    C4440708   7.955   7.599   1.836 -0.2063 -0.0414 -0.5971
   53MOL    O4540709   0.043   7.667   1.828  0.1445 -0.4159 -0.1454
   53MOL    C4640710   8.027   7.458   2.027 -0.5829 -0.4319 -0.3574
   53MOL    C4740711   8.005   7.432   2.176 -0.2357  0.5042 -0.1360
   53MOL    C4840712   0.006   7.568   2.246  0.3584 -0.0616 -0.6876
   53MOL    C4940713   0.036   7.558   2.398  0.3725  0.2396  0.1364
   53MOL    O5040714   7.980   7.469   2.461  0.2537 -0.2321  0.0955
   53MOL    C5140715   7.860   7.518   2.512 -0.5700  0.0776  0.6992
   53MOL    O5240716   7.822   7.632   2.505  0.1427 -0.2127 -0.6459
   53MOL    C5340717   7.790   7.415   2.593 -0.3925  0.1610 -0.0874
   53MOL    C5440718   7.689   7.441   2.693  0.2632  0.1238  0.0989
   53MOL    C5540719   7.620   7.336   2.756  0.3022  0.0762 -0.3613
   53MOL    C5640720   7.646   7.198   2.726 -0.4217  0.0668  0.3729
   53MOL    C5740721   7.558   7.095   2.777 -0.7064 -0.0049 -0.2458
   53MOL    O5840722   7.466   7.123   2.853  0.0234 -1.1923  0.3687
   53MOL    O5940723   7.578   6.967   2.734 -0.4668  0.3433 -0.3851
   53MOL    C6040724   7.732   7.173   2.617 -0.5033  0.2390 -0.0279
   53MOL    C6140725   7.804   7.274   2.554  0.0510 -0.1443 -0.0873
   53MOL    H6240726   7.947   7.764   2.263  1.1300  0.3454  1.0307
   53MOL    H6340727   7.827   7.637   2.255  0.5203 -0.4036 -0.9216
   53MOL    H6440728   7.846   7.764   2.051 -0.3525  1.4409  3.5571
   53MOL    H6540729   8.018   7.750   2.059 -0.0684 -0.7512  0.8111
   53MOL    H6640730   7.813   7.545   1.996 -0.5977  0.3714 -0.9335
   53MOL    H6740731   7.962   7.505   1.780  0.2185  1.1581 -2.6012
   53MOL    H6840732   7.889   7.668   1.785  1.3405  0.2752 -2.2252
   53MOL    H6940733   8.016   7.375   1.957 -0.4965 -0.3597 -0.4569
   53MOL    H7040734   0.088   7.506   2.011 -1.5531  1.1193 -1.7719
   53MOL    H7140735   0.038   7.355   2.210 -1.2631 -0.6418 -0.6616
   53MOL    H7240736   7.904   7.407   2.210 -0.2273  2.2714  1.2831
   53MOL    H7340737   0.098   7.606   2.203  1.2092 -0.2900  0.8681
   53MOL    H7440738   0.129   7.502   2.403  0.0261 -0.2837  0.7358
   53MOL    H7540739   0.039   7.656   2.445  0.8552  0.1409  0.3216
   53MOL    H7640740   7.663   7.540   2.728  0.5945  0.0340  0.5920
   53MOL    H7740741   7.551   7.372   2.831  0.5386 -0.9036  0.3354
   53MOL    H7840742   7.749   7.069   2.597 -0.9905  0.0224  0.6865
   53MOL    H7940743   7.879   7.244   2.482  0.6568  1.3959 -0.1234
   53MOL    C8040744   7.126   6.591   2.681  0.1200  0.0475  0.1617
   53MOL    C8140745   7.269   6.647   2.659 -0.1563 -0.3251 -0.3015
   53MOL    C8240746   7.258   6.798   2.631 -0.0222 -0.1769  0.0016
   53MOL    C8340747   7.393   6.862   2.619  0.7900  0.4733  0.2012
   53MOL    O8440748   7.448   6.882   2.745  0.0363 -0.4145 -1.1060
   53MOL    C8540749   7.163   6.809   2.501 -0.2179 -0.4438 -0.5163
   53MOL    C8640750   7.024   6.757   2.524 -0.8783  0.5248  0.3548
   53MOL    C8740751   7.028   6.608   2.557 -0.8634 -0.2330  0.4569
   53MOL    C8840752   6.892   6.552   2.586  0.4723  0.2919  0.0905
   53MOL    O8940753   6.872   6.433   2.506 -0.3291  0.0075 -0.2774
   53MOL    C9040754   6.792   6.423   2.394  0.1192  0.5059 -0.0071
   53MOL    O9140755   6.725   6.517   2.355  0.0677  0.3594  0.1164
   53MOL    C9240756   6.805   6.293   2.326  0.1480 -0.6075 -0.7889
   53MOL    C9340757   6.737   6.260   2.210  0.1303 -0.3539 -0.1906
   53MOL    C9440758   6.747   6.131   2.149 -0.0967 -0.1603  0.1238
   53MOL    C9540759   6.833   6.037   2.199 -0.0998 -0.6346  0.4076
   53MOL    C9640760   6.837   5.901   2.133 -0.4233 -0.0091 -0.1288
   53MOL    O9740761   6.811   5.882   2.015 -0.7729 -0.3884 -0.4155
   53MOL    O9840762   6.882   5.810   2.215 -0.2192  0.4751 -0.2356
   53MOL    C9940763   6.898   6.063   2.316 -0.2070 -0.2210 -0.3448
   53MOL   C10040764   6.892   6.190   2.380  0.3414 -0.5373 -0.5125
   53MOL   H10140765   7.126   6.483   2.693  0.3102  0.1208  0.8955
   53MOL   H10240766   7.075   6.632   2.769 -0.5881  1.3543 -0.8347
   53MOL   H10340767   7.324   6.628   2.752 -0.4126  0.1667 -0.0487
   53MOL   H10440768   7.325   6.600   2.578 -0.9886 -1.1442 -0.4082
   53MOL   H10540769   7.206   6.847   2.714  0.3095  1.4466 -0.7336
   53MOL   H10640770   7.461   6.794   2.568 -1.6145 -0.8759 -1.3098
   53MOL   H10740771   7.391   6.957   2.565  0.2136  1.2845  1.6455
   53MOL   H10840772   7.149   6.912   2.469 -0.3759 -0.3875 -0.2727
   53MOL   H10940773   7.211   6.761   2.416  0.1259  0.7724 -1.0175
   53MOL   H11040774   6.957   6.770   2.439 -0.4751  0.3825  0.0122
   53MOL   H11140775   6.974   6.806   2.608 -1.8461  0.7852 -0.3644
   53MOL   H11240776   7.075   6.553   2.475  1.2914 -0.1871  1.6104
   53MOL   H11340777   6.873   6.522   2.689  0.5031  0.2859  0.0946
   53MOL   H11440778   6.812   6.623   2.563  0.7122  0.6429  0.3356
   53MOL   H11540779   6.678   6.334   2.159  2.4845  0.7427 -1.4197
   53MOL   H11640780   6.690   6.105   2.062 -0.7419  1.0684  0.1677
   53MOL   H11740781   6.967   5.985   2.347  0.4982  0.5424  0.0370
   53MOL   H11840782   6.942   6.201   2.475 -1.2431  1.3341  0.1566
   53MOL   C11940783   6.839   5.521   2.570  0.1135 -0.0503 -0.1687
   53MOL   C12040784   6.834   5.604   2.445  0.5871  0.9863  0.1541
   53MOL   C12140785   6.823   5.513   2.318 -0.9982 -0.1521 -0.3104
   53MOL   C12240786   6.801   5.586   2.179  0.5360 -0.2099 -0.3744
   53MOL   O12340787   6.909   5.679   2.160  0.3874 -0.1020  0.1224
   53MOL   C12440788   6.961   5.435   2.321 -0.1608  0.1241  0.0016
   53MOL   C12540789   6.973   5.347   2.445 -0.3205  0.1715 -0.2532
   53MOL   C12640790   6.966   5.433   2.573  0.1419 -0.4020  0.4006
   53MOL   C12740791   6.969   5.350   2.703  0.5588  0.4448  0.0661
   53MOL   O12840792   6.964   5.432   2.813  0.0259 -0.7312  0.0375
   53MOL   C12940793   6.858   5.421   2.894 -0.1270  0.0251  0.3107
   53MOL   O13040794   6.764   5.343   2.879  0.1168 -0.1555 -0.0904
   53MOL   C13140795   6.861   5.511   3.012 -0.9354 -0.3522 -0.7140
   53MOL   C13240796   6.758   5.519   3.105  0.2373  0.1914  0.3469
   53MOL   C13340797   6.776   5.602   3.218  0.2293 -0.8437 -0.3354
   53MOL   C13440798   6.893   5.678   3.242  0.9769 -0.6051  0.3068
   53MOL   C13540799   6.910   5.771   3.358  0.1704  0.0326 -0.8663
   53MOL   O13640800   7.011   5.834   3.374  0.5531 -0.2177 -0.5705
   53MOL   O13740801   6.810   5.767   3.453 -0.2860  0.3240 -0.1969
   53MOL   C13840802   6.998   5.662   3.148  0.0563  0.2443 -0.0901
   53MOL   C13940803   6.973   5.590   3.033 -0.2976  0.0963  0.1113
   53MOL   H14040804   6.828   5.581   2.660  0.3103 -0.0513 -0.1446
   53MOL   H14140805   6.750   5.459   2.577  0.1031 -0.1825 -1.3460
   53MOL   H14240806   6.749   5.672   2.455 -1.3319 -1.3121  0.0777
   53MOL   H14340807   6.928   5.657   2.435  1.9324 -1.1023  1.3192
   53MOL   H14440808   6.742   5.440   2.329 -0.1346 -0.7441  2.4030
   53MOL   H14540809   6.807   5.500   2.112 -0.0176  0.2556 -1.0229
   53MOL   H14640810   6.699   5.622   2.174 -0.3054 -2.4092  0.2256
   53MOL   H14740811   6.981   5.370   2.236  1.7015  0.5609  0.0666
   53MOL   H14840812   7.034   5.517   2.318  1.5273 -1.3807 -1.1565
   53MOL   H14940813   7.073   5.304   2.441  0.6172  2.1597  0.9021
   53MOL   H15040814   6.891   5.276   2.434 -0.0615  0.2331 -2.8670
   53MOL   H15140815   7.053   5.498   2.570 -0.4663  0.3872 -0.4193
   53MOL   H15240816   6.891   5.274   2.700  1.2917 -0.3390  0.6671
   53MOL   H15340817   7.063   5.295   2.700 -0.7697 -1.9563  1.2625
   53MOL   H15440818   6.677   5.448   3.104  0.3070  0.1202 -0.3095
   53MOL   H15540819   6.704   5.594   3.298 -0.0977  0.2359 -0.5046
   53MOL   H15640820   7.083   5.727   3.157  1.4966 -1.8766  2.3117
   53MOL   H15740821   7.055   5.567   2.966 -0.2056  2.0652 -0.4886
   53MOL   C15840822   6.909   5.823   4.051 -0.2918 -0.3375  0.1019
   53MOL   C15940823   6.853   5.803   3.910 -0.5335 -0.3626 -0.1196
   53MOL   C16040824   6.961   5.762   3.811 -0.6427 -0.9119  0.6471
   53MOL   C16140825   6.916   5.721   3.661 -0.8849  0.2915 -0.0860
   53MOL   O16240826   6.855   5.828   3.588 -0.0654  0.2795  0.0124
   53MOL   C16340827   7.069   5.864   3.824 -0.0090 -0.0237  0.1828
   53MOL   C16440828   7.128   5.892   3.959 -0.1188  0.1588 -0.4029
   53MOL   C16540829   7.014   5.934   4.049 -0.0107  0.4606  0.7891
   53MOL   C16640830   7.067   5.962   4.194  0.9192 -0.2717 -0.2669
   53MOL   O16740831   7.119   6.091   4.201  0.1190 -0.3330 -0.1003
   53MOL   C16840832   7.197   6.129   4.297 -0.7382  0.1207 -0.4417
   53MOL   O16940833   7.232   6.059   4.392 -0.5656  0.1401  0.5872
   53MOL   C17040834   7.240   6.267   4.282 -0.0517 -0.0505  0.2261
   53MOL   C17140835   7.187   6.354   4.186  0.5892  0.5296  0.0661
   53MOL   C17240836   7.235   6.486   4.174 -0.0458 -1.0910 -0.7738
   53MOL   C17340837   7.328   6.540   4.260 -0.6711 -0.2252 -0.6204
   53MOL   C17440838   7.381   6.678   4.244  0.3835 -0.1717  0.2049
   53MOL   O17540839   7.482   6.723   4.298 -0.3543  0.4544 -0.0779
   53MOL   O17640840   7.298   6.751   4.172  0.4550 -0.2174 -0.0818
   53MOL   C17740841   7.371   6.458   4.366 -0.1261  0.4379  0.2356
   53MOL   C17840842   7.335   6.320   4.371  0.5488 -0.2194 -0.2792
   53MOL   H17940843   6.833   5.845   4.126  1.4303 -1.8924  2.3848
   53MOL   H18040844   6.937   5.725   4.091 -1.7761 -0.5572  0.6362
   53MOL   H18140845   6.775   5.727   3.905  0.3419 -1.2969  0.2772
   53MOL   H18240846   6.819   5.904   3.886  1.0731 -0.2602 -2.0682
   53MOL   H18340847   6.995   5.668   3.855 -1.6345 -1.6410 -0.1316
   53MOL   H18440848   6.997   5.676   3.604  0.5084 -0.0983  2.1601
   53MOL   H18540849   6.850   5.638   3.686 -0.2436  0.5755  2.7801
   53MOL   H18640850   7.144   5.831   3.753 -0.0644  0.4388 -0.0947
   53MOL   H18740851   7.024   5.955   3.783  0.4077 -0.1907 -0.6506
   53MOL   H18840852   7.212   5.961   3.953  0.7409 -0.6312  1.8627
   53MOL   H18940853   7.167   5.796   3.993 -0.3236 -0.0924 -0.8781
   53MOL   H19040854   6.967   6.027   4.018  0.1843  0.5537  0.7733
   53MOL   H19140855   6.988   5.950   4.268  1.8385 -2.1397  0.4274
   53MOL   H19240856   7.144   5.890   4.221 -0.4158 -1.6190  0.0561
   53MOL   H19340857   7.112   6.322   4.115  1.3430  1.9070 -1.3924
   53MOL   H19440858   7.202   6.544   4.089 -0.4972  1.9476  1.4218
   53MOL   H19540859   7.436   6.492   4.446 -0.3631  2.4483 -0.4125
   53MOL   H19640860   7.369   6.253   4.449 -0.2483 -2.3118 -1.6931
   53MOL   C19740861   6.821   7.062   4.162  0.1381 -0.1019  0.7975
   53MOL   C19840862   6.935   7.019   4.259  0.4399 -0.0636  0.0731
   53MOL   C19940863   7.043   6.926   4.193 -0.5020 -0.5908  0.3620
   53MOL   C20040864   7.157   6.898   4.290  0.0153 -0.6702 -0.7294
   53MOL   O20140865   7.290   6.893   4.229 -0.5222 -0.3845  0.5645
   53MOL   C20240866   6.962   6.795   4.134 -0.3382  0.4947 -0.4642
   53MOL   C20340867   6.861   6.848   4.030  1.0330  0.9261  0.3015
   53MOL   C20440868   6.759   6.936   4.099  0.5882 -0.7194 -0.8941
   53MOL   C20540869   6.647   6.977   4.000 -0.5625  0.0171 -0.0311
   53MOL   O20640870   6.599   6.862   3.931 -0.0469 -0.7710 -0.3960
   53MOL   C20740871   6.505   6.870   3.838  0.3391  0.0098 -0.5241
   53MOL   O20840872   6.454   6.975   3.800  0.2936 -0.0409 -0.6147
   53MOL   C20940873   6.486   6.736   3.764  0.1360 -0.0551  0.1241
   53MOL   C21040874   6.558   6.619   3.805  0.5372  0.3287 -0.0939
   53MOL   C21140875   6.541   6.498   3.731  0.5735 -0.3270  0.1420
   53MOL   C21240876   6.453   6.485   3.623  0.6423  0.7087  0.3877
   53MOL   C21340877   6.423   6.359   3.558  0.5798  0.2622 -0.4493
   53MOL   O21440878   6.444   6.247   3.610 -0.6125  0.2128  0.2323
   53MOL   O21540879   6.377   6.379   3.431 -0.4901  0.8252 -0.1081
   53MOL   C21640880   6.381   6.598   3.585  0.3241  0.1505  0.0685
   53MOL   C21740881   6.392   6.719   3.657  0.3701  0.3009  0.1633
   53MOL   H21840882   6.746   7.125   4.208 -0.5941  1.0563 -1.9439
   53MOL   H21940883   6.854   7.116   4.074  0.5068 -1.1635  0.2840
   53MOL   H22040884   6.979   7.112   4.297  1.0540 -0.5988  0.6859
   53MOL   H22140885   6.894   6.972   4.349 -1.9395  2.8408  0.5995
   53MOL   H22240886   7.088   6.977   4.108 -0.0339 -0.3254  0.7608
   53MOL   H22340887   7.155   6.966   4.376 -1.8166 -1.5165 -0.0801
   53MOL   H22440888   7.141   6.804   4.342  0.7487 -0.7799 -0.6922
   53MOL   H22540889   7.044   6.744   4.082  0.4735  0.0740  1.1757
   53MOL   H22640890   6.912   6.727   4.203  0.5401  1.9076  1.6124
   53MOL   H22740891   6.810   6.765   3.980  1.8779  0.9750 -0.6579
   53MOL   H22840892   6.919   6.905   3.958  1.5425 -0.2575 -0.2434
   53MOL   H22940893   6.700   6.879   4.172 -0.0531 -0.5986 -1.3110
   53MOL   H23040894   6.558   7.016   4.051  0.1811 -1.0288  2.1238
   53MOL   H23140895   6.695   7.047   3.932  1.6160  1.0147  2.4607
   53MOL   H23240896   6.626   6.625   3.888  0.0774 -0.6015  0.3612
   53MOL   H23340897   6.603   6.418   3.768  0.8066 -1.0643 -1.8401
   53MOL   H23440898   6.306   6.601   3.508  1.0396  2.3953 -0.6011
   53MOL   H23540899   6.335   6.809   3.639  0.8074  0.3764 -0.8939
   53MOL   C23640900   5.998   5.983   3.232  0.2334  0.0088 -0.4193
   53MOL   C23740901   6.131   6.071   3.219 -0.1804 -0.1716  0.1405
   53MOL   C23840902   6.232   6.048   3.333 -0.1347 -0.5943 -0.4964
   53MOL   C23940903   6.333   6.165   3.333  0.7382  0.6778 -0.7242
   53MOL   O24040904   6.269   6.284   3.386 -0.1287 -0.3590  0.0887
   53MOL   C24140905   6.170   6.035   3.472  0.2256  0.2771 -0.3421
   53MOL   C24240906   6.063   5.927   3.471  0.8804  0.0968  0.5025
   53MOL   C24340907   5.948   5.976   3.375  0.6417  0.8466  0.4103
   53MOL   C24440908   5.810   5.905   3.386  0.0627 -0.8084 -0.3323
   53MOL   O24540909   5.828   5.773   3.335 -0.3104  0.7558  0.6145
   53MOL   C24640910   5.765   5.733   3.223 -0.4890  0.0779 -0.1143
   53MOL   O24740911   5.689   5.799   3.152 -0.0570  0.6060 -0.6842
   53MOL   C24840912   5.796   5.588   3.187 -0.4405  0.0789 -0.0225
   53MOL   C24940913   5.770   5.537   3.051  0.4618  0.1832  0.2233
   53MOL   C25040914   5.791   5.406   3.028 -0.6631 -0.1341 -0.4408
   53MOL   C25140915   5.837   5.315   3.129 -0.3043 -0.4820  0.9912
   53MOL   C25240916   5.846   5.174   3.092  0.2648 -0.3046 -0.2993
   53MOL   O25340917   5.836   5.080   3.171  0.4502 -0.4069  0.0655
   53MOL   O25440918   5.866   5.158   2.961  0.1144 -0.0071 -0.0145
   53MOL   C25540919   5.867   5.360   3.254 -0.2074 -0.1150  0.1810
   53MOL   C25640920   5.850   5.498   3.285  0.4763  0.4758  0.0935
   53MOL   H25740921   5.921   6.037   3.175 -2.3466 -2.5161  0.5349
   53MOL   H25840922   6.008   5.878   3.205  0.7570  0.2735 -1.2610
   53MOL   H25940923   6.173   6.060   3.119  0.3814  0.8892  0.2552
   53MOL   H26040924   6.099   6.175   3.216  0.0690 -0.1206 -0.9618
   53MOL   H26140925   6.295   5.958   3.325  1.1551  0.2014  0.5540
   53MOL   H26240926   6.423   6.144   3.391  0.1172  0.3846  0.1538
   53MOL   H26340927   6.372   6.169   3.232 -0.0630  1.7328 -1.0094
   53MOL   H26440928   6.253   6.020   3.540  2.0206 -0.8190 -2.7116
   53MOL   H26540929   6.131   6.135   3.493  1.2350  0.6543 -0.2153
   53MOL   H26640930   6.016   5.911   3.568 -1.4758  3.4980  0.0074
   53MOL   H26740931   6.097   5.830   3.434 -0.8304  0.3216 -1.7463
   53MOL   H26840932   5.927   6.076   3.414 -2.3468  0.0028  1.1106
   53MOL   H26940933   5.766   5.904   3.486 -0.0339 -0.9068 -0.3766
   53MOL   H27040934   5.742   5.968   3.329 -2.1264 -0.8466  2.1444
   53MOL   H27140935   5.742   5.612   2.978 -0.6339 -1.5116 -1.1281
   53MOL   H27240936   5.751   5.375   2.932  0.7875  2.2889 -1.8760
   53MOL   H27340937   5.907   5.284   3.320 -0.1639 -1.2141 -1.0684
   53MOL   H27440938   5.852   5.522   3.391  3.6210  0.2540  0.1218
   53MOL   C27540939   5.555   5.237   2.663 -0.1712  0.0562  0.5060
   53MOL   C27640940   5.596   5.139   2.774 -0.4262 -0.3439  0.1937
   53MOL   C27740941   5.717   5.057   2.731 -0.5396  0.3853 -0.5753
   53MOL   C27840942   5.766   4.965   2.852 -0.4390 -0.2481 -0.5099
   53MOL   O27940943   5.888   5.015   2.916 -0.0151 -0.2494  0.1291
   53MOL   C28040944   5.686   4.984   2.603 -0.6976 -0.3315  0.9671
   53MOL   C28140945   5.646   5.081   2.492  0.0312 -0.2236 -0.2492
   53MOL   C28240946   5.522   5.156   2.534 -0.4824  0.3115 -0.5557
   53MOL   C28340947   5.485   5.249   2.417  0.0637 -0.4099  0.4366
   53MOL   O28440948   5.389   5.347   2.449 -0.4742  0.4754  0.1027
   53MOL   C28540949   5.371   5.449   2.364 -0.0118 -0.0307 -0.0798
   53MOL   O28640950   5.428   5.466   2.260 -0.1492 -0.2293  0.2836
   53MOL   C28740951   5.281   5.558   2.424 -0.8681 -0.5995  0.4147
   53MOL   C28840952   5.237   5.549   2.558 -0.4491  0.0117  0.7998
   53MOL   C28940953   5.170   5.655   2.621  0.1782  0.3906 -0.5769
   53MOL   C29040954   5.160   5.775   2.553 -0.2454 -0.9967 -0.5298
   53MOL   C29140955   5.106   5.898   2.624  0.0156 -0.2038  0.2977
   53MOL   O29240956   5.079   6.003   2.567 -0.0538  0.1920 -0.6471
   53MOL   O29340957   5.065   5.874   2.752 -0.4060  0.2917  0.3010
   53MOL   C29440958   5.196   5.785   2.416  0.5011  0.0305  0.4147
   53MOL   C29540959   5.265   5.679   2.356 -0.0356  0.4662  0.4607
   53MOL   H29640960   5.466   5.293   2.694  0.9642  2.7121 -0.8849
   53MOL   H29740961   5.628   5.314   2.641  0.6974 -0.9308 -0.1191
   53MOL   H29840962   5.633   5.182   2.867  0.6991 -1.4754  0.2712
   53MOL   H29940963   5.508   5.081   2.802  0.3037 -1.6678 -0.2219
   53MOL   H30040964   5.797   5.129   2.714  0.1189 -0.3176 -0.4850
   53MOL   H30140965   5.691   4.937   2.927  0.4090  0.8040  0.7447
   53MOL   H30240966   5.808   4.879   2.801  1.6709  0.7226 -0.4388
   53MOL   H30340967   5.771   4.925   2.570 -1.5602  0.1556 -2.2455
   53MOL   H30440968   5.600   4.922   2.627 -0.6271 -0.3081  1.2784
   53MOL   H30540969   5.631   5.033   2.395 -0.5891  1.1842 -0.8629
   53MOL   H30640970   5.734   5.144   2.480  0.1621 -0.3822 -0.1115
   53MOL   H30740971   5.443   5.083   2.549 -0.3277  0.1652 -0.4605
   53MOL   H30840972   5.572   5.308   2.388 -1.3788  1.4107 -0.2786
   53MOL   H30940973   5.468   5.189   2.328  1.5923  1.1200 -0.9403
   53MOL   H31040974   5.248   5.459   2.617 -2.9007 -0.9185 -0.1147
   53MOL   H31140975   5.132   5.633   2.720 -1.2325 -1.6401 -1.5406
   53MOL   H31240976   5.186   5.880   2.367  0.4109 -0.0078  0.3609
   53MOL   H31340977   5.301   5.696   2.256 -2.7683  1.9386 -0.3236
   53MOL   C31440978   4.943   6.425   2.940  0.2280 -0.0984  0.0165
   53MOL   C31540979   4.986   6.293   2.872  0.0188 -0.3609  0.0346
   53MOL   C31640980   5.014   6.184   2.962  1.1040 -0.4665 -0.1666
   53MOL   C31740981   5.072   6.055   2.901  0.0771  0.3768  0.3585
   53MOL   O31840982   4.989   5.993   2.806  0.6794  0.2454  0.4995
   53MOL   C31940983   5.105   6.232   3.082 -0.0666 -0.0518  0.2519
   53MOL   C32040984   5.053   6.362   3.144 -1.0002  0.5751 -0.6960
   53MOL   C32140985   5.037   6.473   3.045  0.5818 -0.4157 -0.5688
   53MOL   C32240986   4.989   6.600   3.114  0.3187  0.2747  0.9382
   53MOL   O32340987   5.073   6.632   3.221  0.1051  0.5285  0.3423
   53MOL   C32440988   5.060   6.736   3.316  0.4030  0.6247  0.3242
   53MOL   O32540989   4.961   6.816   3.316 -0.1850  0.0569 -0.3133
   53MOL   C32640990   5.172   6.741   3.415 -0.0406 -0.2768 -0.2027
   53MOL   C32740991   5.189   6.853   3.496 -0.6561  0.3068 -0.3071
   53MOL   C32840992   5.305   6.864   3.578  0.4820  0.1831 -0.9961
   53MOL   C32940993   5.397   6.752   3.591  0.6003 -0.7492 -0.0340
   53MOL   C33040994   5.513   6.764   3.680  0.4221 -0.0188  0.4202
   53MOL   O33140995   5.589   6.668   3.692 -0.2534  0.7157 -0.3923
   53MOL   O33240996   5.527   6.887   3.743 -0.4615  0.1394  0.3897
   53MOL   C33340997   5.371   6.635   3.524  0.5342  0.4335  0.1875
   53MOL   C33440998   5.263   6.630   3.429 -0.5344 -1.0308 -0.5734
   53MOL   H33540999   4.924   6.498   2.862  0.1713  0.4527  0.5426
   53MOL   H33641000   4.838   6.410   2.965 -0.0690 -0.2373 -1.2962
   53MOL   H33741001   4.910   6.261   2.800  0.7409  1.6196 -1.6651
   53MOL   H33841002   5.084   6.309   2.826  1.1977 -2.9999  1.5306
   53MOL   H33941003   4.917   6.163   3.008  0.2615  2.0549 -0.7105
   53MOL   H34041004   5.164   6.074   2.845 -0.1326 -0.9025 -0.4535
   53MOL   H34141005   5.087   5.978   2.977 -0.9806 -1.4619 -1.2347
   53MOL   H34241006   5.130   6.148   3.148 -1.0193  0.1543  0.8747
   53MOL   H34341007   5.207   6.254   3.051 -0.1430  0.6000  0.4583
   53MOL   H34441008   5.116   6.402   3.224 -0.5728  1.3874 -1.4397
   53MOL   H34541009   4.957   6.343   3.193 -0.1809  1.1212  1.1915
   53MOL   H34641010   5.129   6.493   2.990 -0.8497  2.1881 -2.1272
   53MOL   H34741011   5.005   6.687   3.050 -0.4812  0.0951  0.4844
   53MOL   H34841012   4.887   6.582   3.148  0.0356 -1.1862 -0.6448
   53MOL   H34941013   5.121   6.935   3.477  0.1451  0.7698 -1.1704
   53MOL   H35041014   5.332   6.958   3.625 -1.6624  0.7815 -0.9297
   53MOL   H35141015   5.438   6.551   3.533  0.5234  0.4465  0.4036
   53MOL   H35241016   5.237   6.539   3.379  1.4623 -0.9936 -1.7217
   53MOL   C35341017   5.899   6.888   4.245  0.1978  0.2896 -0.4145
   53MOL   C35441018   5.814   6.828   4.133  0.0456  0.8058  0.0547
   53MOL   C35541019   5.773   6.925   4.024  0.0756  0.0682  0.0333
   53MOL   C35641020   5.656   6.866   3.939  0.4590  0.4711  0.2414
   53MOL   O35741021   5.656   6.904   3.809  0.2116  0.3839  0.6946
   53MOL   C35841022   5.732   7.057   4.092  0.6227 -0.3208 -0.3411
   53MOL   C35941023   5.834   7.109   4.196 -0.0159  0.0782  0.2809
   53MOL   C36041024   5.846   7.014   4.312  0.7344 -0.3178 -0.0352
   53MOL   C36141025   5.931   7.068   4.425  0.0542 -0.1240 -0.0112
   53MOL   O36241026   5.918   6.978   4.533 -0.0239  0.5111  0.0200
   53MOL   C36341027   5.931   7.016   4.661  0.4519 -0.4304 -0.5358
   53MOL   O36441028   5.954   7.130   4.695 -0.3797 -0.5046 -0.1058
   53MOL   C36541029   5.933   6.903   4.757  0.4100 -0.5349  0.1833
   53MOL   C36641030   5.940   6.766   4.712  0.5988  0.0984  0.3208
   53MOL   C36741031   5.949   6.658   4.807  0.1167  0.5275 -0.0226
   53MOL   C36841032   5.956   6.687   4.947  0.3612  0.4260 -0.1136
   53MOL   C36941033   5.976   6.574   5.041  0.2120  0.4677 -0.6678
   53MOL   O37041034   5.970   6.453   5.008  0.4177  0.0019  0.4112
   53MOL   O37141035   6.003   6.622   5.165 -0.0992 -0.3579  0.0860
   53MOL   C37241036   5.957   6.825   4.989 -0.2198 -0.1708  0.0810
   53MOL   C37341037   5.934   6.926   4.895  0.4525 -0.0532  0.4023
   53MOL   H37441038   5.899   6.806   4.318 -1.6807  1.9730  1.5519
   53MOL   H37541039   6.004   6.901   4.221 -0.1017  2.0555 -0.7830
   53MOL   H37641040   5.880   6.747   4.101  0.4022  1.1951 -0.1939
   53MOL   H37741041   5.729   6.771   4.170  0.3949 -0.0337 -0.4244
   53MOL   H37841042   5.861   6.940   3.961  0.9862  1.6361  1.6046
   53MOL   H37941043   5.656   6.757   3.942 -1.4236  0.4425 -0.4241
   53MOL   H38041044   5.564   6.880   3.997  0.9194  3.5227  0.2933
   53MOL   H38141045   5.708   7.136   4.021  0.2182  0.7481  0.9765
   53MOL   H38241046   5.642   7.033   4.148  2.2842 -3.6435  1.0598
   53MOL   H38341047   5.806   7.208   4.233 -0.3580  0.8102 -1.8465
   53MOL   H38441048   5.934   7.125   4.155  0.5256 -0.5861  1.3282
   53MOL   H38541049   5.750   6.999   4.361  0.3616 -0.6784 -0.8711
   53MOL   H38641050   6.033   7.097   4.401 -0.1754  1.4468  0.8114
   53MOL   H38741051   5.895   7.163   4.464 -0.3402 -1.3214  2.6143
   53MOL   H38841052   5.932   6.737   4.608  0.4148  1.7506 -0.1401
   53MOL   H38941053   5.960   6.558   4.767 -0.6962  0.4073  0.0464
   53MOL   H39041054   5.983   6.861   5.087 -0.6243 -0.8869  0.4536
   53MOL   H39141055   5.919   7.031   4.917  0.6010  0.6771 -2.8009
   53MOL   C39241056   5.505   6.466   5.319  0.3305 -0.4775  0.2748
   53MOL   C39341057   5.637   6.510   5.377  0.2192 -0.2464 -0.1507
   53MOL   C39441058   5.758   6.497   5.284 -0.4758 -0.0623 -0.5031
   53MOL   C39541059   5.887   6.527   5.360 -0.7707  0.3272 -0.5199
   53MOL   O39641060   6.005   6.511   5.273 -0.0891  0.0411  0.1782
   53MOL   C39741061   5.766   6.354   5.229  0.5019 -0.1136  0.6590
   53MOL   C39841062   5.639   6.323   5.152 -0.3105  0.4846  0.4258
   53MOL   C39941063   5.515   6.326   5.244  0.8633  0.1109 -0.6850
   53MOL   C40041064   5.388   6.302   5.169 -0.0247 -0.4448  0.2412
   53MOL   O40141065   5.281   6.307   5.257 -0.2404 -0.3822  0.7167
   53MOL   C40241066   5.163   6.266   5.217 -0.0905 -0.1041 -0.3363
   53MOL   O40341067   5.139   6.224   5.107  0.4509 -0.0865 -0.0215
   53MOL   C40441068   5.056   6.266   5.325 -0.5675 -0.3810 -0.8145
   53MOL   C40541069   5.087   6.296   5.458  0.0609  0.0123  0.0397
   53MOL   C40641070   4.979   6.292   5.548  0.3830  0.0268  0.0618
   53MOL   C40741071   4.846   6.256   5.508 -0.5693  0.6200 -0.3588
   53MOL   C40841072   4.734   6.253   5.608 -0.9876 -0.3388 -0.2221
   53MOL   O40941073   4.751   6.221   5.729  0.1398  0.1619 -0.2052
   53MOL   O41041074   4.623   6.288   5.540 -0.1123 -0.5401 -0.1269
   53MOL   C41141075   4.821   6.225   5.375  0.4002  0.7054  0.4157
   53MOL   C41241076   4.931   6.218   5.288  0.1251 -0.5473  0.7573
   53MOL   H41341077   5.433   6.476   5.399 -0.6761 -0.8305 -0.5720
   53MOL   H41441078   5.485   6.535   5.237 -0.8926  1.2358  1.9639
   53MOL   H41541079   5.628   6.604   5.432  1.7706 -0.1428 -0.0372
   53MOL   H41641080   5.661   6.444   5.460  2.2955 -1.2684 -1.5038
   53MOL   H41741081   5.754   6.573   5.206  0.6646 -1.4166 -1.9323
   53MOL   H41841082   5.882   6.629   5.399  0.3442  0.0537  0.3598
   53MOL   H41941083   5.903   6.456   5.441 -3.8774 -1.0673 -1.0578
   53MOL   H42041084   5.858   6.332   5.174  2.1642 -0.3715  3.4768
   53MOL   H42141085   5.774   6.275   5.304 -0.3409  0.3329  1.2170
   53MOL   H42241086   5.638   6.223   5.109 -2.4409  0.8876 -0.5431
   53MOL   H42341087   5.624   6.387   5.065 -1.3084 -0.1187  0.1559
   53MOL   H42441088   5.539   6.251   5.319 -0.4184 -0.1890 -0.5638
   53MOL   H42541089   5.366   6.361   5.080  0.9716  0.3187  0.4964
   53MOL   H42641090   5.400   6.200   5.133 -0.6092 -0.5836  0.4260
   53MOL   H42741091   5.185   6.330   5.490  0.4098 -1.7024  0.8356
   53MOL   H42841092   5.013   6.330   5.643  0.3018 -0.0741  0.1324
   53MOL   H42941093   4.725   6.207   5.330  0.0723 -0.8850  1.6992
   53MOL   H43041094   4.912   6.189   5.186 -0.6829 -0.3330  0.8490
   53MOL   C43141095   4.081   6.320   5.754  0.3087  0.3527  0.7117
   53MOL   C43241096   4.209   6.331   5.660  0.2438 -0.1057  0.7383
   53MOL   C43341097   4.257   6.196   5.603  0.3570 -0.0765 -0.3348
   53MOL   C43441098   4.397   6.201   5.536 -0.3666  0.5187  0.4706
   53MOL   O43541099   4.500   6.257   5.620 -0.6301  0.4793  0.5289
   53MOL   C43641100   4.259   6.084   5.716  0.3812 -0.4950  0.4640
   53MOL   C43741101   4.125   6.068   5.796  0.3616 -0.2376  0.0895
   53MOL   C43841102   4.085   6.211   5.862  0.0248 -0.6467  0.2981
   53MOL   C43941103   3.960   6.203   5.957  0.0695  0.0237 -0.2520
   53MOL   O44041104   3.988   6.110   6.052 -0.9212 -0.5728  0.2199
   53MOL   C44141105   4.039   6.153   6.173  0.5885  0.3085 -0.6160
   53MOL   O44241106   4.075   6.270   6.190 -0.4223  0.0218 -0.0975
   53MOL   C44341107   4.041   6.046   6.279 -0.6437  0.9011  0.8091
   53MOL   C44441108   4.084   6.089   6.406 -0.4263  0.0877  0.4438
   53MOL   C44541109   4.111   5.990   6.504 -0.4650  1.0745  0.5725
   53MOL   C44641110   4.088   5.848   6.481 -0.2715  0.0256 -0.4873
   53MOL   C44741111   4.128   5.741   6.578  0.2472  0.2887 -0.3122
   53MOL   O44841112   4.182   5.757   6.684  0.2223 -0.3178  0.6032
   53MOL   O44941113   4.126   5.617   6.525  0.2924  0.4432  0.3293
   53MOL   C45041114   4.033   5.811   6.354 -0.0576 -0.1230 -0.5111
   53MOL   C45141115   4.011   5.910   6.258  0.0563 -0.1511  0.1695
   53MOL   H45241116   4.046   6.416   5.793  0.5614  0.6682  0.1647
   53MOL   H45341117   4.003   6.283   5.688 -0.5831  1.2526  1.2386
   53MOL   H45441118   4.175   6.392   5.576 -1.3071  0.6277  1.8751
   53MOL   H45541119   4.291   6.381   5.712  1.4456 -2.4374  1.1957
   53MOL   H45641120   4.178   6.166   5.533 -0.5265 -1.3914  1.1996
   53MOL   H45741121   4.434   6.111   5.487  0.6409  0.3338  1.5728
   53MOL   H45841122   4.391   6.274   5.455 -1.7300  1.2171  1.1965
   53MOL   H45941123   4.284   5.989   5.669  1.4146  0.0278 -0.0561
   53MOL   H46041124   4.333   6.114   5.790 -0.2963  2.8355 -0.1324
   53MOL   H46141125   4.131   5.992   5.874 -2.0892 -0.1632  0.4063
   53MOL   H46241126   4.049   6.028   5.728  0.3119  0.7194 -0.4279
   53MOL   H46341127   4.169   6.235   5.927 -0.2688 -0.4103  0.5896
   53MOL   H46441128   3.935   6.303   5.992  2.6111  0.3930  0.5716
   53MOL   H46541129   3.868   6.187   5.901 -0.1359  0.9712 -0.1944
   53MOL   H46641130   4.109   6.193   6.423  0.6912  0.0028 -0.6088
   53MOL   H46741131   4.165   6.013   6.595 -0.0236 -0.6442  0.7759
   53MOL   H46841132   4.015   5.705   6.347  1.4648 -0.3545 -0.9399
   53MOL   H46941133   3.966   5.878   6.165 -2.0495  1.3906  0.6180
   53MOL   C47041134   3.849   5.597   6.952  0.0192 -0.0343  0.1283
   53MOL   C47141135   3.916   5.595   6.815 -0.0752 -0.9354 -0.3548
   53MOL   C47241136   3.965   5.452   6.782 -0.1710  0.5790  0.8009
   53MOL   C47341137   4.031   5.438   6.646  0.4591  0.3302  0.0287
   53MOL   O47441138   4.148   5.506   6.626 -0.3867  0.2508 -0.1772
   53MOL   C47541139   4.063   5.399   6.886  0.1927 -0.0624 -0.2927
   53MOL   C47641140   3.990   5.398   7.023 -0.0542  0.4519 -0.1753
   53MOL   C47741141   3.925   5.533   7.068  0.7595 -0.3247  0.2696
   53MOL   C47841142   3.837   5.509   7.193  0.6717 -0.2950 -0.8342
   53MOL   O47941143   3.925   5.523   7.306 -0.2675  0.0792  0.0056
   53MOL   C48041144   3.885   5.598   7.409 -0.7299  0.0685 -0.6638
   53MOL   O48141145   3.778   5.663   7.416 -0.4429 -0.1379  0.3750
   53MOL   C48241146   3.984   5.596   7.528  0.2932  1.0215  0.0500
   53MOL   C48341147   4.099   5.508   7.514  0.0347 -0.5701 -0.0346
   53MOL   C48441148   4.184   5.493   7.627  0.2839  0.1263  0.3686
   53MOL   C48541149   4.177   5.578   7.740  0.2762  0.1802  0.1822
   53MOL   C48641150   4.271   5.554   7.855  0.3969 -0.3845 -0.0741
   53MOL   O48741151   4.367   5.482   7.851 -0.0807  0.1407 -0.3329
   53MOL   O48841152   4.240   5.615   7.971 -0.4297 -0.6853 -0.0938
   53MOL   C48941153   4.073   5.671   7.749 -0.9395  0.3130  0.7542
   53MOL   C49041154   3.977   5.676   7.643 -0.3180 -0.7430 -0.8558
   53MOL   H49141155   3.804   5.693   6.978  0.2347  0.0237  0.2849
   53MOL   H49241156   3.758   5.541   6.934 -0.2865  0.2374  0.8024
   53MOL   H49341157   3.849   5.620   6.733 -0.3913  1.6188  0.6578
   53MOL   H49441158   4.007   5.655   6.814 -0.3589 -0.5007 -0.0040
   53MOL   H49541159   3.878   5.386   6.783  0.4735 -0.2835  1.1729
   53MOL   H49641160   4.055   5.334   6.624  0.5623 -0.4853  3.7702
   53MOL   H49741161   3.963   5.448   6.561  1.6081  1.4634 -0.7826
   53MOL   H49841162   4.093   5.295   6.870  1.7681  0.3946 -0.3333
   53MOL   H49941163   4.150   5.463   6.893 -1.3567  1.8785  1.7185
   53MOL   H50041164   4.048   5.349   7.102 -2.5046  0.9488  1.9986
   53MOL   H50141165   3.915   5.319   7.017  0.8004 -0.4514  0.9033
   53MOL   H50241166   4.005   5.602   7.096 -1.2326  2.1392  0.0117
   53MOL   H50341167   3.762   5.588   7.187  3.1603  2.2928  0.7211
   53MOL   H50441168   3.796   5.408   7.190  2.3775 -1.1641  2.5622
   53MOL   H50541169   4.114   5.465   7.416  0.6632  0.3813 -0.3655
   53MOL   H50641170   4.270   5.428   7.617 -0.1420 -0.3436 -0.3402
   53MOL   H50741171   4.063   5.725   7.842 -1.3600 -0.9288  1.4385
   53MOL   H50841172   3.889   5.738   7.652 -1.1401 -2.1539  1.4194
   53MOL   C50941173   4.402   6.047   0.158 -0.0979  0.7555  0.3636
   53MOL   C51041174   4.460   5.917   0.117 -0.4160 -0.7885  0.2977
   53MOL   C51141175   4.358   5.806   0.123 -0.0274  0.4215  0.5098
   53MOL   C51241176   4.419   5.674   0.077  0.0531  0.0421  0.5750
   53MOL   O51341177   4.326   5.569   0.049 -0.8775 -0.3240 -0.5250
   53MOL   C51441178   4.289   5.790   0.263 -0.0054 -0.6739 -0.4509
   53MOL   C51541179   4.252   5.930   0.325  0.1666 -1.0887  0.5909
   53MOL   C51641180   4.349   6.046   0.306  0.3808 -0.7319  0.0362
   53MOL   C51741181   4.287   6.186   0.328  0.7730  0.3558  0.1396
   53MOL   O51841182   4.385   6.281   0.360  0.4270  0.0445 -0.0020
   53MOL   C51941183   4.348   6.398   0.421 -0.6421  0.4506  0.7018
   53MOL   O52041184   4.232   6.424   0.456 -0.2045 -0.1516  0.3278
   53MOL   C52141185   4.466   6.479   0.473  0.4476 -0.3098 -0.3330
   53MOL   C52241186   4.457   6.621   0.499  0.4160  0.6151  0.3088
   53MOL   C52341187   4.575   6.696   0.534 -0.0782 -0.2254 -0.2952
   53MOL   C52441188   4.695   6.625   0.567  0.3348 -0.2039  0.5289
   53MOL   C52541189   4.815   6.697   0.623  0.6966 -0.8576 -0.3259
   53MOL   O52641190   4.818   6.818   0.643 -1.0416  0.1116  0.1171
   53MOL   O52741191   4.922   6.619   0.649  0.5467  0.1439  0.3113
   53MOL   C52841192   4.708   6.484   0.544  0.3042 -0.3479 -0.1225
   53MOL   C52941193   4.593   6.416   0.489 -0.3153  0.6307 -0.7436
   53MOL   H53041194   4.474   6.127   0.137  0.7555  0.0515  0.5848
   53MOL   H53141195   4.319   6.069   0.090 -0.2820 -0.2732  0.2476
   53MOL   H53241196   4.491   5.924   0.013 -0.6255 -0.0114  0.2816
   53MOL   H53341197   4.549   5.904   0.178  0.8343 -3.0607 -1.9406
   53MOL   H53441198   4.286   5.846   0.052  0.8171  0.7256 -0.1855
   53MOL   H53541199   4.481   5.687   8.024 -2.7703 -0.0784 -1.4768
   53MOL   H53641200   4.492   5.636   0.149  0.8852 -0.6962 -0.6488
   53MOL   H53741201   4.202   5.725   0.261  0.5238 -1.5459  2.5863
   53MOL   H53841202   4.368   5.751   0.328  1.4908 -0.0912 -1.8860
   53MOL   H53941203   4.226   5.911   0.429  0.8394 -1.1488  0.7459
   53MOL   H54041204   4.161   5.956   0.269 -0.3042 -0.7547  1.5015
   53MOL   H54141205   4.433   6.014   0.368  0.9339  0.7883  0.0917
   53MOL   H54241206   4.239   6.215   0.235 -0.7613 -2.7973 -0.1316
   53MOL   H54341207   4.214   6.191   0.410 -0.3212  2.3737 -0.9142
   53MOL   H54441208   4.365   6.673   0.476 -0.2463 -1.2019 -1.2332
   53MOL   H54541209   4.582   6.803   0.552  0.5700 -0.0145 -1.6962
   53MOL   H54641210   4.804   6.434   0.553 -0.2257 -1.2883  0.3189
   53MOL   H54741211   4.595   6.311   0.465 -1.6312  0.6751 -1.0627
   53MOL   C54841212   5.444   6.855   0.712 -0.1858  0.3712 -0.1899
   53MOL   C54941213   5.323   6.778   0.684  0.4650  0.0414  0.1293
   53MOL   C55041214   5.232   6.763   0.805  0.0594  0.4716  0.7351
   53MOL   C55141215   5.097   6.689   0.786  0.3135 -0.4142 -0.3883
   53MOL   O55241216   5.044   6.699   0.650  0.3009  0.1409 -0.4936
   53MOL   C55341217   5.302   6.708   0.925 -0.0436 -0.1544  0.0042
   53MOL   C55441218   5.448   6.770   0.944 -0.1604  0.4661  0.5504
   53MOL   C55541219   5.530   6.780   0.817 -0.0683 -0.1435  0.5546
   53MOL   C55641220   5.664   6.853   0.843  0.5352 -0.1584  0.7187
   53MOL   O55741221   5.728   6.884   0.720 -0.1523 -0.0252  0.1122
   53MOL   C55841222   5.846   6.929   0.719 -0.0688  0.1328 -0.2120
   53MOL   O55941223   5.911   6.966   0.817  0.1974 -0.3061  0.9585
   53MOL   C56041224   5.897   6.936   0.581 -0.1681 -0.0842  0.0563
   53MOL   C56141225   5.999   7.032   0.562 -0.1701  0.8432 -0.1584
   53MOL   C56241226   6.038   7.062   0.432  0.0714  0.6713 -0.2872
   53MOL   C56341227   5.972   7.007   0.322  0.0869  0.6750 -0.6202
   53MOL   C56441228   6.010   7.057   0.185  0.0329  0.1205 -0.0049
   53MOL   O56541229   6.106   7.130   0.154 -0.0834 -1.2103  0.4039
   53MOL   O56641230   5.927   7.006   0.091 -0.1539  0.0748 -0.5268
   53MOL   C56741231   5.874   6.911   0.337 -0.2144  0.0652 -0.0317
   53MOL   C56841232   5.836   6.870   0.469  0.0867 -0.4027 -0.0242
   53MOL   H56941233   5.500   6.882   0.622  0.0648  3.7984  0.9169
   53MOL   H57041234   5.425   6.956   0.749  2.3181  0.8744 -0.1462
   53MOL   H57141235   5.259   6.818   0.605 -0.0299 -3.2252 -1.2044
   53MOL   H57241236   5.346   6.676   0.652  1.2686 -0.4745  2.2961
   53MOL   H57341237   5.197   6.862   0.836  0.1784  0.5767  0.5333
   53MOL   H57441238   5.102   6.586   0.820 -0.8160 -0.6954 -1.0465
   53MOL   H57541239   5.026   6.731   0.856 -0.3154 -1.5555 -0.3285
   53MOL   H57641240   5.246   6.707   1.018 -1.1321 -1.1931 -0.6473
   53MOL   H57741241   5.313   6.602   0.900  1.4948  0.4671 -2.0808
   53MOL   H57841242   5.513   6.718   1.015 -2.1961 -3.7127 -0.4857
   53MOL   H57941243   5.416   6.868   0.980 -1.0729 -0.1519  1.4510
   53MOL   H58041244   5.526   6.674   0.790 -1.8288  0.3062 -1.0648
   53MOL   H58141245   5.648   6.943   0.902  0.5103  0.3494 -0.0545
   53MOL   H58241246   5.725   6.780   0.896  1.2410  0.1700  0.3666
   53MOL   H58341247   6.044   7.089   0.642 -0.8766  1.5006 -0.2254
   53MOL   H58441248   6.125   7.124   0.412  1.3840 -1.5201 -1.7557
   53MOL   H58541249   5.809   6.876   0.259 -1.8892 -2.6201  2.4673
   53MOL   H58641250   5.750   6.808   0.488 -0.2837  0.1197  0.0318
   53MOL   C58741251   5.652   7.346   7.687 -0.4707 -0.5099 -0.9296
   53MOL   C58841252   5.683   7.319   7.841  0.0119 -0.5445 -0.0876
   53MOL   C58941253   5.783   7.202   7.847  0.1037  0.4332  0.0340
   53MOL   C59041254   5.815   7.163   7.992  0.2092 -0.4561 -0.3251
   53MOL   O59141255   5.931   7.083   8.001  0.3823 -0.4032 -0.1989
   53MOL   C59241256   5.758   7.086   7.744  0.3432 -0.2471  0.1722
   53MOL   C59341257   5.717   7.127   7.600  0.5588 -0.0520  0.6244
   53MOL   C59441258   5.600   7.222   7.610 -0.5014 -0.0683  0.0153
   53MOL   C59541259   5.540   7.251   7.468 -0.0049  0.0984  0.3915
   53MOL   O59641260   5.634   7.336   7.393 -1.2820  0.3360  0.1227
   53MOL   C59741261   5.679   7.306   7.270  0.7409  0.3381  0.2000
   53MOL   O59841262   5.626   7.223   7.198  0.4024  0.2571 -0.1518
   53MOL   C59941263   5.799   7.387   7.228 -0.7999 -0.1193  0.5822
   53MOL   C60041264   5.844   7.393   7.096  0.4315 -0.5978  0.2946
   53MOL   C60141265   5.961   7.465   7.065  0.1314 -0.0760 -0.7394
   53MOL   C60241266   6.038   7.533   7.163  0.5512  0.8750  0.2282
   53MOL   C60341267   6.161   7.604   7.119  0.1904 -0.8787 -0.8919
   53MOL   O60441268   6.243   7.547   7.050 -0.0514 -0.8467  0.2411
   53MOL   O60541269   6.187   7.728   7.180  0.1231  0.1476 -0.5629
   53MOL   C60641270   5.992   7.533   7.294 -0.2511  0.0329 -0.8741
   53MOL   C60741271   5.876   7.455   7.328  0.0474 -0.2911  0.7592
   53MOL   H60841272   5.589   7.434   7.677  0.7590  0.3745 -0.8667
   53MOL   H60941273   5.740   7.386   7.638 -0.2682  2.6124  1.8229
   53MOL   H61041274   5.732   7.409   7.878 -0.3531 -0.1461 -0.5621
   53MOL   H61141275   5.589   7.315   7.897 -0.1291  0.4839 -0.2270
   53MOL   H61241276   5.879   7.235   7.806 -0.0387  0.6935 -0.0839
   53MOL   H61341277   5.821   7.261   0.004 -2.8667 -0.0544 -0.6639
   53MOL   H61441278   5.735   7.118   0.016 -0.8578  0.9758 -0.6291
   53MOL   H61541279   5.856   7.038   7.734  0.0599 -0.8476  0.2431
   53MOL   H61641280   5.687   7.019   7.793 -0.5333  0.4912 -0.0858
   53MOL   H61741281   5.668   7.040   7.555  1.2500 -0.1179 -0.0157
   53MOL   H61841282   5.799   7.157   7.534  0.1090  1.7229  0.8442
   53MOL   H61941283   5.524   7.170   7.669 -1.7455  1.5350 -0.1444
   53MOL   H62041284   5.509   7.163   7.412 -0.5666  0.1901  0.5508
   53MOL   H62141285   5.448   7.305   7.495 -1.3321 -1.5423 -0.7525
   53MOL   H62241286   5.797   7.335   7.018  0.6979 -0.3321 -0.0646
   53MOL   H62341287   5.982   7.466   6.959  0.9438 -1.7675 -0.6097
   53MOL   H62441288   6.049   7.580   7.373 -0.8570 -1.0882  0.2341
   53MOL   H62541289   5.842   7.451   7.430  0.7875  0.7544  1.0607
   53MOL   C62641290   6.421   0.100   7.414 -0.4432 -0.1489 -0.2906
   53MOL   C62741291   6.447   8.027   7.307  0.1617  0.5366  0.0807
   53MOL   C62841292   6.386   7.886   7.353 -0.6544  0.7312  1.0632
   53MOL   C62941293   6.407   7.766   7.252  0.1843 -0.5901 -0.1173
   53MOL   O63041294   6.322   7.782   7.142 -0.0408 -0.0387 -0.3837
   53MOL   C63141295   6.438   7.852   7.495 -0.4580  0.6264 -0.1831
   53MOL   C63241296   6.424   7.959   7.603 -0.2279  0.2759 -0.4653
   53MOL   C63341297   6.481   0.060   7.550 -0.5061 -0.6975  0.1510
   53MOL   C63441298   6.474   0.177   7.651 -0.4452 -0.0986  0.7750
   53MOL   O63541299   6.559   0.140   7.761  0.0269  0.1308  0.2581
   53MOL   C63641300   6.587   0.213   7.866 -0.3756  0.0445 -0.3655
   53MOL   O63741301   6.543   0.326   7.874  0.0750  0.0538 -0.5931
   53MOL   C63841302   6.659   0.144   7.969  0.0587  0.1088  0.1639
   53MOL   C63941303   6.661   0.206   0.062 -0.5634 -0.0699 -0.6805
   53MOL   C64041304   6.726   0.146   0.172  0.1912 -0.4190  0.4507
   53MOL   C64141305   6.801   0.029   0.156 -0.0770  0.2658  0.2099
   53MOL   C64241306   6.874   8.004   0.272  0.3846 -0.7846  0.2994
   53MOL   O64341307   6.890   0.026   0.381 -0.1513  0.6947 -0.4022
   53MOL   O64441308   6.917   7.880   0.255 -1.1411 -0.2453  0.2494
   53MOL   C64541309   6.793   8.002   0.026  0.3871  0.6423 -0.5618
   53MOL   C64641310   6.730   0.024   7.952  0.1367 -0.7662  0.8560
   53MOL   H64741311   6.479   0.188   7.385 -0.7593 -0.2771 -1.3455
   53MOL   H64841312   6.316   0.121   7.433 -0.2431  0.5554  0.0226
   53MOL   H64941313   6.414   0.022   7.207  0.4320 -0.6816 -0.3864
   53MOL   H65041314   6.555   8.009   7.305 -0.0770 -0.9427 -1.5424
   53MOL   H65141315   6.277   7.893   7.360 -0.7064  0.4113  0.5980
   53MOL   H65241316   6.510   7.763   7.218 -0.1264 -2.8470 -0.9691
   53MOL   H65341317   6.382   7.678   7.312  0.2102  0.2053  1.0745
   53MOL   H65441318   6.396   7.763   7.542  3.5925 -1.5913 -0.4967
   53MOL   H65541319   6.540   7.817   7.476 -0.5898 -0.9426  1.8792
   53MOL   H65641320   6.467   7.930   7.698 -3.0714 -1.2841  0.4211
   53MOL   H65741321   6.318   7.971   7.629 -0.0349  0.8748  0.0619
   53MOL   H65841322   6.587   0.039   7.535 -0.4978 -0.9043  0.4953
   53MOL   H65941323   6.509   0.270   7.608 -1.0652 -0.4765 -0.5576
   53MOL   H66041324   6.372   0.193   7.684 -0.9209 -1.2969 -0.0869
   53MOL   H66141325   6.603   0.297   0.071 -0.2028 -0.1024  2.1559
   53MOL   H66241326   6.734   0.202   0.264 -0.3828  1.3823 -0.5747
   53MOL   H66341327   6.842   7.906   0.017  0.6167  0.7680 -0.6152
   53MOL   H66441328   6.737   8.005   7.859  1.6631  1.2963 -0.2762
   53MOL   C66541329   7.249   7.845   7.981 -0.0217  0.0674  0.0620
   53MOL   C66641330   7.170   7.892   0.072  0.5724 -0.0810  1.0136
   53MOL   C66741331   7.202   7.816   0.202  1.1177 -0.4901 -0.0987
   53MOL   C66841332   7.144   7.871   0.334  0.2639 -0.5685  0.0326
   53MOL   O66941333   7.005   7.821   0.365 -0.3370 -0.3004  0.0132
   53MOL   C67041334   7.182   7.663   0.174  0.1559 -1.1863  0.1811
   53MOL   C67141335   7.251   7.610   0.042  0.0230  0.2255  0.2349
   53MOL   C67241336   7.228   7.702   7.949  0.0475  0.1857  0.1284
   53MOL   C67341337   7.309   7.645   7.831  0.1499  0.4058 -1.1822
   53MOL   O67441338   7.254   7.686   7.706  0.2332  0.2108  0.1107
   53MOL   C67541339   7.299   7.794   7.642  0.0383 -0.1605 -0.1024
   53MOL   O67641340   7.379   7.869   7.694 -0.5491 -0.0317 -0.0626
   53MOL   C67741341   7.244   7.812   7.503 -1.3788 -0.5667 -0.7769
   53MOL   C67841342   7.309   7.912   7.423 -0.1597 -0.2147  0.2420
   53MOL   C67941343   7.266   7.932   7.292  0.8469 -0.7865 -0.5938
   53MOL   C68041344   7.160   7.860   7.234 -0.6220  0.2966 -0.8619
   53MOL   C68141345   7.119   7.880   7.095  0.1249  0.7781 -0.0067
   53MOL   O68241346   7.036   7.804   7.047 -0.1489  0.2964  0.2728
   53MOL   O68341347   7.178   7.985   7.026  0.0475  0.4750  0.0111
   53MOL   C68441348   7.110   7.752   7.318  0.0170  0.2757  0.5230
   53MOL   C68541349   7.143   7.728   7.454  0.5288 -0.2210 -0.1172
   53MOL   H68641350   7.213   7.897   7.892  0.6341  0.8627  0.2589
   53MOL   H68741351   7.356   7.865   7.981  0.2331 -1.1595 -1.3948
   53MOL   H68841352   7.199   7.996   0.085  2.3177 -0.5485  1.1184
   53MOL   H68941353   7.064   7.885   0.052  1.0426 -2.9509 -0.7722
   53MOL   H69041354   7.309   7.822   0.222  0.8739 -1.7446  1.7663
   53MOL   H69141355   7.192   7.841   0.427  0.0571  1.1152  0.6979
   53MOL   H69241356   7.142   7.979   0.326 -0.6314 -0.7896 -3.6948
   53MOL   H69341357   7.213   7.617   0.268 -0.2903 -1.0295  0.4067
   53MOL   H69441358   7.077   7.632   0.173  0.6665 -2.9809 -0.7636
   53MOL   H69541359   7.215   7.508   0.027  1.0304 -0.2643  1.0627
   53MOL   H69641360   7.356   7.585   0.060 -0.2844 -0.0349  1.7938
   53MOL   H69741361   7.121   7.700   7.929 -0.4150 -0.6314  2.4997
   53MOL   H69841362   7.414   7.668   7.849 -0.7304  1.2506  3.5508
   53MOL   H69941363   7.293   7.537   7.834  0.4959  0.3536 -1.1313
   53MOL   H70041364   7.396   7.969   7.452  1.6948 -2.2882 -1.0184
   53MOL   H70141365   7.329   8.004   7.241  1.1580 -0.5630  0.0897
   53MOL   H70241366   7.032   7.689   7.278 -1.0684  1.1131  1.2927
   53MOL   H70341367   7.092   7.651   7.509 -2.1299  2.2901  1.0322
   53MOL   C70441368   7.266   0.014   6.453  0.4478 -0.2071 -0.1812
   53MOL   C70541369   7.252   0.023   6.602 -0.0012  0.3420 -1.1087
   53MOL   C70641370   7.296   7.934   6.680  0.5743  0.4065  0.0316
   53MOL   C70741371   7.299   7.945   6.828  0.0617  0.3441 -0.1301
   53MOL   O70841372   7.174   7.977   6.872  0.4967  0.3506 -0.3797
   53MOL   C70941373   7.219   7.808   6.629 -0.8818 -0.5916  0.4306
   53MOL   C71041374   7.233   7.793   6.478 -0.2475 -0.1460  0.3558
   53MOL   C71141375   7.186   7.927   6.407  0.1893  0.4379 -0.6517
   53MOL   C71241376   7.190   7.917   6.256 -0.0615  0.6549  0.1725
   53MOL   O71341377   7.086   7.837   6.209  0.2274 -0.1477  0.0442
   53MOL   C71441378   7.104   7.704   6.169 -0.4514 -0.6417 -0.1237
   53MOL   O71541379   7.203   7.641   6.183  0.0410 -0.1933  0.1748
   53MOL   C71641380   6.973   7.641   6.118 -0.3901  0.0619  0.1838
   53MOL   C71741381   6.972   7.502   6.097  0.6384  0.7921 -0.4327
   53MOL   C71841382   6.851   7.446   6.058  0.2351 -0.5731 -0.0297
   53MOL   C71941383   6.741   7.525   6.029 -0.4992  0.1098  0.5621
   53MOL   C72041384   6.615   7.467   5.979  0.1985  0.0910  1.2171
   53MOL   O72141385   6.596   7.352   5.960  0.2340 -0.3190  0.1284
   53MOL   O72241386   6.527   7.560   5.960 -0.2836  0.6703  0.3041
   53MOL   C72341387   6.748   7.667   6.043  0.7170 -0.3981 -0.3722
   53MOL   C72441388   6.861   7.726   6.096  0.3715 -0.7138  0.1741
   53MOL   H72541389   7.233   0.095   6.387  1.7759 -0.0319 -0.6412
   53MOL   H72641390   7.371   8.032   6.432  0.5320  1.1744 -1.0049
   53MOL   H72741391   7.314   0.100   6.648 -0.8107 -1.0429  2.4199
   53MOL   H72841392   7.148   0.048   6.620  0.5751  0.0723  2.9691
   53MOL   H72941393   7.397   7.910   6.648 -0.0744 -1.6185 -0.6217
   53MOL   H73041394   7.337   7.857   6.879 -0.4980 -1.2436 -2.4160
   53MOL   H73141395   7.364   8.028   6.857 -0.8233  0.9940  0.0187
   53MOL   H73241396   7.268   7.722   6.675 -0.9802 -1.0362 -0.2892
   53MOL   H73341397   7.115   7.813   6.661 -0.7269  1.6083  0.6302
   53MOL   H73441398   7.175   7.707   6.445 -0.6964 -0.6240  2.2898
   53MOL   H73541399   7.334   7.771   6.443  0.8996  1.1796  2.7233
   53MOL   H73641400   7.083   7.947   6.434 -0.2072 -0.9230 -1.1376
   53MOL   H73741401   7.167   8.009   6.202 -2.5808 -1.4092 -2.3514
   53MOL   H73841402   7.283   7.882   6.212 -0.8291  1.7107 -2.3798
   53MOL   H73941403   7.062   7.446   6.115  2.9090  3.8375 -1.7121
   53MOL   H74041404   6.853   7.338   6.049  2.1653 -0.8147  2.7160
   53MOL   H74141405   6.663   7.727   6.012  2.6560  1.6219 -1.9211
   53MOL   H74241406   6.861   7.831   6.120  0.7000 -0.4297 -1.0222
   53MOL   C74341407   6.135   7.907   6.069 -0.1958  0.1087  0.3819
   53MOL   C74441408   6.153   7.759   6.077  0.1049  0.0983  0.4923
   53MOL   C74541409   6.268   7.707   5.987  0.0956  0.1169 -0.6604
   53MOL   C74641410   6.291   7.546   5.987  0.1043 -0.1167  0.3077
   53MOL   O74741411   6.396   7.510   5.896  0.2094 -0.3248  0.3595
   53MOL   C74841412   6.258   7.765   5.843 -0.0093 -0.9444  0.5640
   53MOL   C74941413   6.254   7.918   5.840  0.1061  0.3633  0.0153
   53MOL   C75041414   6.139   7.969   5.926 -0.5615 -0.1924  0.8077
   53MOL   C75141415   6.137   0.090   5.919 -0.4136 -0.5633  0.2880
   53MOL   O75241416   6.112   0.124   5.784 -0.4993 -0.0133 -0.2299
   53MOL   C75341417   6.112   0.252   5.741 -0.9602 -0.2510  0.1016
   53MOL   O75441418   6.119   0.346   5.822 -0.0571 -0.9059 -0.2713
   53MOL   C75541419   6.078   0.270   5.596  0.2530  0.6496  0.0885
   53MOL   C75641420   6.063   0.403   5.540 -0.3098  0.4562  0.3017
   53MOL   C75741421   6.039   0.424   5.403 -0.1663  0.9602  0.2464
   53MOL   C75841422   6.031   0.310   5.313 -0.2048  0.4415 -0.8296
   53MOL   C75941423   6.009   0.327   5.163 -0.1518  0.0892 -0.4773
   53MOL   O76041424   5.964   0.236   5.092  0.1864  0.1662  0.4091
   53MOL   O76141425   6.036   0.453   5.113 -0.8176 -0.0521 -0.2413
   53MOL   C76241426   6.055   0.181   5.367 -0.1637  0.0821  0.5929
   53MOL   C76341427   6.075   0.163   5.506  0.1575 -0.3715 -0.0580
   53MOL   H76441428   6.046   7.945   6.119  0.2402  0.3596  0.9650
   53MOL   H76541429   6.216   7.950   6.127  0.5131 -0.7219  0.0143
   53MOL   H76641430   6.174   7.735   6.181 -3.7737  2.2611  1.8815
   53MOL   H76741431   6.057   7.717   6.048  0.2995  0.3372 -0.5268
   53MOL   H76841432   6.363   7.745   6.024 -0.3627 -0.0185  0.6602
   53MOL   H76941433   6.313   7.504   6.085  0.6163 -2.3404 -0.7419
   53MOL   H77041434   6.201   7.498   5.948 -0.7704  1.5734  0.1691
   53MOL   H77141435   6.337   7.721   5.783 -1.6201 -1.6364 -1.0707
   53MOL   H77241436   6.163   7.726   5.807 -1.3285  3.5942 -1.3041
   53MOL   H77341437   6.256   7.963   5.741  1.5255  0.1056 -0.0832
   53MOL   H77441438   6.341   7.958   5.892 -0.4547  0.5587  0.8167
   53MOL   H77541439   6.046   7.944   5.875  0.2075  3.6338 -2.7582
   53MOL   H77641440   6.050   0.120   5.978 -0.4782  1.1019 -0.6476
   53MOL   H77741441   6.234   0.120   5.958 -0.1611  0.0512 -0.8324
   53MOL   H77841442   6.068   0.490   5.603  0.4741  1.2145 -0.7986
   53MOL   H77941443   6.028   0.519   5.353  0.0942  0.6057 -0.4877
   53MOL   H78041444   6.044   0.096   5.302  0.3908  0.1253  0.4430
   53MOL   H78141445   6.098   0.064   5.543  0.0462  0.4202  2.2056
   53MOL   H78241446   6.012   0.441   5.022  3.7069 -0.7147 -1.4630
   54MOL     C141447   6.838   3.849   4.711 -0.7864  0.0014  0.0959
   54MOL     C241448   6.703   3.869   4.644  0.8773 -0.2661 -0.0603
   54MOL     C341449   6.661   3.728   4.583 -0.0387 -0.4907  0.5682
   54MOL     C441450   6.517   3.705   4.532  0.0214  0.1306  0.9208
   54MOL     O541451   6.419   3.773   4.602  0.1854 -0.1192  0.6010
   54MOL     C641452   6.765   3.668   4.485 -0.8398  0.4175 -0.4618
   54MOL     C741453   6.895   3.647   4.560  0.4507  0.4030  0.0737
   54MOL     C841454   6.940   3.778   4.623 -0.2557  1.2708 -0.3415
   54MOL     C941455   7.072   3.745   4.708 -0.4950  0.0700  0.2707
   54MOL    O1041456   7.171   3.694   4.619  0.5361  0.4746 -0.2174
   54MOL    C1141457   7.264   3.787   4.592 -0.0073 -0.6501 -0.1248
   54MOL    O1241458   7.251   3.905   4.631  0.5894  0.1871 -0.2702
   54MOL    C1341459   7.369   3.750   4.494  0.1797  0.9045 -0.1263
   54MOL    C1441460   7.364   3.631   4.418  0.0085  0.1415 -0.4888
   54MOL    C1541461   7.479   3.579   4.356  0.2112  0.2168 -0.0247
   54MOL    C1641462   7.589   3.664   4.331  0.3660  0.3122 -0.4207
   54MOL    C1741463   7.707   3.622   4.250  0.4295  0.0144  0.6706
   54MOL    O1841464   7.723   3.507   4.210 -0.5232  0.1215  0.5515
   54MOL    O1941465   7.796   3.724   4.222  0.4560  0.3056 -0.1444
   54MOL    C2041466   7.589   3.793   4.393 -0.0736 -0.1268  0.4121
   54MOL    C2141467   7.482   3.837   4.477  0.3177 -0.1415  0.3963
   54MOL    H2241468   6.879   3.946   4.737 -2.6245  1.6022 -2.7261
   54MOL    H2341469   6.840   3.791   4.804 -1.2456  3.0416  2.0691
   54MOL    H2441470   6.643   3.903   4.728 -0.2584  1.2610 -1.4626
   54MOL    H2541471   6.714   3.953   4.576  0.7912 -0.6567 -0.5579
   54MOL    H2641472   6.657   3.662   4.670 -3.1791 -1.0090  0.1000
   54MOL    H2741473   6.509   3.739   4.429  0.7961  1.4052  1.2696
   54MOL    H2841474   6.499   3.598   4.524 -0.0613  0.1840  0.3502
   54MOL    H2941475   6.734   3.573   4.442 -1.7214  0.7968 -0.6912
   54MOL    H3041476   6.771   3.732   4.396  0.4590  0.4176 -0.3854
   54MOL    H3141477   6.963   3.604   4.487 -1.0607 -0.8143 -0.6519
   54MOL    H3241478   6.873   3.568   4.632  0.3873 -0.3853 -0.7968
   54MOL    H3341479   6.977   3.846   4.546 -0.4682  1.1196 -0.5759
   54MOL    H3441480   7.097   3.827   4.775  2.1079 -0.2133 -0.3054
   54MOL    H3541481   7.030   3.672   4.778  1.4949  0.7643  2.2400
   54MOL    H3641482   7.274   3.572   4.425 -1.5652  2.7503  2.5449
   54MOL    H3741483   7.471   3.488   4.297 -0.7359  1.2690 -1.5615
   54MOL    H3841484   7.668   3.864   4.372  1.2037 -0.6589  3.2473
   54MOL    H3941485   7.480   3.935   4.521  0.6101  0.9911 -2.0474
   54MOL    H4041486   6.442   3.863   4.619  1.0576  0.2475 -2.3269
   54MOL    C4141487   0.076   3.676   3.686 -0.1056  0.4164 -0.1881
   54MOL    C4241488   8.013   3.749   3.779 -0.7296 -0.4961  0.4043
   54MOL    C4341489   7.994   3.669   3.907 -0.3837 -0.2575  0.5055
   54MOL    C4441490   7.894   3.729   4.003  0.3634  0.4407 -0.2542
   54MOL    O4541491   7.910   3.678   4.139 -0.7059 -0.0399 -0.2988
   54MOL    C4641492   7.954   3.517   3.886  0.2661 -0.0524 -0.2875
   54MOL    C4741493   0.023   3.453   3.789 -0.9138 -0.1382  0.0556
   54MOL    C4841494   0.043   3.532   3.659  1.4260 -0.1593  0.3348
   54MOL    C4941495   0.136   3.468   3.557 -0.6368 -0.6107 -0.4335
   54MOL    O5041496   0.259   3.466   3.622 -0.1010  0.0766  0.3464
   54MOL    C5141497   0.316   3.346   3.656 -0.9101  0.0203  0.0301
   54MOL    O5241498   0.284   3.231   3.614 -0.0799  0.3036 -0.1287
   54MOL    C5341499   0.423   3.362   3.761  0.4501 -0.4659  0.0258
   54MOL    C5441500   0.509   3.252   3.790  0.0323 -0.2494  0.4128
   54MOL    C5541501   0.602   3.256   3.892  0.9589  0.0554  0.2230
   54MOL    C5641502   0.605   3.373   3.980 -0.6127  0.5462  0.3228
   54MOL    C5741503   0.696   3.375   4.103 -0.6681  0.1288 -0.4884
   54MOL    O5841504   0.761   3.282   4.148  0.2113  0.3102 -0.2399
   54MOL    O5941505   0.670   3.490   4.171  0.1618 -0.4828  0.1275
   54MOL    C6041506   0.518   3.476   3.950 -0.3192  0.6525  0.0732
   54MOL    C6141507   0.428   3.479   3.846  0.0016 -0.2828  0.1819
   54MOL    H6241508   0.080   3.742   3.600 -0.1854 -0.6865 -1.0608
   54MOL    H6341509   0.171   3.689   3.738 -0.1583  2.2591 -0.5406
   54MOL    H6441510   0.020   3.849   3.789  0.9803 -0.9566 -1.8384
   54MOL    H6541511   7.926   3.760   3.714 -1.0627 -0.5004  0.8525
   54MOL    H6641512   0.055   3.668   3.958  0.2310  2.6189 -0.5401
   54MOL    H6741513   7.903   3.837   4.015 -0.1446  0.7046 -2.1239
   54MOL    H6841514   7.793   3.725   3.961  0.4441  2.7183 -0.7354
   54MOL    H6941515   7.963   3.459   3.978 -0.9317 -0.7838 -0.6238
   54MOL    H7041516   7.852   3.513   3.848 -0.8138 -1.6172  2.6506
   54MOL    H7141517   8.022   3.351   3.780 -0.9723  0.0056 -1.4273
   54MOL    H7241518   0.113   3.460   3.851  0.3810  0.3781 -1.8137
   54MOL    H7341519   7.980   3.536   3.612  1.3737  1.7638  0.5954
   54MOL    H7441520   0.111   3.370   3.518  0.6013 -0.8832 -0.5540
   54MOL    H7541521   0.135   3.537   3.472 -0.0061 -0.6311 -0.4558
   54MOL    H7641522   0.490   3.158   3.741  3.8035 -0.4046 -0.8663
   54MOL    H7741523   0.659   3.167   3.913 -0.2825 -0.6823  0.5109
   54MOL    H7841524   0.527   3.565   4.009 -1.2729 -0.8704  2.5794
   54MOL    H7941525   0.365   3.566   3.830  1.4307  0.6401 -0.5312
   54MOL    C8041526   0.567   3.775   4.606 -0.4595  0.1580  0.0978
   54MOL    C8141527   0.651   3.665   4.540 -0.1161  0.1998  0.2886
   54MOL    C8241528   0.557   3.570   4.454 -0.6237 -0.8436  0.2022
   54MOL    C8341529   0.642   3.447   4.402 -0.0593 -0.2499  0.5167
   54MOL    O8441530   0.735   3.498   4.307  0.0108  0.2132  0.2153
   54MOL    C8541531   0.443   3.523   4.538  1.0922  0.5623  0.1837
   54MOL    C8641532   0.359   3.634   4.603  0.0871  0.4424 -0.0462
   54MOL    C8741533   0.454   3.719   4.690  0.3089 -0.0508  0.1950
   54MOL    C8841534   0.372   3.831   4.761 -1.4739 -0.3796 -0.0308
   54MOL    O8941535   0.260   3.785   4.831 -0.3522  0.3399 -0.3510
   54MOL    C9041536   0.271   3.771   4.962  0.2189 -0.2377  0.7760
   54MOL    O9141537   0.384   3.768   5.027 -0.4063 -0.2337  0.5534
   54MOL    C9241538   0.142   3.717   5.020  0.2322  0.0763  0.2014
   54MOL    C9341539   0.137   3.628   5.127 -0.2427 -0.7721 -0.1854
   54MOL    C9441540   0.023   3.586   5.189  0.1438 -0.1957 -0.1289
   54MOL    C9541541   7.931   3.618   5.132 -0.3493 -0.1068 -0.1734
   54MOL    C9641542   7.808   3.550   5.192  0.3674 -0.2027 -0.4190
   54MOL    O9741543   7.822   3.468   5.278  0.3185  0.6718  0.5587
   54MOL    O9841544   7.692   3.592   5.140 -0.3717  0.4285 -0.5091
   54MOL    C9941545   7.932   3.706   5.021  0.7199  0.2349  0.6515
   54MOL   C10041546   0.017   3.751   4.965  0.3869  0.5900  0.0913
   54MOL   H10141547   0.621   3.840   4.674  0.0108 -1.0517  0.9057
   54MOL   H10241548   0.540   3.846   4.528 -1.0213 -0.5109 -0.3186
   54MOL   H10341549   0.730   3.713   4.483 -0.0207 -1.8968 -1.4238
   54MOL   H10441550   0.697   3.617   4.626 -0.3304 -0.7079 -0.0906
   54MOL   H10541551   0.517   3.624   4.368 -0.5566 -0.0322  0.6758
   54MOL   H10641552   0.693   3.401   4.487  1.6361  0.7129  0.0429
   54MOL   H10741553   0.566   3.378   4.366 -3.4334  1.5016  3.9046
   54MOL   H10841554   0.378   3.465   4.473  0.8013  1.4696 -0.3392
   54MOL   H10941555   0.491   3.453   4.607  1.2827  0.4742 -0.0386
   54MOL   H11041556   0.284   3.590   4.668  0.5198  0.3849  0.4195
   54MOL   H11141557   0.310   3.696   4.528  0.2312  0.6151  0.0010
   54MOL   H11241558   0.502   3.656   4.765  4.0274  0.6415 -1.4873
   54MOL   H11341559   0.435   3.902   4.814  0.3806 -0.6528 -1.8309
   54MOL   H11441560   0.337   3.898   4.682  0.5197  1.5986  0.7281
   54MOL   H11541561   0.233   3.600   5.168  0.4112 -0.6601 -1.6117
   54MOL   H11641562   0.036   3.527   5.278 -1.9398  0.0542  0.3508
   54MOL   H11741563   7.840   3.721   4.966  0.0679 -1.0464  1.3591
   54MOL   H11841564   0.018   3.818   4.880 -1.2834 -1.4721 -1.6256
   54MOL   C11941565   7.280   3.926   5.239  0.4292 -0.2954 -0.2513
   54MOL   C12041566   7.340   3.798   5.308  0.0610  0.2208  0.0250
   54MOL   C12141567   7.432   3.732   5.209 -0.3386  0.1747 -0.4809
   54MOL   C12241568   7.502   3.618   5.281  0.4124  0.2056 -0.4827
   54MOL   O12341569   7.568   3.526   5.195 -0.1867 -0.0180 -0.6492
   54MOL   C12441570   7.360   3.688   5.080 -0.1230  0.2293  0.1629
   54MOL   C12541571   7.289   3.810   5.011  0.2701 -0.1043  0.5585
   54MOL   C12641572   7.197   3.879   5.114 -0.0179 -0.5466  0.0484
   54MOL   C12741573   7.116   3.989   5.050 -0.0109 -0.3441  0.0134
   54MOL   O12841574   7.015   4.026   5.141 -0.7934  0.5095  0.5903
   54MOL   C12941575   6.925   4.118   5.115  0.3002  0.1332 -0.2075
   54MOL   O13041576   6.945   4.207   5.033 -0.4704  0.5713  0.0902
   54MOL   C13141577   6.805   4.107   5.202  0.0275 -0.6078  0.9886
   54MOL   C13241578   6.775   3.993   5.275 -0.1237  0.2039 -0.6718
   54MOL   C13341579   6.657   3.997   5.351  0.6011 -0.1531  0.2593
   54MOL   C13441580   6.570   4.108   5.359 -0.2023 -0.0296 -0.1674
   54MOL   C13541581   6.441   4.088   5.430 -0.6622 -0.0187 -0.1725
   54MOL   O13641582   6.419   3.992   5.506 -0.1750  0.0495  0.6419
   54MOL   O13741583   6.357   4.182   5.401  0.1547  0.2281 -0.4112
   54MOL   C13841584   6.606   4.227   5.298  0.3310  0.1183 -0.2693
   54MOL   C13941585   6.723   4.228   5.213  0.2841 -0.5651  0.4949
   54MOL   H14041586   7.226   3.982   5.316 -0.1876 -1.7923  0.4341
   54MOL   H14141587   7.361   3.992   5.207 -1.4283  2.1228 -0.1014
   54MOL   H14241588   7.398   3.842   5.389  0.2641 -0.3886  0.2114
   54MOL   H14341589   7.253   3.743   5.347  0.8490  0.2698  1.9088
   54MOL   H14441590   7.509   3.808   5.192 -0.1748 -0.0515 -0.7548
   54MOL   H14541591   7.556   3.662   5.364 -0.3973  1.2952 -0.5247
   54MOL   H14641592   7.430   3.553   5.330 -0.1128 -0.7206 -2.4096
   54MOL   H14741593   7.427   3.652   5.003 -0.1297 -0.0509  0.2867
   54MOL   H14841594   7.287   3.608   5.096  0.2472  0.0368  0.9147
   54MOL   H14941595   7.237   3.763   4.928 -2.4623  1.5180  1.3018
   54MOL   H15041596   7.364   3.876   4.968  1.2311 -1.6356 -0.1505
   54MOL   H15141597   7.131   3.800   5.148 -1.3443  0.1423 -0.8861
   54MOL   H15241598   7.188   4.069   5.028 -0.4705  0.2836  0.8058
   54MOL   H15341599   7.063   3.947   4.964  1.9917 -0.5120 -1.1765
   54MOL   H15441600   6.838   3.907   5.262 -1.2531 -0.9156  1.0209
   54MOL   H15541601   6.609   3.907   5.387  1.3137 -0.2301  1.0201
   54MOL   H15641602   6.546   4.317   5.298 -0.4414 -0.3861  1.7239
   54MOL   H15741603   6.754   4.321   5.168  0.8184 -0.7125  0.5618
   54MOL   C15841604   5.935   4.136   5.787 -0.6160  0.3337 -0.0678
   54MOL   C15941605   6.063   4.131   5.708  0.3501 -0.0762 -0.1547
   54MOL   C16041606   6.081   4.261   5.630  0.3320 -0.0003 -0.5602
   54MOL   C16141607   6.214   4.269   5.562  0.5265  0.0483 -0.8294
   54MOL   O16241608   6.222   4.166   5.465 -0.0677 -0.3508  0.2721
   54MOL   C16341609   5.969   4.299   5.538  0.3805 -0.2293 -0.4609
   54MOL   C16441610   5.841   4.317   5.622  0.9150 -0.5563  0.5106
   54MOL   C16541611   5.813   4.186   5.699  0.0355  0.7357 -0.5970
   54MOL   C16641612   5.679   4.198   5.780 -0.0111 -0.2139 -0.1926
   54MOL   O16741613   5.569   4.230   5.693 -0.0928  0.1391 -0.5772
   54MOL   C16841614   5.441   4.251   5.754  0.0683 -0.0759 -0.3590
   54MOL   O16941615   5.409   4.220   5.870 -0.2142  0.1376 -0.3637
   54MOL   C17041616   5.347   4.316   5.658 -0.0129 -0.5167 -0.2011
   54MOL   C17141617   5.216   4.347   5.702 -0.3662 -0.3181 -0.7767
   54MOL   C17241618   5.124   4.415   5.623 -0.0694  0.6259  0.0325
   54MOL   C17341619   5.167   4.464   5.496  0.6398  0.2909 -0.2614
   54MOL   C17441620   5.068   4.538   5.411 -0.1175 -0.5587  0.1719
   54MOL   O17541621   4.944   4.535   5.426  0.0474 -0.7013  0.1331
   54MOL   O17641622   5.124   4.612   5.317  0.2630  0.0869  0.5284
   54MOL   C17741623   5.301   4.435   5.452 -0.1128 -0.4998  0.1970
   54MOL   C17841624   5.394   4.368   5.534 -0.0651 -0.3657 -0.8798
   54MOL   H17941625   5.925   4.037   5.832  0.3437 -0.1493 -0.8828
   54MOL   H18041626   5.940   4.201   5.874  0.4525 -0.6785  0.6305
   54MOL   H18141627   6.152   4.118   5.770 -0.2928  0.3354  0.8756
   54MOL   H18241628   6.055   4.048   5.637  0.7337 -0.3550  0.1231
   54MOL   H18341629   6.078   4.336   5.709 -0.6590  0.7007 -1.2498
   54MOL   H18441630   6.223   4.365   5.513 -0.3652 -0.6748 -2.4430
   54MOL   H18541631   6.290   4.272   5.640 -0.1984  1.4010 -0.1554
   54MOL   H18641632   5.998   4.389   5.484 -0.1140  0.1573 -0.0819
   54MOL   H18741633   5.951   4.222   5.463  0.9785 -1.0251  0.2014
   54MOL   H18841634   5.760   4.343   5.554  0.2766 -2.2958  0.5769
   54MOL   H18941635   5.842   4.399   5.694 -2.1570  1.0045 -1.1240
   54MOL   H19041636   5.790   4.108   5.626 -1.4518 -0.6987  1.3767
   54MOL   H19141637   5.653   4.103   5.828 -0.8036 -0.1069 -0.3958
   54MOL   H19241638   5.695   4.274   5.857 -0.0963 -0.0131 -0.3740
   54MOL   H19341639   5.182   4.316   5.799 -2.0904 -0.1047 -1.2834
   54MOL   H19441640   5.023   4.435   5.656 -0.5442 -1.1207 -0.3057
   54MOL   H19541641   5.335   4.465   5.353 -1.2513 -0.1010 -0.0833
   54MOL   H19641642   5.500   4.370   5.515  0.8817  2.9218  3.8363
   54MOL   C19741643   4.650   4.774   5.031  0.1354 -0.0947 -0.3635
   54MOL   C19841644   4.770   4.697   5.097  0.4291 -0.6772  0.1356
   54MOL   C19941645   4.904   4.734   5.035 -0.3254 -0.0922 -0.0689
   54MOL   C20041646   5.020   4.661   5.106 -0.4838  0.2411 -0.0099
   54MOL   O20141647   5.025   4.694   5.243 -0.5464  0.4051 -0.0963
   54MOL   C20241648   4.908   4.719   4.885  0.4384  0.0251  0.4114
   54MOL   C20341649   4.799   4.808   4.824  1.1809  0.7836 -0.3126
   54MOL   C20441650   4.656   4.776   4.874 -0.0666  0.3343  0.6463
   54MOL   C20541651   4.550   4.889   4.835  1.3519 -0.6254 -0.0354
   54MOL   O20641652   4.561   4.935   4.696 -0.3030  0.4222  0.2358
   54MOL   C20741653   4.448   4.952   4.619  0.3309  0.1541  0.5409
   54MOL   O20841654   4.340   4.918   4.661 -0.3740 -0.4664  0.1138
   54MOL   C20941655   4.475   4.999   4.476 -0.6885 -0.0891 -0.0778
   54MOL   C21041656   4.368   5.024   4.390  0.5762  0.3688 -1.4395
   54MOL   C21141657   4.389   5.089   4.269  0.0125  0.0172 -0.8287
   54MOL   C21241658   4.523   5.132   4.236  0.7555  0.4059 -0.4418
   54MOL   C21341659   4.552   5.192   4.102  0.2336  0.2470  0.2056
   54MOL   O21441660   4.670   5.209   4.056  0.5031  0.2094 -0.2428
   54MOL   O21541661   4.442   5.235   4.042 -0.0512 -0.5416  0.2567
   54MOL   C21641662   4.630   5.095   4.322 -0.0717  0.0103 -0.2455
   54MOL   C21741663   4.607   5.028   4.440 -0.6328 -0.6578 -0.2891
   54MOL   H21841664   4.553   4.736   5.062  0.8894 -2.3575 -0.7053
   54MOL   H21941665   4.652   4.875   5.072 -0.0178 -0.8236  1.4567
   54MOL   H22041666   4.769   4.709   5.205  0.5510  0.4498  0.0177
   54MOL   H22141667   4.764   4.589   5.082  0.4760 -0.6659  0.0327
   54MOL   H22241668   4.918   4.842   5.047  3.4866 -0.4676 -0.4684
   54MOL   H22341669   4.986   4.557   5.098  1.2056 -0.3247 -0.0114
   54MOL   H22441670   5.115   4.663   5.053 -0.2692  0.5564  0.3905
   54MOL   H22541671   5.007   4.756   4.860  0.9275 -1.8916 -0.5891
   54MOL   H22641672   4.914   4.615   4.853  1.8288 -0.3636  1.8743
   54MOL   H22741673   4.795   4.803   4.715  0.5844  0.8483 -0.2948
   54MOL   H22841674   4.811   4.912   4.854  0.3125  0.3086  1.7702
   54MOL   H22941675   4.620   4.681   4.833 -1.8539  0.4266  1.9818
   54MOL   H23041676   4.446   4.861   4.851  0.8152  0.4748 -1.5056
   54MOL   H23141677   4.562   4.981   4.892 -0.4059 -0.3693 -0.0487
   54MOL   H23241678   4.266   5.001   4.417  0.0914  1.5251 -2.2045
   54MOL   H23341679   4.306   5.105   4.201 -1.0053  1.9228  0.8325
   54MOL   H23441680   4.733   5.108   4.292  0.0148  0.5727  0.3006
   54MOL   H23541681   4.689   5.002   4.505  1.2264  2.2261 -1.3908
   54MOL   C23641682   4.514   5.751   4.157  0.6048  0.6096 -0.1914
   54MOL   C23741683   4.442   5.663   4.055  0.3400 -0.4438 -0.3947
   54MOL   C23841684   4.510   5.528   4.038  0.0817 -1.1644 -0.3083
   54MOL   C23941685   4.431   5.443   3.941  0.2745  0.0802  0.0770
   54MOL   O24041686   4.469   5.310   3.916 -0.6441  0.1953  0.1990
   54MOL   C24141687   4.647   5.562   3.982 -0.1947 -0.0143  0.0110
   54MOL   C24241688   4.733   5.665   4.062 -0.5582 -0.3430 -0.4005
   54MOL   C24341689   4.652   5.791   4.101  0.2778  0.2508 -0.6488
   54MOL   C24441690   4.725   5.893   4.192 -0.1111  1.1490 -0.9067
   54MOL   O24541691   4.658   6.018   4.195 -0.0383  0.1477  0.2687
   54MOL   C24641692   4.695   6.113   4.284  0.3579 -0.2405 -0.1252
   54MOL   O24741693   4.783   6.101   4.368 -0.0111 -0.4474  0.2549
   54MOL   C24841694   4.610   6.236   4.281  0.4839 -0.8879  0.7174
   54MOL   C24941695   4.482   6.227   4.225 -0.2446 -0.4462 -0.3590
   54MOL   C25041696   4.401   6.346   4.211 -0.0831  0.3498 -0.6534
   54MOL   C25141697   4.443   6.470   4.270  0.3447  0.3040 -0.1671
   54MOL   C25241698   4.357   6.591   4.264 -0.6701 -0.5121 -0.0690
   54MOL   O25341699   4.236   6.593   4.225  0.3937 -1.2619  0.1854
   54MOL   O25441700   4.420   6.705   4.306 -0.3300 -0.9365 -0.1414
   54MOL   C25541701   4.581   6.479   4.314  0.1385 -0.0373  0.4025
   54MOL   C25641702   4.662   6.364   4.323  0.5551  0.2210 -0.2685
   54MOL   H25741703   4.457   5.840   4.185  1.3652  0.9176  0.3869
   54MOL   H25841704   4.509   5.710   4.257 -3.4540 -1.5673 -1.2037
   54MOL   H25941705   4.339   5.657   4.089 -0.0641  0.5160 -1.4101
   54MOL   H26041706   4.431   5.716   3.960 -1.6096  2.6551  1.4915
   54MOL   H26141707   4.521   5.482   4.137  1.6710 -1.2353 -0.5015
   54MOL   H26241708   4.333   5.446   3.988 -0.1965 -2.4109 -0.6332
   54MOL   H26341709   4.427   5.487   3.841 -2.5185 -1.2513 -0.4590
   54MOL   H26441710   4.713   5.476   3.988 -1.5257 -1.1096 -0.5675
   54MOL   H26541711   4.633   5.584   3.876  1.1457 -0.3192 -0.2301
   54MOL   H26641712   4.816   5.696   3.998 -0.5281  3.3299  1.2831
   54MOL   H26741713   4.778   5.617   4.149 -0.5057  2.0143  0.9214
   54MOL   H26841714   4.646   5.840   4.004  0.5290  1.5496 -0.0290
   54MOL   H26941715   4.740   5.842   4.288 -1.9451  0.6053 -0.8903
   54MOL   H27041716   4.829   5.910   4.165  0.5850 -1.5808 -0.1675
   54MOL   H27141717   4.450   6.126   4.205 -0.9584 -0.4401  0.7399
   54MOL   H27241718   4.302   6.333   4.169  0.2327  0.1320 -1.3469
   54MOL   H27341719   4.630   6.569   4.350 -0.6923 -0.6612  3.1682
   54MOL   H27441720   4.764   6.376   4.356  0.9433  1.4286 -1.8730
   54MOL   C27541721   4.049   7.065   4.640  0.3925 -0.2955 -0.0271
   54MOL   C27641722   4.158   6.955   4.622  0.1634 -0.7044 -0.0780
   54MOL   C27741723   4.175   6.918   4.484  0.1917  0.1205 -0.4804
   54MOL   C27841724   4.302   6.832   4.461  0.7838  0.5270 -0.2870
   54MOL   O27941725   4.323   6.814   4.321 -0.1089  0.4311  0.4419
   54MOL   C28041726   4.042   6.858   4.431  0.0407 -0.3287 -0.1077
   54MOL   C28141727   3.934   6.967   4.437  0.1386 -0.2385  0.5978
   54MOL   C28241728   3.912   7.004   4.587  0.1468 -0.0255  0.0316
   54MOL   C28341729   3.795   7.104   4.586  0.0833  0.3220 -0.6320
   54MOL   O28441730   3.789   7.151   4.721  0.1591  0.3805  0.0877
   54MOL   C28541731   3.674   7.190   4.778 -0.2045 -0.2895  0.0448
   54MOL   O28641732   3.575   7.196   4.714  0.1312 -0.0363  0.4550
   54MOL   C28741733   3.682   7.211   4.927 -0.2917 -0.1805  0.3824
   54MOL   C28841734   3.572   7.261   4.988  0.2554 -0.3107  0.8315
   54MOL   C28941735   3.563   7.273   5.124 -0.0268  0.0541 -0.6449
   54MOL   C29041736   3.671   7.248   5.206  0.0609  0.3655  0.8699
   54MOL   C29141737   3.661   7.240   5.352  0.0382 -0.1336  1.0117
   54MOL   O29241738   3.574   7.302   5.416  0.5584 -0.1537  0.0149
   54MOL   O29341739   3.753   7.156   5.403 -0.3598 -0.6550  0.3908
   54MOL   C29441740   3.798   7.203   5.146 -0.2169  0.3409 -0.0013
   54MOL   C29541741   3.802   7.192   5.004  0.3869  0.0477 -0.1534
   54MOL   H29641742   4.037   7.084   4.747 -2.0280  1.0546 -0.4827
   54MOL   H29741743   4.071   7.160   4.591 -0.4996  0.2949  0.6991
   54MOL   H29841744   4.251   6.997   4.660 -0.3633 -0.2056  0.6817
   54MOL   H29941745   4.132   6.866   4.679  2.6340 -0.3322  1.7135
   54MOL   H30041746   4.190   7.014   4.434 -0.3071  1.8408  2.5746
   54MOL   H30141747   4.390   6.883   4.498  0.1841  0.7811  0.8158
   54MOL   H30241748   4.288   6.733   4.505  1.9027  0.0068 -1.0843
   54MOL   H30341749   4.052   6.810   4.333  1.4788  1.6098 -0.9323
   54MOL   H30441750   4.019   6.774   4.497  0.9038 -0.3131  0.2086
   54MOL   H30541751   3.840   6.928   4.397 -0.1083  0.9914 -0.0513
   54MOL   H30641752   3.945   7.057   4.378 -2.8097 -0.3526 -0.2189
   54MOL   H30741753   3.869   6.919   4.640 -2.1015  0.2187 -1.3652
   54MOL   H30841754   3.804   7.197   4.531 -0.0700  2.3951  2.7125
   54MOL   H30941755   3.707   7.045   4.560 -0.4492  0.3585  1.0459
   54MOL   H31041756   3.488   7.300   4.933  0.8219 -0.4089 -0.1184
   54MOL   H31141757   3.464   7.297   5.160 -0.0599  0.2976 -0.9066
   54MOL   H31241758   3.889   7.190   5.203 -0.0644 -0.4117 -0.4052
   54MOL   H31341759   3.891   7.175   4.946  0.4513  1.0098 -0.3484
   54MOL   C31441760   3.830   7.456   5.933 -0.2181  0.0747  0.2190
   54MOL   C31541761   3.846   7.414   5.790  0.2232  0.1278  0.3565
   54MOL   C31641762   3.788   7.285   5.745 -0.6984  0.1713 -0.0859
   54MOL   C31741763   3.829   7.247   5.606 -0.3250  0.5273  0.7813
   54MOL   O31841764   3.745   7.148   5.549  0.2413  0.2552  0.3923
   54MOL   C31941765   3.844   7.176   5.851  0.0539  0.1357  0.3385
   54MOL   C32041766   3.804   7.217   6.005 -0.1601 -0.3219  0.5588
   54MOL   C32141767   3.871   7.349   6.040  0.3860 -0.0316 -0.4717
   54MOL   C32241768   3.827   7.398   6.180 -0.1299 -0.0001  0.1808
   54MOL   O32341769   3.866   7.298   6.273  0.0791  0.0977  0.3284
   54MOL   C32441770   3.835   7.306   6.406  0.8370 -0.8167  0.2961
   54MOL   O32541771   3.775   7.402   6.464  0.6816 -0.2823  0.2780
   54MOL   C32641772   3.889   7.193   6.475  0.0470 -0.3793 -0.0264
   54MOL   C32741773   3.934   7.075   6.406 -0.7452  0.1901 -0.2282
   54MOL   C32841774   3.980   6.962   6.475 -0.5184 -0.2664 -0.0291
   54MOL   C32941775   3.994   6.967   6.616 -0.2151 -0.7426 -0.5196
   54MOL   C33041776   4.061   6.857   6.694  1.2201 -0.6136  0.3314
   54MOL   O33141777   4.107   6.752   6.647  0.1064  0.4547 -0.1628
   54MOL   O33241778   4.054   6.884   6.826 -0.1159  0.4978 -0.8712
   54MOL   C33341779   3.951   7.084   6.683 -0.7130  0.4120  0.1913
   54MOL   C33441780   3.896   7.193   6.617 -0.0751 -0.2166  0.3150
   54MOL   H33541781   3.891   7.545   5.951  1.9580 -1.4071  0.3755
   54MOL   H33641782   3.725   7.479   5.951 -0.2258  0.1855  0.0433
   54MOL   H33741783   3.801   7.498   5.736 -0.4214  1.0654  2.2971
   54MOL   H33841784   3.950   7.432   5.763 -0.3557  1.6567 -0.9558
   54MOL   H33941785   3.679   7.287   5.752 -0.6161  2.5411  0.8098
   54MOL   H34041786   3.813   7.344   5.559  0.6017 -0.9356 -2.7122
   54MOL   H34141787   3.936   7.233   5.592 -0.1987  1.6602  0.5874
   54MOL   H34241788   3.809   7.078   5.817 -0.0654  0.6170 -0.9769
   54MOL   H34341789   3.952   7.169   5.842  0.3440  0.2804  3.2395
   54MOL   H34441790   3.844   7.143   6.075  2.1361 -0.7008 -1.0701
   54MOL   H34541791   3.696   7.231   6.007 -0.0559  0.6562 -0.2569
   54MOL   H34641792   3.979   7.351   6.048  0.1198 -0.0272  4.3601
   54MOL   H34741793   3.868   7.497   6.198 -0.0512 -0.5598  3.4054
   54MOL   H34841794   3.719   7.415   6.178  0.1249  1.7177 -0.2711
   54MOL   H34941795   3.934   7.067   6.298  0.1694 -1.7021 -0.1140
   54MOL   H35041796   3.996   6.874   6.414 -1.9194 -1.4429  1.2497
   54MOL   H35141797   3.956   7.084   6.791  1.0561 -0.2474  0.1308
   54MOL   H35241798   3.860   7.277   6.675  0.8079 -0.5506  1.3583
   54MOL   C35341799   4.356   6.476   7.105 -0.4319  0.0645 -0.1055
   54MOL   C35441800   4.261   6.542   7.003 -0.3135 -0.2384  0.1207
   54MOL   C35541801   4.136   6.603   7.069  0.2376 -1.2198 -0.1712
   54MOL   C35641802   4.054   6.678   6.962  0.1966  0.0104  0.0601
   54MOL   O35741803   4.135   6.785   6.913 -0.0413  0.1167 -0.2051
   54MOL   C35841804   4.049   6.506   7.142  0.4090  0.4772  0.5385
   54MOL   C35941805   4.136   6.433   7.247 -0.0573 -0.0333  0.8672
   54MOL   C36041806   4.271   6.373   7.192 -0.3714  0.1655  0.4695
   54MOL   C36141807   4.353   6.305   7.301 -0.3281  0.4534  0.9353
   54MOL   O36241808   4.431   6.404   7.368 -0.0038 -0.5239  0.4089
   54MOL   C36341809   4.512   6.371   7.462 -0.8068 -0.3849 -0.2389
   54MOL   O36441810   4.540   6.255   7.484  0.1209 -0.4741  0.3672
   54MOL   C36541811   4.570   6.485   7.538 -0.1240  0.6326  0.4217
   54MOL   C36641812   4.662   6.463   7.645 -0.3686  0.3853  0.1484
   54MOL   C36741813   4.720   6.571   7.705  0.1897 -0.1429  0.4267
   54MOL   C36841814   4.694   6.702   7.666 -0.0571 -0.6944  0.6967
   54MOL   C36941815   4.767   6.807   7.741 -0.3088  1.0440 -0.3362
   54MOL   O37041816   4.878   6.791   7.793 -0.3504 -0.1540  0.6031
   54MOL   O37141817   4.709   6.932   7.745  0.1052 -0.4204 -0.2541
   54MOL   C37241818   4.601   6.726   7.568  0.1641 -0.5674 -0.2307
   54MOL   C37341819   4.552   6.620   7.496 -0.6579  0.2246 -0.0783
   54MOL   H37441820   4.439   6.420   7.061  0.6990 -0.0201  2.0724
   54MOL   H37541821   4.396   6.552   7.172  1.1484  0.1698 -1.1355
   54MOL   H37641822   4.313   6.623   6.952 -1.6630  0.0895 -0.7484
   54MOL   H37741823   4.234   6.468   6.928  0.0708  1.2538 -1.5305
   54MOL   H37841824   4.161   6.680   7.142  1.6238 -0.4441 -1.4437
   54MOL   H37941825   4.025   6.613   6.879 -0.0204 -0.7812  0.7502
   54MOL   H38041826   3.970   6.721   7.016 -0.1262  0.3734 -0.7271
   54MOL   H38141827   3.962   6.538   7.200 -0.5666 -0.7594 -0.2194
   54MOL   H38241828   4.001   6.440   7.071 -1.1651  0.9746  1.1064
   54MOL   H38341829   4.076   6.355   7.294 -2.3510 -0.1190 -2.0681
   54MOL   H38441830   4.167   6.509   7.319 -0.8797  0.4815  0.6834
   54MOL   H38541831   4.247   6.297   7.118  2.0689  1.1086 -1.3719
   54MOL   H38641832   4.282   6.246   7.359 -1.8372  1.0153 -0.3132
   54MOL   H38741833   4.425   6.241   7.251  0.2429  0.0235  2.2626
   54MOL   H38841834   4.697   6.361   7.652  2.6192  1.3202 -0.6774
   54MOL   H38941835   4.793   6.544   7.780  2.2016  1.8439 -0.7630
   54MOL   H39041836   4.582   6.828   7.538 -0.2946 -0.8629 -0.9437
   54MOL   H39141837   4.492   6.651   7.412 -0.5143  0.9465  0.0800
   54MOL   C39241838   5.067   7.441   7.771 -0.5965 -0.7311 -0.3158
   54MOL   C39341839   4.947   7.369   7.709  0.2338  0.4360  1.1868
   54MOL   C39441840   4.923   7.230   7.782 -0.5280 -0.2143  0.4893
   54MOL   C39541841   4.803   7.148   7.732  0.1214 -0.5523 -0.0167
   54MOL   O39641842   4.781   7.037   7.820 -0.6521  0.1270  0.0885
   54MOL   C39741843   5.052   7.144   7.770  0.2041  0.0887  0.0017
   54MOL   C39841844   5.174   7.220   7.824 -0.0938  0.9300  0.3443
   54MOL   C39941845   5.196   7.351   7.751  0.4354 -0.1884  0.6307
   54MOL   C40041846   5.326   7.425   7.799 -0.0796  0.1443  0.4206
   54MOL   O40141847   5.316   7.487   7.930  0.4472 -0.0275  0.2135
   54MOL   C40241848   5.422   7.547   7.987  0.3767 -0.0178  1.0636
   54MOL   O40341849   5.534   7.551   7.934  0.6239  0.3313  0.4238
   54MOL   C40441850   5.393   7.599   0.091 -0.9330  0.7675 -0.2100
   54MOL   C40541851   5.497   7.666   0.164 -0.0086  0.3563  1.0058
   54MOL   C40641852   5.473   7.683   0.303  0.4508 -0.5868 -0.2291
   54MOL   C40741853   5.350   7.653   0.363  0.1151  0.2496 -0.0961
   54MOL   C40841854   5.332   7.684   0.505 -0.0270  0.5408 -0.3048
   54MOL   O40941855   5.423   7.735   0.571 -0.3168  0.2039 -0.2184
   54MOL   O41041856   5.204   7.652   0.543  0.3988  0.3556  0.5044
   54MOL   C41141857   5.246   7.598   0.280  0.3773 -0.0712  0.3312
   54MOL   C41241858   5.271   7.562   0.146  0.3526 -0.8516  0.0635
   54MOL   H41341859   5.092   7.533   7.719 -0.5528  0.4245  1.7253
   54MOL   H41441860   5.052   7.457   7.877 -0.1809  0.4972 -0.4366
   54MOL   H41541861   4.865   7.439   7.720 -0.8433 -0.8886  1.7846
   54MOL   H41641862   4.959   7.353   7.602 -2.4175  0.9271  0.8008
   54MOL   H41741863   4.901   7.253   7.887 -1.4367  0.4189  0.1594
   54MOL   H41841864   4.713   7.209   7.730  1.4698  1.4571  0.0843
   54MOL   H41941865   4.815   7.110   7.631  0.5744 -1.8292  0.4928
   54MOL   H42041866   5.044   7.052   7.827 -0.9679  0.5933  0.6599
   54MOL   H42141867   5.066   7.117   7.666  0.0827  0.9761 -0.2487
   54MOL   H42241868   5.256   7.153   7.798  0.4250  1.3052  1.0027
   54MOL   H42341869   5.183   7.231   7.932 -1.6865  0.1512  0.5724
   54MOL   H42441870   5.203   7.329   7.645 -0.1104  1.6110  0.2015
   54MOL   H42541871   5.410   7.355   7.808  1.9633  2.4379 -0.1409
   54MOL   H42641872   5.359   7.502   7.730  0.8900 -1.0243 -0.4520
   54MOL   H42741873   5.587   7.698   0.112 -0.3570  0.6399  0.5753
   54MOL   H42841874   5.554   7.727   0.359  0.5557  0.3344 -1.0980
   54MOL   H42941875   5.147   7.578   0.317  0.7960 -2.3974  0.2931
   54MOL   H43041876   5.200   7.510   0.085  0.0768 -0.4260  0.0158
   54MOL   C43141877   4.798   7.594   0.832  0.9627  0.2071 -1.7110
   54MOL   C43241878   4.889   7.662   0.732 -0.0776  0.0484 -0.3913
   54MOL   C43341879   5.000   7.724   0.813 -0.5114  0.4268 -1.3435
   54MOL   C43441880   5.113   7.768   0.728  0.5240  0.5294  0.8134
   54MOL   O43541881   5.186   7.655   0.689  0.0605  0.2001 -0.4636
   54MOL   C43641882   4.933   7.832   0.897  0.1626 -0.1222  0.2890
   54MOL   C43741883   4.837   7.782   1.002  0.5083 -0.4638 -0.2101
   54MOL   C43841884   4.729   7.693   0.933 -0.5868 -0.1023  0.8897
   54MOL   C43941885   4.635   7.631   1.040  0.0520 -0.2761 -1.0261
   54MOL   O44041886   4.542   7.563   0.954 -0.0038  0.1465  0.0709
   54MOL   C44141887   4.442   7.484   1.004 -0.3261 -0.5991  0.2931
   54MOL   O44241888   4.442   7.462   1.124  0.5923 -0.2950  0.0549
   54MOL   C44341889   4.349   7.414   0.914 -0.9539 -0.0829 -0.3510
   54MOL   C44441890   4.243   7.319   0.951  0.2030  0.1634  0.9921
   54MOL   C44541891   4.173   7.248   0.848 -0.4328  0.0555 -0.0972
   54MOL   C44641892   4.191   7.275   0.708  0.7373 -0.3135 -0.3155
   54MOL   C44741893   4.118   7.207   0.599 -0.1853 -0.3326  0.8651
   54MOL   O44841894   4.103   7.255   0.487  0.4590 -0.1528 -0.0523
   54MOL   O44941895   4.084   7.078   0.629 -0.2726  0.5073 -0.1459
   54MOL   C45041896   4.281   7.376   0.675 -0.4426  0.4657 -1.2384
   54MOL   C45141897   4.363   7.443   0.773 -0.3552 -0.0561 -0.5704
   54MOL   H45241898   4.725   7.523   0.794  1.3654 -0.2875 -1.5788
   54MOL   H45341899   4.852   7.531   0.904  1.9679  2.5741 -0.3466
   54MOL   H45441900   4.936   7.590   0.666  1.0111  0.1626  0.2472
   54MOL   H45541901   4.830   7.734   0.675  0.2766  1.6880  1.2747
   54MOL   H45641902   5.048   7.659   0.886 -0.5856  1.8867  0.0266
   54MOL   H45741903   5.055   7.806   0.644 -0.6365  0.8090  1.7310
   54MOL   H45841904   5.177   7.849   0.762  0.8475  1.2772 -1.5209
   54MOL   H45941905   5.009   7.894   0.945  1.5049 -2.9917  1.9791
   54MOL   H46041906   4.888   7.896   0.821  2.3072  0.1011 -0.8266
   54MOL   H46141907   4.794   7.869   1.053  0.8973  0.4810 -1.4593
   54MOL   H46241908   4.904   7.732   1.071  0.4917  1.5807  1.3428
   54MOL   H46341909   4.683   7.768   0.869  1.9668  0.8068  0.0524
   54MOL   H46441910   4.695   7.567   1.106  0.9403  0.1916 -1.3676
   54MOL   H46541911   4.583   7.707   1.099  1.0338  0.4568 -1.0876
   54MOL   H46641912   4.205   7.299   1.050 -2.0940 -0.1192  0.0889
   54MOL   H46741913   4.088   7.185   0.871 -1.1546  1.4139  1.0166
   54MOL   H46841914   4.292   7.407   0.572  0.3871  0.2179 -1.2275
   54MOL   H46941915   4.437   7.512   0.734  0.5462  0.2587  1.6349
   54MOL   C47041916   4.068   6.791   0.071 -0.0733 -0.1869 -0.4557
   54MOL   C47141917   4.132   6.834   0.208 -0.3630  0.1228  0.0981
   54MOL   C47241918   4.033   6.905   0.299  0.3674 -0.2371 -0.0150
   54MOL   C47341919   4.100   6.958   0.427  0.1494  0.1119 -0.0440
   54MOL   O47441920   3.999   7.015   0.510 -0.4319  0.2515 -0.3741
   54MOL   C47541921   3.953   7.015   0.227 -0.9676 -0.3084 -0.2059
   54MOL   C47641922   3.884   6.959   0.097  0.5939  0.4066  0.0682
   54MOL   C47741923   3.995   6.901   0.001  0.5395 -0.1031  0.3421
   54MOL   C47841924   3.929   6.848   7.907 -0.7632 -0.3772 -0.1369
   54MOL   O47941925   3.884   6.952   7.819 -0.0200 -0.3274 -0.1204
   54MOL   C48041926   3.755   6.991   7.826  0.1518 -0.4130  0.0606
   54MOL   O48141927   3.676   6.952   7.913  0.2887 -0.3673  0.3381
   54MOL   C48241928   3.718   7.099   7.736 -0.5617 -0.0842 -0.7457
   54MOL   C48341929   3.584   7.153   7.743  0.1013 -0.5032 -0.8667
   54MOL   C48441930   3.553   7.273   7.672 -0.7444  0.3242  0.2517
   54MOL   C48541931   3.661   7.330   7.592 -0.3312 -0.1757  0.3152
   54MOL   C48641932   3.632   7.454   7.509  0.4732 -0.2544  0.1252
   54MOL   O48741933   3.704   7.496   7.416  0.4904  0.5895 -0.6129
   54MOL   O48841934   3.506   7.511   7.534  0.4545  0.4609  0.0199
   54MOL   C48941935   3.786   7.272   7.592  0.0673 -0.0059  0.2252
   54MOL   C49041936   3.817   7.159   7.663 -0.2954  0.8562 -0.3692
   54MOL   H49141937   4.151   6.758   0.007 -1.0928  0.6470 -2.2621
   54MOL   H49241938   4.004   6.705   0.087  1.6809 -2.2835 -3.8600
   54MOL   H49341939   4.176   6.746   0.255  1.6484  0.2837 -1.4272
   54MOL   H49441940   4.212   6.904   0.188  0.1470 -0.0026  1.6461
   54MOL   H49541941   3.963   6.827   0.329 -1.4491  2.0355  1.9106
   54MOL   H49641942   4.158   6.875   0.468  0.9248  0.0213 -1.3195
   54MOL   H49741943   4.170   7.037   0.402 -1.7753  1.4985 -1.2226
   54MOL   H49841944   3.873   7.047   0.293  0.5937 -0.1300  1.6444
   54MOL   H49941945   4.020   7.098   0.206 -1.2970 -0.2114 -0.8939
   54MOL   H50041946   3.835   7.039   0.042  1.0583  0.6746  0.0477
   54MOL   H50141947   3.800   6.890   0.108  0.4933  0.3099 -1.2381
   54MOL   H50241948   4.071   6.976   8.012  0.7515 -0.0021  1.2912
   54MOL   H50341949   3.996   6.789   7.845 -1.0569  0.4940 -1.2975
   54MOL   H50441950   3.855   6.776   7.941 -0.6379  0.0699  1.1035
   54MOL   H50541951   3.501   7.102   7.789 -1.5789  0.2649 -2.9407
   54MOL   H50641952   3.455   7.317   7.665 -1.1014 -0.7924 -1.8119
   54MOL   H50741953   3.859   7.327   7.535 -0.9809  1.0599 -0.1125
   54MOL   H50841954   3.920   7.126   7.667  0.1338  2.2803  1.0101
   54MOL   C50941955   3.075   7.832   7.293  0.6358  0.3937  0.0237
   54MOL   C51041956   3.188   7.736   7.269  0.4337 -0.2298 -0.1096
   54MOL   C51141957   3.291   7.755   7.387  0.0273 -0.1215 -0.0134
   54MOL   C51241958   3.410   7.650   7.358  0.0834  0.0184 -0.0109
   54MOL   O51341959   3.490   7.651   7.476 -0.2440  0.2970  0.2260
   54MOL   C51441960   3.340   7.901   7.394 -0.1057  0.8321 -0.1178
   54MOL   C51541961   3.223   7.999   7.418 -0.4388  0.5915 -0.2692
   54MOL   C51641962   3.115   7.982   7.308 -0.4304 -0.3550  0.5000
   54MOL   C51741963   2.992   0.033   7.338  0.1249 -0.1044  0.0454
   54MOL   O51841964   2.997   0.170   7.291  0.1321 -0.5305  0.3670
   54MOL   C51941965   2.987   0.200   7.170  0.4341  0.2731  0.4994
   54MOL   O52041966   3.015   0.121   7.082 -0.2475  0.0919 -0.5152
   54MOL   C52141967   2.953   0.343   7.135 -1.3884 -0.7954 -0.5979
   54MOL   C52241968   2.938   0.390   7.002 -0.1476  0.6364  0.0381
   54MOL   C52341969   2.893   0.512   6.974 -0.3874 -0.6895  0.1722
   54MOL   C52441970   2.869   0.603   7.076 -0.0503 -0.3176  0.0759
   54MOL   C52541971   2.819   0.742   7.054 -0.8358  0.1443 -0.4857
   54MOL   O52641972   2.832   0.808   6.947 -0.5182 -0.5989 -0.6868
   54MOL   O52741973   2.750   0.797   7.158 -0.6149  0.0357 -0.6078
   54MOL   C52841974   2.879   0.562   7.208 -0.5745  0.3786 -0.2625
   54MOL   C52941975   2.926   0.434   7.238 -0.1997 -0.4984 -0.1623
   54MOL   H53041976   2.996   7.823   7.219 -0.3414 -0.1964  1.1324
   54MOL   H53141977   3.024   7.795   7.382 -0.5886  2.8079  0.3569
   54MOL   H53241978   3.163   7.631   7.252  0.1486 -0.0402 -0.8661
   54MOL   H53341979   3.240   7.770   7.179  3.2122 -1.1306  1.1062
   54MOL   H53441980   3.249   7.731   7.484  0.1222  1.3672  0.4047
   54MOL   H53541981   3.369   7.551   7.338 -1.4413  0.5751  0.2839
   54MOL   H53641982   3.472   7.672   7.271  0.9919 -0.8015  0.4247
   54MOL   H53741983   3.412   7.909   7.476 -1.0402 -3.1323  1.1964
   54MOL   H53841984   3.397   7.927   7.305 -0.8034 -2.3625 -1.5650
   54MOL   H53941985   3.263   0.065   7.428  0.0806  0.5337 -1.7137
   54MOL   H54041986   3.174   7.971   7.511 -0.9418  1.1713 -0.3560
   54MOL   H54141987   3.163   8.015   7.216 -2.1672 -0.4809 -0.4711
   54MOL   H54241988   2.904   8.017   7.299  0.5419 -0.4600 -0.4307
   54MOL   H54341989   2.973   0.051   7.444  1.3261 -1.3890  0.4915
   54MOL   H54441990   2.958   0.325   6.918  0.1017 -0.3206  0.8252
   54MOL   H54541991   2.880   0.539   6.871 -1.1724 -0.1297  0.4087
   54MOL   H54641992   2.864   0.625   7.294  3.7397 -0.9653  1.6365
   54MOL   H54741993   2.930   0.403   7.341 -1.1491 -0.3075 -0.0671
   54MOL   C54841994   2.452   1.285   7.196 -0.3228 -0.5780 -0.7363
   54MOL   C54941995   2.498   1.138   7.196 -0.1785  0.8740  0.5452
   54MOL   C55041996   2.544   1.090   7.059 -0.4975 -0.0131 -0.8294
   54MOL   C55141997   2.581   0.943   7.067 -0.2848 -0.3680  0.2988
   54MOL   O55241998   2.711   0.936   7.126 -0.1247 -0.2697 -0.3748
   54MOL   C55341999   2.428   1.119   6.958  0.7038  0.2317  0.3334
   54MOL   C55442000   2.380   1.266   6.955  0.2377 -0.9287  0.3525
   54MOL   C55542001   2.338   1.307   7.100 -0.6973 -0.1836 -0.6806
   54MOL   C55642002   2.281   1.452   7.116  0.8830  0.4112 -0.2210
   54MOL   O55742003   2.202   1.478   7.232 -0.0222 -0.3767 -0.2430
   54MOL   C55842004   2.149   1.598   7.253 -0.3379  0.3753  0.1156
   54MOL   O55942005   2.169   1.696   7.176 -0.2774 -0.0111 -0.2368
   54MOL   C56042006   2.068   1.606   7.378 -0.1631 -0.1393 -0.2013
   54MOL   C56142007   1.962   1.694   7.395 -0.0430  0.7285 -0.4417
   54MOL   C56242008   1.874   1.688   7.506 -0.2993 -0.3040  0.4369
   54MOL   C56342009   1.898   1.592   7.607  0.0999  0.1339 -0.4335
   54MOL   C56442010   1.799   1.571   7.710  0.2174 -0.3155 -0.3326
   54MOL   O56542011   1.691   1.631   7.717 -0.0136  0.4376 -0.6579
   54MOL   O56642012   1.824   1.461   7.784 -0.1191  0.2713 -0.0280
   54MOL   C56742013   2.010   1.506   7.592 -0.5713 -0.0562  0.2930
   54MOL   C56842014   2.093   1.511   7.485 -0.2833  0.0661 -0.2015
   54MOL   H56942015   2.412   1.302   7.296  2.2658  1.8364 -0.0492
   54MOL   H57042016   2.544   1.342   7.184  0.1147 -1.2250 -0.5269
   54MOL   H57142017   2.587   1.122   7.256 -0.0817  0.4949  0.3029
   54MOL   H57242018   2.419   1.070   7.229 -2.1160  2.5140 -0.6269
   54MOL   H57342019   2.629   1.151   7.029  0.2794 -0.6513  0.0447
   54MOL   H57442020   2.504   0.891   7.124 -0.1298  1.1730  1.9658
   54MOL   H57542021   2.576   0.902   6.966 -2.1341  1.4225 -0.3915
   54MOL   H57642022   2.457   1.097   6.855  2.3358 -0.3652  0.9145
   54MOL   H57742023   2.341   1.057   6.979  1.4196 -0.7091  0.5571
   54MOL   H57842024   2.308   1.297   6.879 -0.0338 -0.5417  0.7666
   54MOL   H57942025   2.468   1.327   6.934 -1.2848  1.0168 -0.5077
   54MOL   H58042026   2.255   1.240   7.124 -0.6823  0.3901  1.0808
   54MOL   H58142027   2.353   1.532   7.099  1.1789 -0.0802 -1.3236
   54MOL   H58242028   2.208   1.477   7.039  1.5349  0.9456 -0.6658
   54MOL   H58342029   1.959   1.768   7.317  1.2806  1.0821 -0.1653
   54MOL   H58442030   1.792   1.758   7.505  1.1036  1.4412  1.5865
   54MOL   H58542031   2.022   1.421   7.657  1.0423 -0.4073 -0.4447
   54MOL   H58642032   2.167   1.433   7.475  2.2971  2.5604 -1.2277
   54MOL   C58742033   1.549   1.150   0.115 -0.8665 -0.8717 -0.4071
   54MOL   C58842034   1.635   1.188   8.035  0.5030  0.1278  0.2492
   54MOL   C58942035   1.555   1.262   7.924  0.0718 -0.6676  0.6005
   54MOL   C59042036   1.642   1.323   7.815  0.0164 -0.0136  1.2074
   54MOL   O59142037   1.716   1.424   7.883  0.6808  0.2798  0.2209
   54MOL   C59242038   1.434   1.183   7.875 -0.5154  0.1118  0.5938
   54MOL   C59342039   1.353   1.127   7.988  0.8786 -0.4238 -0.1079
   54MOL   C59442040   1.426   1.060   0.067 -0.1950  0.2611 -0.6290
   54MOL   C59542041   1.335   1.033   0.186  0.4281 -0.4494  0.0576
   54MOL   O59642042   1.383   0.926   0.271  0.0866 -0.1462  0.2831
   54MOL   C59742043   1.363   0.937   0.404 -0.2099  0.1655  0.3911
   54MOL   O59842044   1.289   1.019   0.455  0.2540 -0.3985 -0.0959
   54MOL   C59942045   1.406   0.812   0.481 -0.2085  0.2585 -0.4398
   54MOL   C60042046   1.432   0.817   0.623  0.4606  0.7182 -0.3580
   54MOL   C60142047   1.485   0.710   0.686 -0.6765 -0.6072 -0.3129
   54MOL   C60242048   1.502   0.588   0.616 -0.7015 -0.3745  0.3242
   54MOL   C60342049   1.564   0.477   0.697 -0.3393 -0.5204  0.3675
   54MOL   O60442050   1.584   0.487   0.816 -0.3262 -0.1923  0.4077
   54MOL   O60542051   1.609   0.373   0.618 -0.0909  0.6060  0.9460
   54MOL   C60642052   1.484   0.584   0.477  0.5894 -0.2555  0.1444
   54MOL   C60742053   1.435   0.697   0.410  0.4138 -0.1328 -0.3168
   54MOL   H60842054   1.611   1.099   0.189 -2.2566 -0.0996  1.3334
   54MOL   H60942055   1.515   1.236   0.172  0.4591  1.0587 -2.4762
   54MOL   H61042056   1.728   1.241   0.022  0.6431 -0.1312  0.2817
   54MOL   H61142057   1.675   1.100   7.984  1.6300 -1.8314  4.3413
   54MOL   H61242058   1.513   1.355   7.962  3.2615  1.5503 -1.0764
   54MOL   H61342059   1.713   1.245   7.788  0.0762  0.5991 -0.5197
   54MOL   H61442060   1.578   1.361   7.735 -0.3629  0.2358  1.6265
   54MOL   H61542061   1.374   1.250   7.814 -1.3939 -1.2714 -0.0792
   54MOL   H61642062   1.451   1.100   7.806  0.5553  0.5721  0.2867
   54MOL   H61742063   1.271   1.063   7.955 -0.6777  1.2006  0.4765
   54MOL   H61842064   1.295   1.216   8.016 -0.1638 -0.5638 -1.7424
   54MOL   H61942065   1.465   0.964   0.034  0.3456  1.3248 -3.1690
   54MOL   H62042066   1.308   1.125   0.239 -3.3029 -1.1774 -0.4378
   54MOL   H62142067   1.239   0.992   0.155 -0.1135 -0.1168  1.2662
   54MOL   H62242068   1.402   0.905   0.678  0.8864  1.2118 -0.9009
   54MOL   H62342069   1.498   0.717   0.793 -0.5346  0.4861 -0.3999
   54MOL   H62442070   1.509   0.490   0.430 -0.6269 -0.8038  0.5787
   54MOL   H62542071   1.417   0.702   0.304 -1.7341  0.8055  0.0689
   54MOL   C62642072   2.057   0.116   0.880  0.3735  0.5290  0.3078
   54MOL   C62742073   1.940   0.207   0.850 -0.6059  0.5454 -0.2995
   54MOL   C62842074   1.944   0.240   0.697 -0.5529 -0.2382 -0.0476
   54MOL   C62942075   1.830   0.329   0.647  0.6780  0.5699 -0.0802
   54MOL   O63042076   1.701   0.281   0.686  0.7319  0.3153 -0.2774
   54MOL   C63142077   2.080   0.309   0.657  0.2308 -0.1580 -0.0669
   54MOL   C63242078   2.198   0.216   0.680  0.9237  0.4217 -0.0532
   54MOL   C63342079   2.198   0.173   0.827 -1.1720 -0.5609 -0.6441
   54MOL   C63442080   2.323   0.074   0.851  0.4765 -0.5842  0.0799
   54MOL   O63542081   2.336   0.020   0.978  0.0813  0.3658 -0.1088
   54MOL   C63642082   2.316   7.928   1.001  0.1609  0.4425  0.1403
   54MOL   O63742083   2.279   7.844   0.915  0.4097  0.1247 -0.0538
   54MOL   C63842084   2.325   7.895   1.145 -0.5359 -0.5346  0.3065
   54MOL   C63942085   2.441   7.933   1.215 -0.9790  0.4773  0.2068
   54MOL   C64042086   2.446   7.938   1.355  0.5115  0.2206 -0.6334
   54MOL   C64142087   2.336   7.885   1.432 -0.5078  0.0972  0.0571
   54MOL   C64242088   2.343   7.872   1.578 -0.0511 -0.4244  0.3283
   54MOL   O64342089   2.257   7.808   1.648  0.1458  0.1781  0.7560
   54MOL   O64442090   2.451   7.932   1.634 -0.2514  0.2472 -0.2823
   54MOL   C64542091   2.226   7.831   1.365  0.3750 -0.0127  0.4067
   54MOL   C64642092   2.219   7.843   1.224 -0.3062 -0.7079  0.3019
   54MOL   H64742093   2.066   0.095   0.987 -1.0899 -3.3277 -0.2533
   54MOL   H64842094   2.034   0.021   0.831  0.5593  0.8764 -0.4582
   54MOL   H64942095   1.847   0.164   0.886 -0.1128 -1.7184 -1.5969
   54MOL   H65042096   1.959   0.297   0.908 -2.3601  0.2431  0.7949
   54MOL   H65142097   1.934   0.149   0.638  0.1124  0.0023 -0.5462
   54MOL   H65242098   1.838   0.428   0.693  0.6026  0.2388  0.6673
   54MOL   H65342099   1.836   0.327   0.539  0.1871  0.5595 -0.1099
   54MOL   H65442100   2.072   0.326   0.550 -0.4453 -2.5163 -0.4010
   54MOL   H65542101   2.087   0.401   0.716 -1.2616 -0.8623  1.2493
   54MOL   H65642102   2.289   0.261   0.641  1.5574  0.1080  1.0479
   54MOL   H65742103   2.176   0.129   0.617 -1.8893  0.6168  0.5863
   54MOL   H65842104   2.215   0.262   0.888 -1.9057 -1.0272  0.2513
   54MOL   H65942105   2.313   8.026   0.781 -0.2144 -0.3039 -0.1514
   54MOL   H66042106   2.414   0.125   0.820  1.6927 -2.0529  1.1411
   54MOL   H66142107   2.519   7.983   1.159 -0.7309 -1.2255 -0.9890
   54MOL   H66242108   2.535   7.974   1.404  0.8967  1.1834 -2.0049
   54MOL   H66342109   2.145   7.788   1.423  1.0515 -0.5593  0.9461
   54MOL   H66442110   2.127   7.809   1.179 -0.3446  0.1461 -0.2670
   54MOL   C66542111   2.275   7.981   2.172 -0.1948 -0.0809  1.0770
   54MOL   C66642112   2.356   8.005   2.046  0.1284 -0.0365  0.4772
   54MOL   C66742113   2.410   7.870   1.999  0.1971 -0.4985  0.0171
   54MOL   C66842114   2.479   7.868   1.863  0.2378  0.5406 -0.3029
   54MOL   O66942115   2.427   7.970   1.776  0.5016 -0.2529  0.4424
   54MOL   C67042116   2.501   7.801   2.101  0.1328  0.0798  0.2930
   54MOL   C67142117   2.415   7.780   2.226 -0.6124 -0.3836  0.3476
   54MOL   C67242118   2.357   7.912   2.283 -0.4734  0.0298  0.5347
   54MOL   C67342119   2.274   7.896   2.408 -0.7595  0.3853  0.3661
   54MOL   O67442120   2.357   7.829   2.510 -0.3865  0.2279 -0.0748
   54MOL   C67542121   2.362   7.860   2.640 -0.0146 -0.2279  0.3984
   54MOL   O67642122   2.297   7.953   2.690 -0.0068 -0.1425 -0.2716
   54MOL   C67742123   2.447   7.772   2.729  0.3757 -0.1829  0.3622
   54MOL   C67842124   2.453   7.802   2.865  0.3130  0.4147 -0.0184
   54MOL   C67942125   2.535   7.730   2.957  0.4353 -0.3464 -0.1378
   54MOL   C68042126   2.612   7.629   2.907 -0.3136 -0.1614 -0.3433
   54MOL   C68142127   2.702   7.543   2.992 -0.0178  0.2475  0.3193
   54MOL   O68242128   2.784   7.457   2.943  0.7055  0.4876  0.4236
   54MOL   O68342129   2.689   7.559   3.123  0.0022 -0.2412 -0.6889
   54MOL   C68442130   2.613   7.602   2.770  0.1252  0.7610  0.8555
   54MOL   C68542131   2.529   7.672   2.681 -0.4388  0.2434  0.0896
   54MOL   H68642132   2.247   0.047   2.202  0.4966  0.5413 -0.3342
   54MOL   H68742133   2.181   7.932   2.145 -0.4839  0.5910  0.8497
   54MOL   H68842134   2.283   0.004   1.972  0.8233  0.5494  0.0610
   54MOL   H68942135   2.436   0.043   2.059  0.5614 -0.5090  0.4920
   54MOL   H69042136   2.323   7.806   1.986  0.7802 -1.3686  0.3647
   54MOL   H69142137   2.587   7.885   1.866  0.2084  0.9489 -1.2816
   54MOL   H69242138   2.466   7.768   1.823  1.5994  0.5762 -0.8885
   54MOL   H69342139   2.534   7.702   2.068  1.4683  1.1973 -1.7751
   54MOL   H69442140   2.597   7.851   2.117 -0.4110  1.8570 -1.8505
   54MOL   H69542141   2.468   7.715   2.297 -0.5988  2.4868  3.0814
   54MOL   H69642142   2.330   7.723   2.189  0.4210 -0.8429 -1.4063
   54MOL   H69742143   2.440   7.979   2.304 -0.1065  0.3660 -1.8538
   54MOL   H69842144   2.243   7.992   2.448 -0.2968  1.5342 -1.9618
   54MOL   H69942145   2.184   7.841   2.381 -0.4231  0.1066 -0.2155
   54MOL   H70042146   2.376   7.870   2.899 -1.7358 -0.1520 -3.2911
   54MOL   H70142147   2.535   7.766   3.058  2.3981 -2.0732  0.5062
   54MOL   H70242148   2.679   7.534   2.718 -1.8055 -0.0338 -0.6315
   54MOL   H70342149   2.535   7.649   2.576 -0.5206 -0.5364  0.2506
   54MOL   C70442150   2.557   7.649   3.505  0.3000  0.6841  0.1513
   54MOL   C70542151   2.678   7.580   3.440 -0.1208  0.2310 -0.1888
   54MOL   C70642152   2.630   7.457   3.358  0.4897  0.0007 -0.4368
   54MOL   C70742153   2.739   7.395   3.276  0.5927 -0.7008 -0.8672
   54MOL   O70842154   2.795   7.498   3.205  0.0051 -0.1098  0.4057
   54MOL   C70942155   2.568   7.358   3.453  0.3449  0.4116  0.6788
   54MOL   C71042156   2.450   7.424   3.529  0.1749  0.0472 -0.1579
   54MOL   C71142157   2.491   7.553   3.602  0.2339  0.3990 -0.4793
   54MOL   C71242158   2.368   7.623   3.667 -0.5326 -0.3591  0.0075
   54MOL   O71342159   2.360   7.564   3.798  0.4318  0.2324 -0.2958
   54MOL   C71442160   2.397   7.631   3.910 -0.5238  0.2450  0.2049
   54MOL   O71542161   2.463   7.739   3.907 -0.2560  0.4933  0.1408
   54MOL   C71642162   2.356   7.565   4.037 -0.7530  0.2022  0.2336
   54MOL   C71742163   2.273   7.454   4.038  0.2536 -0.8261 -0.1648
   54MOL   C71842164   2.233   7.387   4.157 -0.2310  0.3426  0.2212
   54MOL   C71942165   2.280   7.438   4.281  0.5557 -0.0608 -0.1798
   54MOL   C72042166   2.221   7.369   4.402  0.1071  0.0959  0.8188
   54MOL   O72142167   2.134   7.277   4.397 -0.7481 -0.1727  0.1442
   54MOL   O72242168   2.254   7.435   4.515  0.1521  0.4190 -0.0146
   54MOL   C72342169   2.364   7.549   4.283  0.2419 -1.2217  0.2584
   54MOL   C72442170   2.403   7.610   4.162  0.2917 -0.1000 -0.2270
   54MOL   H72542171   2.596   7.725   3.572 -0.1198  0.4354  0.6739
   54MOL   H72642172   2.492   7.685   3.426  0.3261 -1.0310 -0.6707
   54MOL   H72742173   2.730   7.656   3.381  2.8543 -0.9692  0.7864
   54MOL   H72842174   2.740   7.544   3.522 -2.7440 -0.7177  1.4090
   54MOL   H72942175   2.547   7.479   3.292 -0.1667 -1.1945 -0.0359
   54MOL   H73042176   2.813   7.337   3.331  0.2821 -0.5727 -0.3124
   54MOL   H73142177   2.697   7.326   3.203  1.0515 -1.4417 -0.4347
   54MOL   H73242178   2.525   7.269   3.408  1.4874  0.4456 -0.5161
   54MOL   H73342179   2.643   7.321   3.522  2.0417 -0.7439 -1.7080
   54MOL   H73442180   2.421   7.359   3.612  2.0851  1.3101  1.5508
   54MOL   H73542181   2.366   7.438   3.461 -0.0426  2.3811  0.5512
   54MOL   H73642182   2.555   7.522   3.684  0.5206 -1.0050 -1.2038
   54MOL   H73742183   2.367   7.732   3.670 -2.2033 -0.3967  0.9913
   54MOL   H73842184   2.273   7.612   3.617  0.1125  0.1613 -1.3535
   54MOL   H73942185   2.240   7.404   3.948 -3.2012  1.6664 -0.4011
   54MOL   H74042186   2.197   7.286   4.145  0.6216  0.2698 -1.9870
   54MOL   H74142187   2.405   7.584   4.376 -0.5118  2.8754 -0.8512
   54MOL   H74242188   2.474   7.691   4.164  0.4970 -0.1349 -3.3675
   54MOL   C74342189   1.837   7.338   4.930 -0.0421  1.3437  0.6960
   54MOL   C74442190   1.934   7.339   4.811 -0.1190  0.0991 -0.1914
   54MOL   C74542191   1.993   7.472   4.782  0.2256 -0.0748  0.4018
   54MOL   C74642192   2.068   7.484   4.652 -0.1745  0.3285  0.6504
   54MOL   O74742193   2.178   7.393   4.633 -0.2486  0.1730 -0.2304
   54MOL   C74842194   1.891   7.582   4.769  0.0758  0.6883  0.0225
   54MOL   C74942195   1.810   7.599   4.904 -0.6911  0.0772  0.5392
   54MOL   C75042196   1.745   7.464   4.933  0.7763 -0.6620 -0.1003
   54MOL   C75142197   1.654   7.463   5.062 -0.4590  0.1699 -0.2811
   54MOL   O75242198   1.702   7.552   5.164 -0.1485 -0.6063  0.0297
   54MOL   C75342199   1.639   7.670   5.188  0.5345  0.2935  0.2175
   54MOL   O75442200   1.534   7.711   5.133 -0.0735  0.1197 -0.1832
   54MOL   C75542201   1.714   7.756   5.288  0.0522 -0.6185 -0.4787
   54MOL   C75642202   1.837   7.714   5.339 -0.4431  0.0942 -0.2310
   54MOL   C75742203   1.901   7.799   5.434 -0.5357 -0.0542 -0.4178
   54MOL   C75842204   1.838   7.912   5.491  0.3098 -0.9079  0.2859
   54MOL   C75942205   1.894   7.978   5.611  0.5216 -0.2631  0.3265
   54MOL   O76042206   1.848   0.047   5.656 -0.0034 -0.0383 -0.2900
   54MOL   O76142207   2.011   7.924   5.657  0.0526 -0.1672  0.0707
   54MOL   C76242208   1.712   7.956   5.437  0.0546  0.0165 -0.0984
   54MOL   C76342209   1.657   7.878   5.331 -0.1302 -0.4791  0.2107
   54MOL   H76442210   1.786   7.243   4.941  1.3062  0.3894 -0.9977
   54MOL   H76542211   1.898   7.337   5.020  1.0074 -1.9727 -0.0001
   54MOL   H76642212   2.006   7.257   4.808  0.2222  0.3613  0.6588
   54MOL   H76742213   1.875   7.314   4.723 -0.2347 -1.4681  0.3052
   54MOL   H76842214   2.058   7.496   4.866  2.9746 -1.5610 -1.2076
   54MOL   H76942215   1.992   7.446   4.584  2.0135 -2.0949 -0.5177
   54MOL   H77042216   2.097   7.586   4.627  1.8342 -0.9610 -2.5413
   54MOL   H77142217   1.937   7.678   4.745  3.3634 -0.8890 -0.3093
   54MOL   H77242218   1.828   7.557   4.685  2.0536 -0.4639 -1.1661
   54MOL   H77342219   1.739   7.681   4.892  2.0299  3.0309  3.6111
   54MOL   H77442220   1.868   7.627   4.992  1.9938  0.0143 -1.1855
   54MOL   H77542221   1.676   7.447   4.851  0.4752 -2.2704  0.4594
   54MOL   H77642222   1.548   7.485   5.046 -0.4977  0.2054  0.0238
   54MOL   H77742223   1.650   7.364   5.108 -0.3337  0.3253  0.0624
   54MOL   H77842224   1.883   7.623   5.303 -4.0897 -1.4426 -1.1839
   54MOL   H77942225   1.994   7.767   5.479 -0.2043 -0.3262 -1.2881
   54MOL   H78042226   1.678   0.017   5.470  1.8804 -0.2944  2.9038
   54MOL   H78142227   1.563   7.908   5.287  1.1821  1.0883 -1.6153
   54MOL   H78242228   2.059   7.977   5.719  1.0809  1.4935 -2.0550
   55MOL     C142229   3.214   3.295   8.030  0.3812  0.4983  0.0662
   55MOL     C242230   3.115   3.177   8.031  0.2295  0.2149 -0.5242
   55MOL     C342231   2.997   3.192   7.932  0.1456  0.3000 -0.5074
   55MOL     C442232   2.899   3.077   7.924 -0.2309 -0.3751 -0.3166
   55MOL     O542233   2.834   3.056   0.011  0.1872 -0.1508 -0.1371
   55MOL     C642234   2.922   3.327   7.955 -0.1067  0.2383  0.2008
   55MOL     C742235   3.023   3.447   7.938 -0.3290  0.1808 -0.4508
   55MOL     C842236   3.149   3.435   0.003 -0.3877 -0.3237 -0.4894
   55MOL     C942237   3.250   3.553   8.008 -0.7551  0.1747 -0.6062
   55MOL    O1042238   3.346   3.559   0.085 -0.3276  0.2826  0.2598
   55MOL    C1142239   3.451   3.649   0.075 -0.9264  0.0482  0.8297
   55MOL    O1242240   3.481   3.708   8.010 -0.4256 -0.0300  0.5598
   55MOL    C1342241   3.534   3.643   0.200 -0.4460  0.8046 -0.1474
   55MOL    C1442242   3.501   3.551   0.297 -0.0916  0.4601 -0.7238
   55MOL    C1542243   3.567   3.557   0.425 -0.2947  0.5085  0.3307
   55MOL    C1642244   3.661   3.661   0.455 -0.8557  0.3141  0.0080
   55MOL    C1742245   3.715   3.677   0.588 -0.0120 -0.6894 -0.1833
   55MOL    O1842246   3.760   3.788   0.630  0.1013 -0.2493  0.5336
   55MOL    O1942247   3.712   3.563   0.658 -0.3742 -0.2706 -0.0453
   55MOL    C2042248   3.697   3.748   0.350 -0.1917  0.0138 -0.6069
   55MOL    C2142249   3.632   3.742   0.228  0.5123  0.1504  0.2148
   55MOL    H2242250   3.272   3.286   0.086 -0.8194  0.1856  0.8103
   55MOL    H2342251   3.280   3.303   7.944  2.1068  0.1185  1.3421
   55MOL    H2442252   3.166   3.083   8.005  2.3437  1.2642 -0.2967
   55MOL    H2542253   3.079   3.167   0.097  0.7150 -1.9779 -0.5238
   55MOL    H2642254   3.040   3.192   7.832 -1.6535 -0.4215 -1.2983
   55MOL    H2742255   2.829   3.098   7.843  0.0796 -0.3293 -0.5777
   55MOL    H2842256   2.961   2.992   7.895 -1.6015 -1.8310  0.9836
   55MOL    H2942257   2.852   3.336   7.872  0.6901 -1.1340 -0.6310
   55MOL    H3042258   2.861   3.334   0.009 -3.2785  1.4171 -1.9682
   55MOL    H3142259   2.986   3.548   7.957 -1.3349 -0.0577 -1.0733
   55MOL    H3242260   3.064   3.431   7.838 -0.1098 -1.7247 -0.0779
   55MOL    H3342261   3.106   3.446   0.103  0.4908 -0.7068 -0.0648
   55MOL    H3442262   3.291   3.535   7.909 -1.1500 -1.4059 -0.4980
   55MOL    H3542263   3.207   3.652   7.996 -0.0010  0.5245 -0.4559
   55MOL    H3642264   3.427   3.473   0.287 -0.6401  0.8965 -0.1011
   55MOL    H3742265   3.547   3.482   0.499 -1.9112 -0.0418 -0.6359
   55MOL    H3842266   3.769   3.828   0.362 -0.8312  0.1727  2.5696
   55MOL    H3942267   3.653   3.818   0.154 -0.0336 -1.6750 -1.8358
   55MOL    H4042268   2.757   3.109   0.030  0.1401  0.1606 -1.1522
   55MOL    C4142269   3.357   3.413   0.976  0.2017 -0.2918 -0.0340
   55MOL    C4242270   3.471   3.519   1.003 -0.2246  0.2812  0.0319
   55MOL    C4342271   3.572   3.501   0.887  0.6602 -0.5589 -0.2487
   55MOL    C4442272   3.683   3.602   0.894 -0.7146 -0.1042 -0.7506
   55MOL    O4542273   3.780   3.567   0.802  0.3017 -0.0100 -0.3056
   55MOL    C4642274   3.617   3.354   0.885  0.3834 -0.3376 -0.5964
   55MOL    C4742275   3.504   3.254   0.876  0.1564 -0.1971  0.6107
   55MOL    C4842276   3.402   3.272   0.982 -0.4437  0.3880 -0.5180
   55MOL    C4942277   3.295   3.167   0.986 -0.0060 -0.2028 -0.7228
   55MOL    O5042278   3.195   3.200   0.899 -0.3953  0.1822  0.2710
   55MOL    C5142279   3.189   3.151   0.770  0.1695 -0.7337  0.6104
   55MOL    O5242280   3.269   3.065   0.724  0.3503 -0.3843 -0.2481
   55MOL    C5342281   3.078   3.215   0.696  0.2554 -0.2175  0.4797
   55MOL    C5442282   3.012   3.327   0.742 -0.0463  0.0997  0.3346
   55MOL    C5542283   2.894   3.369   0.684 -0.2999 -0.2507  0.0545
   55MOL    C5642284   2.846   3.302   0.566  0.1604 -0.4373  0.3355
   55MOL    C5742285   2.729   3.343   0.488  0.7597 -0.4799 -0.2621
   55MOL    O5842286   2.697   3.297   0.379 -0.0359 -0.4114 -0.6552
   55MOL    O5942287   2.671   3.443   0.550  0.0437 -0.5389  0.7052
   55MOL    C6042288   2.921   3.194   0.510  0.7947 -0.3189 -0.3005
   55MOL    C6142289   3.037   3.152   0.575  0.2484 -0.5531  0.2058
   55MOL    H6242290   3.282   3.422   1.054 -0.6827 -0.1189 -0.8911
   55MOL    H6342291   3.306   3.427   0.881  0.6679 -1.2910 -0.4461
   55MOL    H6442292   3.428   3.617   1.023 -0.0650  0.0432  1.6559
   55MOL    H6542293   3.520   3.495   1.097  2.7868  4.5304 -0.3209
   55MOL    H6642294   3.518   3.523   0.795 -1.5617  0.2789  1.2201
   55MOL    H6742295   3.657   3.707   0.886  2.0431  0.6262 -0.4082
   55MOL    H6842296   3.737   3.588   0.987 -0.6864  2.3637 -0.3733
   55MOL    H6942297   3.677   3.346   0.795 -0.8073  0.4394 -1.4867
   55MOL    H7042298   3.680   3.322   0.968 -1.4194 -3.7255 -0.4527
   55MOL    H7142299   3.536   3.152   0.856  1.4047  0.4892 -0.9838
   55MOL    H7242300   3.457   3.270   0.779 -0.6309  0.2615  1.0618
   55MOL    H7342301   3.469   3.258   1.067  0.5183  1.8673 -0.9967
   55MOL    H7442302   3.326   3.064   0.971 -1.4168 -1.3098  3.2504
   55MOL    H7542303   3.240   3.168   1.080 -1.9813 -3.1043 -1.7955
   55MOL    H7642304   3.040   3.365   0.840  1.1528  0.2899 -0.0752
   55MOL    H7742305   2.847   3.457   0.725  1.3881 -0.3720  2.3290
   55MOL    H7842306   2.895   3.157   0.412  2.2936  1.7534 -1.5256
   55MOL    H7942307   3.086   3.065   0.535 -1.6244 -1.1936 -0.7338
   55MOL    C8042308   2.083   3.638   0.546 -0.2385  0.5101  0.9328
   55MOL    C8142309   2.188   3.537   0.599  0.0088  0.7128 -0.5929
   55MOL    C8242310   2.312   3.544   0.506 -0.0107 -0.5170 -0.0681
   55MOL    C8342311   2.436   3.470   0.563  0.3908 -0.4281 -0.1443
   55MOL    O8442312   2.547   3.493   0.478  0.3292  0.2747  0.3190
   55MOL    C8542313   2.277   3.510   0.359 -0.6855  0.5357  0.2658
   55MOL    C8642314   2.165   3.599   0.302  0.2305  0.7892 -0.2216
   55MOL    C8742315   2.037   3.615   0.403  0.2230  0.2117  0.1366
   55MOL    C8842316   1.937   3.734   0.366 -0.2727  0.2876  0.7614
   55MOL    O8942317   1.985   3.862   0.361 -0.3874 -0.3131 -0.1383
   55MOL    C9042318   1.962   3.953   0.454  0.1425 -0.1586  0.4219
   55MOL    O9142319   1.902   3.923   0.558 -0.0876  0.3915  0.2361
   55MOL    C9242320   2.024   4.088   0.422 -0.2132 -0.1314  0.7382
   55MOL    C9342321   2.048   4.179   0.535 -0.3389 -0.0863  0.2893
   55MOL    C9442322   2.102   4.307   0.504  0.0179  0.8043  0.4322
   55MOL    C9542323   2.137   4.340   0.364 -0.5273 -0.0379  0.0226
   55MOL    C9642324   2.197   4.470   0.321  0.9627  0.4226 -0.1942
   55MOL    O9742325   2.251   4.498   0.216  0.6578 -0.6716  0.3447
   55MOL    O9842326   2.196   4.555   0.431 -0.1113 -0.1209  0.1266
   55MOL    C9942327   2.133   4.238   0.265 -0.0539  0.1257 -0.5702
   55MOL   C10042328   2.074   4.115   0.291 -0.1782  0.3373 -0.2076
   55MOL   H10142329   2.004   3.629   0.621  1.4582 -0.7198  2.6344
   55MOL   H10242330   2.123   3.738   0.567  1.8169  0.1466 -1.0445
   55MOL   H10342331   2.217   3.535   0.705  1.2465 -1.2592 -0.9438
   55MOL   H10442332   2.145   3.438   0.589 -2.9026  2.1166 -2.5284
   55MOL   H10542333   2.343   3.648   0.517  1.2481 -1.1175  2.4369
   55MOL   H10642334   2.453   3.494   0.668 -1.8475 -1.2969  0.4393
   55MOL   H10742335   2.415   3.363   0.565 -0.1888 -0.3029  0.4941
   55MOL   H10842336   2.360   3.535   0.293 -0.3091 -2.7743 -0.5917
   55MOL   H10942337   2.252   3.405   0.344  0.3058  0.0201  2.1012
   55MOL   H11042338   2.140   3.550   0.208 -1.9048 -0.3878  0.9243
   55MOL   H11142339   2.207   3.696   0.275 -1.8131  1.3299 -1.6489
   55MOL   H11242340   1.976   3.525   0.411  2.5492 -1.4072  0.0455
   55MOL   H11342341   1.895   3.725   0.265 -0.5782  1.5068  0.7668
   55MOL   H11442342   1.849   3.724   0.429 -1.6507  1.1867 -0.9396
   55MOL   H11542343   2.032   4.158   0.640 -0.1858 -0.0711  0.3152
   55MOL   H11642344   2.111   4.378   0.585  0.1067 -0.1769  1.3008
   55MOL   H11742345   2.167   4.259   0.165 -1.9500 -2.3067 -1.7710
   55MOL   H11842346   2.068   4.036   0.218  0.8350 -1.6554  1.7739
   55MOL   C11942347   2.530   5.001   0.337 -0.6104 -0.2643 -0.3236
   55MOL   C12042348   2.434   4.899   0.395  0.4008  0.2581  0.4531
   55MOL   C12142349   2.492   4.758   0.417 -0.6067 -0.4078  0.8853
   55MOL   C12242350   2.389   4.671   0.478  0.2733  0.0016 -0.2415
   55MOL   O12342351   2.268   4.681   0.406  0.4452 -0.7329 -0.0183
   55MOL   C12442352   2.545   4.707   0.287  0.0776 -0.2511  0.5275
   55MOL   C12542353   2.648   4.806   0.232  0.0211  0.0999  0.5284
   55MOL   C12642354   2.592   4.945   0.208  0.1692  0.2661 -0.6904
   55MOL   C12742355   2.707   5.041   0.171  0.0546 -0.2251  0.4879
   55MOL   O12842356   2.650   5.151   0.099  0.7793 -0.0440  0.0912
   55MOL   C12942357   2.635   5.271   0.158  0.4002  0.1066 -0.0048
   55MOL   O13042358   2.664   5.303   0.274 -0.4090 -0.1062  0.3491
   55MOL   C13142359   2.571   5.360   0.067 -0.1739 -0.1426  0.5029
   55MOL   C13242360   2.627   5.490   0.045 -0.1314 -0.2879  0.6714
   55MOL   C13342361   2.586   5.564   7.966 -0.6672  0.4220  0.4397
   55MOL   C13442362   2.483   5.526   7.889 -0.1171  0.2374  0.0052
   55MOL   C13542363   2.453   5.603   7.770  0.4743 -0.3160  0.6189
   55MOL   O13642364   2.354   5.578   7.702  0.7208 -0.6839 -0.5264
   55MOL   O13742365   2.538   5.701   7.747 -0.2499  0.0514  0.4560
   55MOL   C13842366   2.410   5.411   7.923 -0.4497 -0.4499 -0.5391
   55MOL   C13942367   2.454   5.323   8.027 -0.1431  0.5711 -0.4573
   55MOL   H14042368   2.483   5.099   0.332 -1.1563 -0.3958  1.8859
   55MOL   H14142369   2.607   5.006   0.414  2.6252 -1.8808 -3.3175
   55MOL   H14242370   2.395   4.944   0.486 -0.5322  0.6518 -0.1300
   55MOL   H14342371   2.355   4.895   0.319 -0.0303 -1.1349  0.9580
   55MOL   H14442372   2.577   4.766   0.485  1.2192 -0.1619 -1.3905
   55MOL   H14542373   2.437   4.573   0.478 -0.0399 -0.1999  2.3000
   55MOL   H14642374   2.368   4.713   0.576 -2.6004  0.2725 -0.9131
   55MOL   H14742375   2.602   4.614   0.293  1.0775  0.3670  0.5618
   55MOL   H14842376   2.465   4.695   0.213  0.8917 -0.0546 -0.3915
   55MOL   H14942377   2.686   4.764   0.139  0.2497  0.5578  0.4121
   55MOL   H15042378   2.738   4.806   0.294 -0.0050  0.2613  0.5658
   55MOL   H15142379   2.528   4.944   0.119 -0.4041 -2.7284 -0.2950
   55MOL   H15242380   2.753   5.076   0.264  1.4999  0.8781 -0.6222
   55MOL   H15342381   2.780   4.994   0.106 -2.5905 -1.7442 -1.4706
   55MOL   H15442382   2.719   5.520   0.093  0.4860  1.2718 -1.4210
   55MOL   H15542383   2.641   5.654   7.939 -0.7011  0.6696  1.1975
   55MOL   H15642384   2.326   5.387   7.859 -0.8889 -0.4931  0.0456
   55MOL   H15742385   2.405   5.227   0.006 -1.6775  1.3533 -0.4060
   55MOL   C15842386   2.252   5.755   7.293 -0.2365 -0.4814 -0.0997
   55MOL   C15942387   2.339   5.707   7.411 -0.2616  1.0604 -0.0878
   55MOL   C16042388   2.487   5.752   7.395 -0.6020 -0.8379 -0.6677
   55MOL   C16142389   2.571   5.705   7.514  0.0453 -0.2672  0.4123
   55MOL   O16242390   2.506   5.778   7.623 -0.2411  0.0462 -0.1464
   55MOL   C16342391   2.537   5.696   7.260 -0.3666 -0.1807 -0.0363
   55MOL   C16442392   2.451   5.747   7.143 -0.2555  0.0858  0.3217
   55MOL   C16542393   2.304   5.708   7.161  0.1228  0.2043 -0.4335
   55MOL   C16642394   2.219   5.762   7.045 -0.9861 -0.8542 -0.7810
   55MOL   O16742395   2.176   5.896   7.052 -0.4384 -0.0351  0.3603
   55MOL   C16842396   2.126   5.946   6.933 -0.1802 -0.0752  0.1881
   55MOL   O16942397   2.125   5.892   6.821  0.1287 -0.1377  0.5272
   55MOL   C17042398   2.073   6.084   6.959 -1.2270 -0.5528  0.8082
   55MOL   C17142399   2.095   6.187   6.862 -0.4625  0.4437 -0.2029
   55MOL   C17242400   2.039   6.315   6.891 -0.5148 -0.2413 -0.0937
   55MOL   C17342401   1.955   6.340   7.006 -0.1906  0.2369 -0.4227
   55MOL   C17442402   1.892   6.477   7.016  0.0331 -0.6095 -0.2468
   55MOL   O17542403   1.897   6.558   6.923  0.0739 -0.3685 -0.0593
   55MOL   O17642404   1.826   6.495   7.133 -0.0329  0.2546  0.1103
   55MOL   C17742405   1.935   6.238   7.100  0.1718  0.8929 -0.2255
   55MOL   C17842406   1.994   6.110   7.077  0.8587 -0.3725  0.4052
   55MOL   H17942407   2.152   5.718   7.318 -1.1752  1.2540 -1.1660
   55MOL   H18042408   2.237   5.863   7.289  1.7701 -0.1746  0.1089
   55MOL   H18142409   2.292   5.759   7.494  0.1395  3.0707 -1.0748
   55MOL   H18242410   2.337   5.599   7.424 -2.4453  0.9955 -0.7984
   55MOL   H18342411   2.501   5.860   7.393 -3.4623 -0.3878  1.1628
   55MOL   H18442412   2.564   5.597   7.528  1.2126 -0.6718 -1.9373
   55MOL   H18542413   2.674   5.739   7.508 -0.3299  1.0725  1.3565
   55MOL   H18642414   2.641   5.718   7.236 -0.3993 -0.0541 -0.0636
   55MOL   H18742415   2.537   5.587   7.260  2.2399 -0.2232  0.5162
   55MOL   H18842416   2.473   5.706   7.044  1.5819 -1.4590  1.3456
   55MOL   H18942417   2.480   5.851   7.133 -2.1432  0.7272  1.2034
   55MOL   H19042418   2.308   5.600   7.170 -0.6599 -0.0076 -2.2259
   55MOL   H19142419   2.274   5.744   6.953  1.1144 -2.1875  0.6932
   55MOL   H19242420   2.131   5.697   7.047  0.8837 -3.4464 -1.2000
   55MOL   H19342421   2.150   6.168   6.772 -0.1351  2.5103 -0.4693
   55MOL   H19442422   2.060   6.384   6.811  0.2833 -0.9600 -0.5119
   55MOL   H19542423   1.862   6.250   7.178 -1.0429 -0.4801 -1.1154
   55MOL   H19642424   1.976   6.033   7.150 -3.2233  1.4798  1.5570
   55MOL   C19742425   1.414   6.226   7.293  0.5991  0.2112  0.5688
   55MOL   C19842426   1.436   6.341   7.192 -0.6415 -0.3639 -0.7594
   55MOL   C19942427   1.567   6.418   7.219 -0.1751 -0.0323 -0.1786
   55MOL   C20042428   1.592   6.531   7.116  0.9597 -0.0550 -0.3610
   55MOL   O20142429   1.718   6.598   7.128  0.3560  0.4534  0.3695
   55MOL   C20242430   1.559   6.469   7.363  0.6059 -0.6502  0.2309
   55MOL   C20342431   1.530   6.364   7.467 -0.4452 -0.0215 -0.4062
   55MOL   C20442432   1.412   6.272   7.438  0.3547  0.2775 -0.6327
   55MOL   C20542433   1.398   6.158   7.536 -0.3062 -0.2657  0.0030
   55MOL   O20642434   1.412   6.199   7.676  0.3640  0.0197  0.0607
   55MOL   C20742435   1.319   6.272   7.743  0.1751 -0.3227 -0.3518
   55MOL   O20842436   1.205   6.300   7.696 -0.0926 -0.1290 -0.0165
   55MOL   C20942437   1.354   6.301   7.883 -0.0985  0.2796  0.2007
   55MOL   C21042438   1.263   6.367   7.959  0.0012  0.1111  0.1475
   55MOL   C21142439   1.291   6.403   0.062 -0.0122  0.1002  1.0458
   55MOL   C21242440   1.411   6.374   0.121 -0.4141  0.5618 -0.0012
   55MOL   C21342441   1.436   6.425   0.260 -0.0958  0.3693 -0.3046
   55MOL   O21442442   1.548   6.416   0.310  0.1544 -0.3339 -0.3682
   55MOL   O21542443   1.328   6.481   0.316 -0.0210 -0.2970  0.4852
   55MOL   C21642444   1.509   6.302   0.042 -0.3747  1.0880  0.0992
   55MOL   C21742445   1.483   6.273   7.943  0.1914 -0.0641  0.2088
   55MOL   H21842446   1.320   6.176   7.272  0.1445  1.3234 -0.1064
   55MOL   H21942447   1.500   6.158   7.295  1.6188  1.5175  1.9331
   55MOL   H22042448   1.434   6.309   7.088 -0.5446  0.2757 -0.9634
   55MOL   H22142449   1.343   6.396   7.209 -0.2805 -0.1922  0.7818
   55MOL   H22242450   1.651   6.350   7.219  0.3299  0.5420  2.2048
   55MOL   H22342451   1.587   6.506   7.010 -4.4024  1.9805 -0.7416
   55MOL   H22442452   1.519   6.610   7.132  0.4538 -0.6711  0.3929
   55MOL   H22542453   1.649   6.522   7.394  0.4325 -0.0247 -0.3259
   55MOL   H22642454   1.477   6.539   7.348 -0.2167 -1.8035 -0.8454
   55MOL   H22742455   1.530   6.416   7.562 -1.0655  1.9488 -1.4602
   55MOL   H22842456   1.616   6.300   7.483  0.3934  1.2406  0.1504
   55MOL   H22942457   1.321   6.328   7.456  0.1307 -0.0482 -0.7586
   55MOL   H23042458   1.305   6.110   7.505 -1.2251  2.0381 -0.9688
   55MOL   H23142459   1.482   6.090   7.524 -2.4510 -3.3040  1.4254
   55MOL   H23242460   1.165   6.390   7.920 -0.1160  0.1146  0.4359
   55MOL   H23342461   1.208   6.455   0.109 -0.0828  0.2505  0.7531
   55MOL   H23442462   1.599   6.253   0.077 -0.5009 -0.5834 -1.8096
   55MOL   H23542463   1.548   6.214   7.880 -2.0368 -0.3008 -1.9762
   55MOL   C23642464   1.414   6.833   0.820  0.3301 -0.4179 -0.6368
   55MOL   C23742465   1.396   6.814   0.670  0.1496 -0.3015  0.6002
   55MOL   C23842466   1.406   6.663   0.635 -0.8532 -0.3633 -0.5719
   55MOL   C23942467   1.386   6.640   0.478  0.3818 -0.2599  1.0863
   55MOL   O24042468   1.352   6.504   0.462  0.1874  0.5135 -0.1382
   55MOL   C24142469   1.547   6.609   0.682  0.0663  0.3938  0.0088
   55MOL   C24242470   1.568   6.633   0.833 -0.5762  0.2635 -0.2468
   55MOL   C24342471   1.546   6.780   0.879  0.5248  0.2519  0.3742
   55MOL   C24442472   1.551   6.792   1.034 -0.6543 -0.3281 -0.5144
   55MOL   O24542473   1.672   6.737   1.080  0.0765 -0.0556  0.3598
   55MOL   C24642474   1.690   6.703   1.205  0.7130 -0.5398 -0.3316
   55MOL   O24742475   1.595   6.714   1.286 -0.0012  0.5322  0.2669
   55MOL   C24842476   1.832   6.669   1.235 -0.8463  0.3293  0.1763
   55MOL   C24942477   1.931   6.662   1.145 -0.3011 -0.3383 -0.6981
   55MOL   C25042478   2.065   6.625   1.179  0.6535 -0.6813  0.0487
   55MOL   C25142479   2.085   6.590   1.313 -0.6818 -0.2671 -0.0908
   55MOL   C25242480   2.222   6.563   1.354  0.5402  0.4215 -0.1248
   55MOL   O25342481   2.249   6.519   1.464  0.3741  0.2646 -0.6421
   55MOL   O25442482   2.312   6.575   1.256  0.6048  0.8548 -0.2191
   55MOL   C25542483   1.981   6.585   1.407 -0.4110  0.1486  0.2162
   55MOL   C25642484   1.853   6.630   1.368  0.1358 -0.1810  0.1327
   55MOL   H25742485   1.401   6.938   0.847  2.5037 -0.5335  1.0056
   55MOL   H25842486   1.336   6.772   0.863 -0.0534 -0.7090 -1.7138
   55MOL   H25942487   1.302   6.855   0.633  1.5901  2.6965  0.1050
   55MOL   H26042488   1.475   6.871   0.620 -0.7249 -1.1479 -1.8089
   55MOL   H26142489   1.315   6.623   0.680 -0.3555  0.9014  1.6156
   55MOL   H26242490   1.306   6.706   0.445  0.0904 -0.9895  0.3329
   55MOL   H26342491   1.478   6.657   0.422  0.5619 -0.8071  1.2027
   55MOL   H26442492   1.556   6.502   0.669 -0.5906  0.2807  0.4491
   55MOL   H26542493   1.631   6.647   0.625 -0.6372  1.5557 -0.2913
   55MOL   H26642494   1.671   6.602   0.851 -0.2114  1.7935  0.3922
   55MOL   H26742495   1.495   6.571   0.885 -1.1022  1.0100 -0.0897
   55MOL   H26842496   1.629   6.835   0.833  1.8305 -2.2827 -0.4129
   55MOL   H26942497   1.554   6.897   1.065 -0.7862 -0.8001  1.1393
   55MOL   H27042498   1.472   6.742   1.089  0.2729  1.3345  2.4427
   55MOL   H27142499   1.912   6.679   1.040  0.1818 -1.5835 -0.9927
   55MOL   H27242500   2.137   6.616   1.100  0.3402 -3.0137 -0.0154
   55MOL   H27342501   1.995   6.564   1.512  1.8435  4.2003  0.8185
   55MOL   H27442502   1.772   6.629   1.440  0.8331  2.0051  0.9799
   55MOL   C27542503   2.833   6.330   1.392 -0.6632 -0.5589 -0.5206
   55MOL   C27642504   2.728   6.408   1.309 -0.1578  0.2100 -0.0990
   55MOL   C27742505   2.652   6.514   1.389 -0.5182 -0.3753  0.1672
   55MOL   C27842506   2.534   6.582   1.311 -0.2234  0.1535 -0.1401
   55MOL   O27942507   2.429   6.492   1.279  0.7789  0.4825 -0.1538
   55MOL   C28042508   2.596   6.456   1.519 -0.5460 -0.4780 -0.2558
   55MOL   C28142509   2.702   6.380   1.603  0.0045  0.7535 -0.2818
   55MOL   C28242510   2.768   6.265   1.514 -0.5654  0.2126 -0.0804
   55MOL   C28342511   2.867   6.189   1.592 -1.0055  0.1025 -0.0178
   55MOL   O28442512   2.898   6.067   1.528  0.6879  0.2286  0.1389
   55MOL   C28542513   3.021   6.044   1.475  0.2146 -0.0949 -0.3878
   55MOL   O28642514   3.112   6.125   1.481  0.2004  0.2174  0.3408
   55MOL   C28742515   3.022   5.925   1.385 -0.6865 -0.4236 -0.1104
   55MOL   C28842516   2.917   5.893   1.302  0.3549 -0.3699 -0.9499
   55MOL   C28942517   2.919   5.781   1.218 -0.0143  1.0085 -0.0194
   55MOL   C29042518   3.038   5.701   1.207  0.2778  0.5177 -0.4460
   55MOL   C29142519   3.029   5.579   1.118  0.4899 -0.6308  0.3407
   55MOL   O29242520   2.933   5.560   1.040 -0.2033  0.0878 -0.1336
   55MOL   O29342521   3.136   5.501   1.125 -0.1197  0.1075 -1.0254
   55MOL   C29442522   3.147   5.731   1.291  0.2941  0.0932 -0.3010
   55MOL   C29542523   3.140   5.850   1.373  0.4162  0.2939  0.4620
   55MOL   H29642524   2.875   6.249   1.333 -0.5803 -0.8678 -0.0283
   55MOL   H29742525   2.912   6.395   1.429 -1.0581  0.0178 -0.6807
   55MOL   H29842526   2.765   6.443   1.212  1.8908  2.1894  1.3311
   55MOL   H29942527   2.646   6.340   1.287 -0.0539 -0.1506  0.6125
   55MOL   H30042528   2.716   6.599   1.414 -0.7355 -0.1045 -0.1932
   55MOL   H30142529   2.499   6.661   1.379  1.2579 -0.5602  1.5019
   55MOL   H30242530   2.580   6.628   1.224 -0.7254  0.3994 -0.2793
   55MOL   H30342531   2.570   6.537   1.587  0.9827  0.6761 -1.0139
   55MOL   H30442532   2.517   6.384   1.499 -0.9203 -0.6675  1.8144
   55MOL   H30542533   2.639   6.323   1.671 -1.7354  1.8259 -0.9463
   55MOL   H30642534   2.772   6.442   1.659 -0.1256  0.3461  0.3322
   55MOL   H30742535   2.691   6.198   1.476 -0.2765  0.4652 -1.1444
   55MOL   H30842536   2.947   6.257   1.621  0.2190 -1.3514  0.0562
   55MOL   H30942537   2.821   6.160   1.686 -1.2954  0.3303 -0.0883
   55MOL   H31042538   2.824   5.946   1.313 -0.0759 -1.7102  2.1922
   55MOL   H31142539   2.827   5.759   1.166 -0.1529 -0.1580  0.7070
   55MOL   H31242540   3.238   5.672   1.293 -0.8223 -1.6866  3.0783
   55MOL   H31342541   3.219   5.880   1.441  0.5402  1.1747 -0.0542
   55MOL   C31442542   2.871   5.025   1.044  0.3404  0.1404 -0.5286
   55MOL   C31542543   2.994   5.118   1.038  0.1230  0.3388  0.7845
   55MOL   C31642544   3.025   5.178   1.172  0.4059 -0.0000  0.1642
   55MOL   C31742545   3.150   5.274   1.156  0.5007 -0.0631  0.4187
   55MOL   O31842546   3.132   5.370   1.055  0.3411  0.3092  0.5561
   55MOL   C31942547   2.898   5.254   1.234 -0.1929 -0.3370  0.5126
   55MOL   C32042548   2.780   5.162   1.253  0.0654 -0.8372 -0.0752
   55MOL   C32142549   2.753   5.093   1.116  0.0867 -0.3648 -0.6701
   55MOL   C32242550   2.634   4.991   1.115 -0.0105 -0.4360  0.5812
   55MOL   O32342551   2.503   5.051   1.121 -0.0877 -0.8007 -0.2773
   55MOL   C32442552   2.396   4.990   1.062  0.7062  0.3566  0.3739
   55MOL   O32542553   2.389   4.865   1.031 -0.2234 -0.2789 -0.2742
   55MOL   C32642554   2.300   5.092   1.025  0.1054  0.4456  0.3605
   55MOL   C32742555   2.276   5.202   1.114 -0.1011  0.4659 -0.0071
   55MOL   C32842556   2.185   5.302   1.064 -0.0029  0.1465 -0.6059
   55MOL   C32942557   2.120   5.289   0.942 -0.4288 -0.1498  0.5363
   55MOL   C33042558   2.039   5.403   0.884 -0.0197  0.2604  1.0358
   55MOL   O33142559   1.989   5.497   0.954 -0.2824  0.4227 -0.0271
   55MOL   O33242560   2.024   5.394   0.752  0.1086  0.4581 -0.4770
   55MOL   C33342561   2.130   5.167   0.874  0.1361 -0.0585  0.0245
   55MOL   C33442562   2.223   5.071   0.912 -0.3117  0.1633 -0.6946
   55MOL   H33542563   2.833   5.006   0.944 -1.0775 -0.6505  0.1462
   55MOL   H33642564   2.901   4.931   1.090  0.0164 -0.4575 -1.5177
   55MOL   H33742565   3.080   5.067   0.996 -2.6385 -3.2114 -0.8270
   55MOL   H33842566   2.966   5.188   0.959 -2.6613 -3.0647 -1.4054
   55MOL   H33942567   3.058   5.092   1.230  2.1661  0.9705  0.6316
   55MOL   H34042568   3.182   5.318   1.251  1.7188 -0.2891  0.1290
   55MOL   H34142569   3.231   5.208   1.126  0.1032 -0.2689 -0.1998
   55MOL   H34242570   2.931   5.300   1.327  1.5628  0.2085 -0.3744
   55MOL   H34342571   2.864   5.334   1.168  1.6951 -0.6925 -0.9338
   55MOL   H34442572   2.693   5.221   1.280  0.0962  0.0340 -1.7998
   55MOL   H34542573   2.802   5.092   1.334 -2.6099  0.3714  1.7838
   55MOL   H34642574   2.724   5.173   1.048 -0.1156 -0.4599 -0.6976
   55MOL   H34742575   2.632   4.925   1.028  0.9870 -1.0811  1.0308
   55MOL   H34842576   2.646   4.922   1.199  0.2604 -0.7755  0.2654
   55MOL   H34942577   2.316   5.216   1.213  1.8477 -1.3561 -0.5035
   55MOL   H35042578   2.167   5.389   1.126 -0.0681 -0.6097  0.4421
   55MOL   H35142579   2.077   5.165   0.780  2.4597  0.2037 -1.3317
   55MOL   H35242580   2.238   4.982   0.854 -0.4036 -1.1230  1.2233
   55MOL   C35342581   2.101   5.861   0.349 -0.0769 -0.2993 -0.0363
   55MOL   C35442582   2.123   5.788   0.484 -0.3097  1.1388  0.6612
   55MOL   C35542583   2.033   5.666   0.509  0.2764  0.0131 -0.6878
   55MOL   C35642584   2.048   5.608   0.646 -0.0479  0.4657 -0.3470
   55MOL   O35742585   1.950   5.505   0.681 -0.1038 -0.3029  0.2771
   55MOL   C35842586   1.886   5.719   0.499 -0.0331 -0.1538  0.0220
   55MOL   C35942587   1.861   5.790   0.361  0.1977 -0.0067 -0.4422
   55MOL   C36042588   1.957   5.906   0.337 -0.4350 -0.3132 -0.2541
   55MOL   C36142589   1.924   5.987   0.219 -0.2412  0.5446  0.5629
   55MOL   O36242590   2.000   6.103   0.223  0.0877 -0.1200  0.7423
   55MOL   C36342591   2.002   6.185   0.115 -0.1617  0.1558 -0.0070
   55MOL   O36442592   1.926   6.167   0.021 -0.0648  0.2802 -0.1077
   55MOL   C36542593   2.082   6.313   0.151  0.4726 -0.0139  0.5720
   55MOL   C36642594   2.084   6.428   0.059  0.3100  0.0469 -0.3299
   55MOL   C36742595   2.141   6.549   0.092 -0.6231 -0.9265  0.3652
   55MOL   C36842596   2.197   6.573   0.218 -0.4730 -1.2231  0.3672
   55MOL   C36942597   2.241   6.716   0.251 -0.2224  0.2066  0.0001
   55MOL   O37042598   2.312   6.739   0.348  0.3015 -0.5283 -0.6402
   55MOL   O37142599   2.180   6.821   0.178 -0.0522  0.0825  0.3605
   55MOL   C37242600   2.207   6.456   0.301  0.0268  0.2394  0.5945
   55MOL   C37342601   2.143   6.336   0.274 -0.8418 -0.1477 -0.6266
   55MOL   H37442602   2.168   5.947   0.349  0.5834 -0.7699  2.2726
   55MOL   H37542603   2.121   5.807   0.257  0.5886  0.4223 -0.3188
   55MOL   H37642604   2.226   5.756   0.492 -0.1539  1.7520  1.1435
   55MOL   H37742605   2.102   5.846   0.574 -0.5689 -0.0158  1.3631
   55MOL   H37842606   2.057   5.590   0.435 -0.2857 -0.0050 -0.8520
   55MOL   H37942607   2.146   5.560   0.641  1.2569  3.0171  0.4242
   55MOL   H38042608   2.047   5.680   0.727  1.9624  0.8576 -0.6382
   55MOL   H38142609   1.811   5.641   0.515  1.0529 -0.9371  1.4453
   55MOL   H38242610   1.867   5.793   0.577  0.7595  0.0699  0.0034
   55MOL   H38342611   1.758   5.826   0.364  0.3556  0.3764  1.1307
   55MOL   H38442612   1.861   5.723   0.276  1.0290  1.8888 -1.9650
   55MOL   H38542613   1.941   5.966   0.426 -1.8305 -0.0370 -0.6731
   55MOL   H38642614   1.933   5.927   0.128 -3.9320  1.6083 -0.6019
   55MOL   H38742615   1.818   6.015   0.219 -0.9600 -2.0027 -0.6736
   55MOL   H38842616   2.039   6.430   7.997  1.3265 -0.0198 -0.8027
   55MOL   H38942617   2.132   6.621   0.013 -1.8257 -1.3033  0.1513
   55MOL   H39042618   2.268   6.475   0.388  1.7481  0.9679 -0.7492
   55MOL   H39142619   2.146   6.247   0.336 -1.4107  0.0350 -0.3350
   55MOL   C39242620   2.496   7.198   0.476  0.1918  0.1544 -0.0369
   55MOL   C39342621   2.422   7.078   0.406 -0.0300  0.0458 -0.1127
   55MOL   C39442622   2.380   7.125   0.266 -0.7763  0.0482  0.3481
   55MOL   C39542623   2.312   7.012   0.192  0.6115 -0.1359 -0.4922
   55MOL   O39642624   2.199   6.954   0.247 -0.2635  0.3042 -0.8031
   55MOL   C39742625   2.286   7.249   0.290  0.0323  0.5587  0.3065
   55MOL   C39842626   2.345   7.357   0.370 -1.2805  0.3114 -0.0619
   55MOL   C39942627   2.397   7.317   0.510  1.0613 -0.2493  0.5786
   55MOL   C40042628   2.454   7.435   0.593 -0.4804 -0.3638  0.4166
   55MOL   O40142629   2.493   7.379   0.718  0.3330  0.7392 -0.3984
   55MOL   C40242630   2.472   7.445   0.830  0.1174  0.1841  0.9568
   55MOL   O40342631   2.452   7.567   0.830 -0.2096  0.1374 -0.2914
   55MOL   C40442632   2.460   7.354   0.942 -0.0024 -0.2015  0.0462
   55MOL   C40542633   2.450   7.407   1.073  0.2515 -0.7068  0.5753
   55MOL   C40642634   2.438   7.324   1.180 -0.8362 -0.5810  0.2278
   55MOL   C40742635   2.434   7.182   1.166 -0.2635  0.1276 -0.9124
   55MOL   C40842636   2.441   7.094   1.289 -0.1666  0.1020  0.9355
   55MOL   O40942637   2.450   6.972   1.279  0.2016  0.0082 -0.0188
   55MOL   O41042638   2.444   7.153   1.406  0.0665 -0.5286 -0.4456
   55MOL   C41142639   2.428   7.126   1.039 -0.2850 -0.4739 -0.6269
   55MOL   C41242640   2.451   7.211   0.928  0.6787  0.0343 -0.4762
   55MOL   H41342641   2.553   7.164   0.563 -1.6271 -2.0305  0.3756
   55MOL   H41442642   2.579   7.234   0.415  1.6383 -0.2975  1.6088
   55MOL   H41542643   2.494   6.997   0.393 -0.5005 -0.0325 -2.4625
   55MOL   H41642644   2.343   7.038   0.469  1.1806 -0.7660  0.9119
   55MOL   H41742645   2.467   7.157   0.209 -1.4619  0.5511 -0.4337
   55MOL   H41842646   2.281   7.049   0.094  0.1998 -0.7804 -0.6063
   55MOL   H41942647   2.395   6.943   0.183  2.4339  1.8995  0.2741
   55MOL   H42042648   2.260   7.287   0.191  0.1681  2.8918  1.1197
   55MOL   H42142649   2.192   7.220   0.336  0.2629  0.3318  0.6364
   55MOL   H42242650   2.266   7.431   0.379  0.0456  1.9414 -1.4525
   55MOL   H42342651   2.431   7.398   0.317 -0.4356 -3.5500 -1.7861
   55MOL   H42442652   2.310   7.274   0.559 -0.3201  1.4967 -0.2796
   55MOL   H42542653   2.543   7.479   0.548  0.1822 -1.5853  0.4989
   55MOL   H42642654   2.369   7.502   0.607 -0.1553  0.1300  0.0667
   55MOL   H42742655   2.459   7.515   1.075 -1.0607 -0.5659 -0.3520
   55MOL   H42842656   2.428   7.366   1.279 -1.0329 -1.2287  0.4805
   55MOL   H42942657   2.433   7.020   1.020  1.3300 -0.5646  0.1685
   55MOL   H43042658   2.456   7.180   0.824  1.5107  0.3366 -0.5290
   55MOL   C43142659   2.281   6.667   1.761 -0.1912  0.8329  0.9372
   55MOL   C43242660   2.260   6.809   1.699  0.2376  0.0046 -0.2921
   55MOL   C43342661   2.393   6.873   1.650  0.1079  0.1565 -0.9414
   55MOL   C43442662   2.364   7.004   1.573  0.1165 -0.2988  0.4018
   55MOL   O43542663   2.480   7.057   1.521  0.8504  0.0116  0.7592
   55MOL   C43642664   2.502   6.882   1.758 -0.0708  0.3761  0.5781
   55MOL   C43742665   2.521   6.745   1.823 -0.0041  0.4730  0.0130
   55MOL   C43842666   2.395   6.672   1.866  0.2858  0.5704 -0.7003
   55MOL   C43942667   2.425   6.526   1.908  0.0907  0.1870  0.0545
   55MOL   O44042668   2.479   6.511   2.038 -0.2935  0.3969 -0.2566
   55MOL   C44142669   2.609   6.508   2.053 -0.6662  0.2685  0.5005
   55MOL   O44242670   2.692   6.524   1.964 -0.0254  0.0574  0.7572
   55MOL   C44342671   2.644   6.487   2.199 -0.6977 -0.4264 -0.3456
   55MOL   C44442672   2.777   6.511   2.238  0.0949  0.2498 -0.0791
   55MOL   C44542673   2.814   6.502   2.375 -0.0610  0.1957 -0.2423
   55MOL   C44642674   2.715   6.462   2.475 -0.4246 -0.1570 -0.5711
   55MOL   C44742675   2.753   6.460   2.621 -0.4815  0.1261 -0.5637
   55MOL   O44842676   2.709   6.379   2.704  0.2353 -0.0549 -0.0277
   55MOL   O44942677   2.844   6.556   2.650  0.1345  0.1851  0.2103
   55MOL   C45042678   2.582   6.433   2.429  0.3659 -0.3181 -0.2822
   55MOL   C45142679   2.551   6.454   2.297 -0.7058  0.5701  0.2561
   55MOL   H45242680   2.190   6.623   1.803 -2.0528  2.3811 -1.3855
   55MOL   H45342681   2.315   6.601   1.682 -0.5979 -0.2274  1.6412
   55MOL   H45442682   2.188   6.791   1.620 -0.5966  2.1616 -0.0678
   55MOL   H45542683   2.212   6.864   1.780 -2.7228 -0.1288 -1.9086
   55MOL   H45642684   2.425   6.804   1.572  0.4187 -0.2910 -0.4197
   55MOL   H45742685   2.293   6.978   1.494 -0.3421 -0.1880  0.7752
   55MOL   H45842686   2.312   7.080   1.632 -1.9525 -1.0520 -0.4107
   55MOL   H45942687   2.600   6.913   1.722 -0.9130  1.8536 -0.5067
   55MOL   H46042688   2.466   6.948   1.836  0.2273  2.6103 -1.1391
   55MOL   H46142689   2.584   6.772   1.908 -0.2211  1.3763 -0.1066
   55MOL   H46242690   2.579   6.690   1.749 -0.2440  1.2117 -0.7284
   55MOL   H46342691   2.352   6.726   1.950 -0.9596 -0.7192 -0.4958
   55MOL   H46442692   2.327   6.479   1.918 -0.1003  0.8594  1.5021
   55MOL   H46542693   2.483   6.479   1.830  0.4423  1.7891 -0.6571
   55MOL   H46642694   2.851   6.536   2.163  0.0949 -0.7460 -0.4127
   55MOL   H46742695   2.911   6.530   2.412 -0.4067  0.9268  0.1185
   55MOL   H46842696   2.500   6.415   2.497  1.3428 -1.6215  0.5828
   55MOL   H46942697   2.453   6.435   2.257 -1.5284  0.3944  2.3059
   55MOL   C47042698   3.040   6.637   3.214 -0.4702  0.0145  0.2567
   55MOL   C47142699   2.947   6.672   3.097  0.0424 -0.4327  0.1671
   55MOL   C47242700   2.979   6.593   2.974  0.3449  0.2060 -0.2528
   55MOL   C47342701   2.878   6.622   2.864  0.6840  0.1518 -0.5008
   55MOL   O47442702   2.919   6.527   2.772  0.7077 -0.2384 -0.4047
   55MOL   C47542703   3.129   6.618   2.931 -0.0446  0.2955 -0.5639
   55MOL   C47642704   3.222   6.583   3.045 -0.2005  0.5776 -0.0374
   55MOL   C47742705   3.186   6.649   3.177 -0.1918  0.0992  0.0228
   55MOL   C47842706   3.280   6.577   3.286  0.2391  0.1577  0.0498
   55MOL   O47942707   3.255   6.610   3.423  0.1256  0.1250  0.1246
   55MOL   C48042708   3.335   6.573   3.529 -0.2632 -0.5468  0.9557
   55MOL   O48142709   3.438   6.508   3.508  0.1304 -0.5577 -0.1173
   55MOL   C48242710   3.277   6.607   3.665  0.2584 -0.5516 -0.0412
   55MOL   C48342711   3.362   6.600   3.776 -0.3505  0.5717 -1.1217
   55MOL   C48442712   3.310   6.617   3.905  0.4331 -0.2862  0.0256
   55MOL   C48542713   3.168   6.642   3.921  0.7239  0.6590 -0.2992
   55MOL   C48642714   3.114   6.675   4.058 -0.4400 -0.6769 -0.4968
   55MOL   O48742715   3.186   6.713   4.151 -0.2546  0.0652 -0.2805
   55MOL   O48842716   2.985   6.671   4.057 -0.0814  0.6267 -0.3360
   55MOL   C48942717   3.083   6.653   3.806 -0.3503 -0.0884 -0.1925
   55MOL   C49042718   3.138   6.625   3.678 -0.6740 -0.1013 -0.8447
   55MOL   H49142719   3.028   6.699   3.302  0.5488  1.3128 -0.5114
   55MOL   H49242720   3.014   6.534   3.240 -0.6069 -0.2524 -0.9054
   55MOL   H49342721   2.848   6.649   3.137  0.5912 -0.3301  1.6043
   55MOL   H49442722   2.963   6.779   3.083 -3.4886  0.3034  1.3682
   55MOL   H49542723   2.972   6.486   2.996 -0.5409 -0.0920 -1.8825
   55MOL   H49642724   2.779   6.597   2.902  1.3242 -1.6009  0.0871
   55MOL   H49742725   2.895   6.727   2.842  0.9545  0.4531  1.0852
   55MOL   H49842726   3.145   6.555   2.844  0.1322 -1.4247  0.6848
   55MOL   H49942727   3.143   6.723   2.904  1.0410  0.0399 -1.0283
   55MOL   H50042728   3.322   6.610   3.010  0.7987 -1.6249  0.9957
   55MOL   H50142729   3.232   6.476   3.063  1.8175  0.5739 -1.0528
   55MOL   H50242730   3.205   6.756   3.181  1.7150 -0.2018 -0.3968
   55MOL   H50342731   3.268   6.470   3.269 -0.0949  0.2753 -0.4540
   55MOL   H50442732   3.385   6.594   3.264  0.3904  0.6362  1.0962
   55MOL   H50542733   3.467   6.584   3.755  0.1980  0.9879  1.1493
   55MOL   H50642734   3.373   6.621   3.993  1.9596 -0.4492 -1.0519
   55MOL   H50742735   2.977   6.669   3.820 -0.5489 -0.3138 -1.3577
   55MOL   H50842736   3.068   6.635   3.596 -2.0382  1.1664  0.4604
   55MOL   C50942737   3.091   6.967   4.538 -0.6934 -0.1768 -0.2727
   55MOL   C51042738   3.072   6.890   4.403 -0.1022 -0.4974 -0.3133
   55MOL   C51142739   2.932   6.915   4.341 -0.9579 -0.2540 -0.1184
   55MOL   C51242740   2.922   6.855   4.195 -1.1003 -0.6434  0.6079
   55MOL   O51342741   2.929   6.709   4.195 -0.0292 -0.3920 -0.5335
   55MOL   C51442742   2.823   6.881   4.438  0.3388  0.4467 -0.1607
   55MOL   C51542743   2.839   6.961   4.566  0.6919 -0.5587  0.1536
   55MOL   C51642744   2.974   6.928   4.631  0.2358  0.6635 -0.2561
   55MOL   C51742745   2.992   7.013   4.754 -0.3865  0.1511  0.0402
   55MOL   O51842746   2.912   6.988   4.868 -0.2208  0.3071  0.0297
   55MOL   C51942747   2.940   6.870   4.940  0.1064 -0.3680 -0.0204
   55MOL   O52042748   3.041   6.804   4.907  0.2713  0.2602 -0.1528
   55MOL   C52142749   2.851   6.846   5.054 -0.3010  0.2068 -0.0956
   55MOL   C52242750   2.717   6.893   5.051 -0.7753  0.1641 -0.1360
   55MOL   C52342751   2.637   6.872   5.164 -0.0583 -0.1999  0.2157
   55MOL   C52442752   2.677   6.791   5.273  0.6316 -0.1471 -0.1475
   55MOL   C52542753   2.586   6.761   5.389  0.4753  0.0139  0.1300
   55MOL   O52642754   2.630   6.715   5.495  0.4106 -0.0111  0.0094
   55MOL   O52742755   2.453   6.796   5.356 -0.5130  0.1963 -0.1825
   55MOL   C52842756   2.804   6.743   5.271  0.3381  0.2143 -0.4970
   55MOL   C52942757   2.895   6.769   5.162  0.5045  0.0941 -0.4091
   55MOL   H53042758   3.189   6.944   4.578 -0.8053  0.2045  0.2212
   55MOL   H53142759   3.083   7.076   4.535 -0.4747 -0.1819 -1.7016
   55MOL   H53242760   3.149   6.928   4.336 -1.2334  1.3849 -0.5995
   55MOL   H53342761   3.090   6.784   4.416  3.3722  0.3421  2.5622
   55MOL   H53442762   2.926   7.021   4.317 -0.1583 -0.3540 -0.8049
   55MOL   H53542763   2.822   6.881   4.158 -1.1874 -0.7053  0.7987
   55MOL   H53642764   2.992   6.897   4.123 -0.5539  0.4257  1.7614
   55MOL   H53742765   2.725   6.894   4.392 -0.4543 -2.9094  0.4385
   55MOL   H53842766   2.838   6.776   4.461 -0.3732  0.5538  0.8177
   55MOL   H53942767   2.759   6.927   4.631  0.7664 -0.9269  0.0532
   55MOL   H54042768   2.819   7.066   4.544 -0.4312 -0.4686  1.5308
   55MOL   H54142769   2.977   6.820   4.651  1.1312  0.6956 -0.2179
   55MOL   H54242770   3.093   7.008   4.794  0.2329  0.4829 -1.4467
   55MOL   H54342771   2.987   7.119   4.729  0.5062 -0.5982 -3.6909
   55MOL   H54442772   2.677   6.951   4.969 -1.0501 -1.1429 -0.9372
   55MOL   H54542773   2.533   6.904   5.162  0.4534  1.4382 -2.0125
   55MOL   H54642774   2.843   6.693   5.359 -0.7159 -0.2714 -0.2934
   55MOL   H54742775   2.998   6.740   5.171  0.6362  0.3637 -1.0558
   55MOL   C54842776   1.920   6.600   5.508  0.2897  0.1293  0.2859
   55MOL   C54942777   2.071   6.578   5.509 -0.1877 -0.5855  0.2523
   55MOL   C55042778   2.151   6.708   5.504 -0.2130 -0.5002 -0.9297
   55MOL   C55142779   2.294   6.684   5.491  0.4411 -0.7263 -0.0847
   55MOL   O55242780   2.357   6.808   5.471 -0.0160  0.8377  0.1839
   55MOL   C55342781   2.096   6.799   5.389 -0.5105 -0.8931  0.8632
   55MOL   C55442782   1.944   6.825   5.401  0.7484 -0.1908 -0.7169
   55MOL   C55542783   1.866   6.697   5.402 -0.6665 -0.2368 -0.0188
   55MOL   C55642784   1.713   6.727   5.420  0.3034 -0.4336  0.2315
   55MOL   O55742785   1.664   6.807   5.313  0.4531 -0.5513  0.9013
   55MOL   C55842786   1.613   6.750   5.204  0.1477  0.2869 -0.9888
   55MOL   O55942787   1.613   6.629   5.187 -0.0083  0.1493 -0.2474
   55MOL   C56042788   1.560   6.847   5.110 -0.1829  0.1448  0.0397
   55MOL   C56142789   1.496   6.810   4.994 -0.2809 -0.1510  0.0053
   55MOL   C56242790   1.460   6.901   4.894 -0.7343  0.1132  0.8234
   55MOL   C56342791   1.482   7.037   4.913  0.3781  0.5177  0.6461
   55MOL   C56442792   1.448   7.138   4.808 -0.0033  0.3002 -0.6080
   55MOL   O56542793   1.381   7.110   4.707 -0.1283  0.4260  0.1497
   55MOL   O56642794   1.486   7.255   4.838  0.2539  0.6122 -0.8028
   55MOL   C56742795   1.554   7.075   5.031 -0.9200 -0.2241 -0.4986
   55MOL   C56842796   1.586   6.982   5.134 -0.4515  0.2852 -0.3156
   55MOL   H56942797   1.861   6.510   5.495  0.2867  0.0820  0.6211
   55MOL   H57042798   1.892   6.633   5.608  2.5658 -0.0159  0.9952
   55MOL   H57142799   2.101   6.536   5.605  1.0303 -1.2305 -0.4074
   55MOL   H57242800   2.103   6.512   5.428  2.9268  1.1509  0.0177
   55MOL   H57342801   2.120   6.755   5.598  0.8232  0.0505 -0.8523
   55MOL   H57442802   2.327   6.631   5.580 -0.6817  0.4588  1.0515
   55MOL   H57542803   2.303   6.618   5.404 -1.6578 -0.9113 -0.1845
   55MOL   H57642804   2.148   6.895   5.381 -0.7368 -0.8587 -0.2521
   55MOL   H57742805   2.112   6.751   5.293  2.7280  0.2621  0.7547
   55MOL   H57842806   1.910   6.890   5.320  1.5207  0.0939 -0.8223
   55MOL   H57942807   1.935   6.887   5.490  2.0009  0.3436 -0.9455
   55MOL   H58042808   1.888   6.642   5.310  0.3610  2.0445 -1.1798
   55MOL   H58142809   1.674   6.625   5.421 -2.5034  0.5907  2.0548
   55MOL   H58242810   1.696   6.775   5.516 -0.8639 -1.6543  0.6653
   55MOL   H58342811   1.481   6.705   4.973  1.2279 -0.1429 -1.2127
   55MOL   H58442812   1.417   6.861   4.804 -1.1366  1.4740  0.4114
   55MOL   H58542813   1.572   7.180   5.052 -0.8465 -0.5671  1.2206
   55MOL   H58642814   1.629   7.019   5.225  0.5159  0.9491 -1.0369
   55MOL   C58742815   1.340   7.759   4.582 -0.2554 -0.5783 -0.3416
   55MOL   C58842816   1.371   7.605   4.589 -0.5031  0.6337 -0.0295
   55MOL   C58942817   1.323   7.558   4.724 -0.3162  0.4283 -0.7840
   55MOL   C59042818   1.321   7.413   4.756  0.2972  0.2606 -0.3251
   55MOL   O59142819   1.455   7.364   4.738  0.0031 -0.5115  0.2235
   55MOL   C59242820   1.405   7.626   4.837 -0.6108  0.3183 -0.3195
   55MOL   C59342821   1.371   7.777   4.836  0.1954 -0.4417  0.6638
   55MOL   C59442822   1.392   7.842   4.698 -0.1813 -0.4145  0.2162
   55MOL   C59542823   1.362   7.995   4.695 -0.5350 -0.6494 -0.3184
   55MOL   O59642824   1.413   0.022   4.576  0.1983  0.2197  0.6166
   55MOL   C59742825   1.471   0.144   4.578  0.6277 -0.4470 -0.1267
   55MOL   O59842826   1.489   0.217   4.678  0.6787 -0.0606  0.2142
   55MOL   C59942827   1.498   0.190   4.437  0.1363 -0.9875  0.5026
   55MOL   C60042828   1.447   0.123   4.325 -0.0538 -0.1486 -0.0250
   55MOL   C60142829   1.457   0.173   4.195 -0.6022 -0.0450 -0.1948
   55MOL   C60242830   1.534   0.286   4.172 -0.4231  0.0100  0.1167
   55MOL   C60342831   1.542   0.354   4.039 -0.4765  0.0632 -0.1804
   55MOL   O60442832   1.621   0.445   4.015  0.1970 -0.4609  0.0557
   55MOL   O60542833   1.462   0.293   3.947  0.2088  0.2151 -0.1776
   55MOL   C60642834   1.597   0.348   4.282  0.1093 -0.0550 -0.3673
   55MOL   C60742835   1.584   0.303   4.413 -0.1794  0.5606 -0.6391
   55MOL   H60842836   1.368   7.795   4.483 -1.7556  0.9274 -0.2522
   55MOL   H60942837   1.232   7.760   4.595 -0.2871 -0.1539 -0.6188
   55MOL   H61042838   1.316   7.544   4.518 -0.1925  0.8640 -0.4672
   55MOL   H61142839   1.475   7.572   4.589 -0.9265 -0.7740 -0.5938
   55MOL   H61242840   1.217   7.581   4.734 -0.4539 -0.2823 -0.5952
   55MOL   H61342841   1.286   7.394   4.858  0.3842 -0.8322 -0.4920
   55MOL   H61442842   1.251   7.363   4.689  0.1372 -1.6768  1.2518
   55MOL   H61542843   1.389   7.592   4.939  1.4419  1.6018  0.4836
   55MOL   H61642844   1.511   7.612   4.818 -0.6788 -0.8718  0.1433
   55MOL   H61742845   1.421   7.835   4.913 -2.2433  1.5538  0.8225
   55MOL   H61842846   1.266   7.791   4.864  0.3168  0.5781  0.6100
   55MOL   H61942847   1.500   7.831   4.694 -0.4242 -3.2705  0.1264
   55MOL   H62042848   1.256   8.020   4.703 -0.6000 -0.7170 -0.9845
   55MOL   H62142849   1.398   0.009   4.785 -1.2890  0.3618 -0.5544
   55MOL   H62242850   1.397   0.030   4.348  1.4840 -1.0635 -0.2940
   55MOL   H62342851   1.397   0.134   4.115 -0.5872  0.4883 -0.4706
   55MOL   H62442852   1.644   0.441   4.256 -0.7648  1.5434  3.4870
   55MOL   H62542853   1.620   0.355   4.501 -0.1758 -1.0393  0.3282
   55MOL   C62642854   1.280   0.185   3.480 -0.0761  0.1807  0.2632
   55MOL   C62742855   1.351   0.266   3.594  0.2464  0.1662  0.4281
   55MOL   C62842856   1.475   0.191   3.635  0.4322  0.2409  0.2834
   55MOL   C62942857   1.555   0.273   3.731 -0.2538  0.2660 -0.3993
   55MOL   O63042858   1.478   0.359   3.813  0.3294  0.1986 -0.1589
   55MOL   C63142859   1.431   0.053   3.692  0.1048  0.1146 -0.3500
   55MOL   C63242860   1.370   8.003   3.581 -0.2913  0.3343  0.5120
   55MOL   C63342861   1.246   0.040   3.522  0.2931  0.1902  0.7114
   55MOL   C63442862   1.182   7.990   3.418 -0.3465 -0.0253  0.0821
   55MOL   O63542863   1.101   7.896   3.494  0.1327  0.0025  0.9342
   55MOL   C63642864   1.147   7.773   3.529  0.5703  0.1602  0.3996
   55MOL   O63742865   1.250   7.728   3.475 -0.1100 -0.2405  0.2180
   55MOL   C63842866   1.068   7.697   3.635 -0.3533 -0.3494 -0.2874
   55MOL   C63942867   0.951   7.748   3.690 -0.0269  0.1900 -0.1104
   55MOL   C64042868   0.870   7.665   3.779  0.1988 -0.5141  0.1304
   55MOL   C64142869   0.929   7.545   3.831  0.1902 -0.4187  0.5841
   55MOL   C64242870   0.864   7.468   3.939 -0.3921  0.0377 -0.1000
   55MOL   O64342871   0.930   7.413   4.028  0.6679 -0.2229  0.0627
   55MOL   O64442872   0.728   7.471   3.929  0.3834  0.1893 -0.6350
   55MOL   C64542873   1.044   7.495   3.773 -0.6041  0.0636  0.0302
   55MOL   C64642874   1.113   7.569   3.679  0.0302 -0.5958  0.2523
   55MOL   H64742875   1.192   0.240   3.447 -1.6844 -1.8607  1.0136
   55MOL   H64842876   1.343   0.195   3.393  1.5011  0.3945  1.4138
   55MOL   H64942877   1.382   0.363   3.555 -2.3930  0.7020 -0.4419
   55MOL   H65042878   1.288   0.281   3.681 -1.4119 -0.3378 -0.6502
   55MOL   H65142879   1.536   0.174   3.546 -0.7049  0.3775 -0.5253
   55MOL   H65242880   1.624   0.217   3.794  1.7037  0.9873 -1.8663
   55MOL   H65342881   1.618   0.332   3.665 -1.8874  1.5807 -0.8370
   55MOL   H65442882   1.518   0.007   3.739  1.4104  2.6500 -0.1998
   55MOL   H65542883   1.346   0.066   3.759 -1.3190 -0.6843 -1.9799
   55MOL   H65642884   1.337   7.905   3.616 -1.8428  0.3558 -0.8311
   55MOL   H65742885   1.451   7.983   3.510  0.2697  0.6416  1.0657
   55MOL   H65842886   1.158   0.052   3.585 -1.7255  0.3020 -2.0207
   55MOL   H65942887   1.131   0.023   3.351 -1.4577 -2.5951 -1.7866
   55MOL   H66042888   1.260   7.941   3.359 -0.2476 -0.9014  0.9377
   55MOL   H66142889   0.916   7.848   3.673 -0.5186 -0.0174 -0.3213
   55MOL   H66242890   0.783   7.700   3.831 -0.7799 -0.7876 -1.2895
   55MOL   H66342891   1.079   7.395   3.797  2.8186  1.2741  0.3778
   55MOL   H66442892   1.197   7.532   3.622  1.7367  0.4130  2.0500
   55MOL   C66542893   0.331   7.058   4.111  0.1884  0.2849 -0.3273
   55MOL   C66642894   0.380   7.179   4.040  0.0324  0.3862 -0.3869
   55MOL   C66742895   0.531   7.157   3.990  0.4957  0.2842  0.5056
   55MOL   C66842896   0.586   7.281   3.918  0.0780 -0.0392  0.3081
   55MOL   O66942897   0.660   7.366   4.005  0.2833 -0.0633  0.2398
   55MOL   C67042898   0.622   7.116   4.105  0.4441  0.3972  0.5944
   55MOL   C67142899   0.565   7.005   4.197  0.4800 -0.3240 -0.1582
   55MOL   C67242900   0.420   7.025   4.231 -0.4950 -0.1632 -0.1247
   55MOL   C67342901   0.355   6.891   4.283  0.3352  0.9989  0.3147
   55MOL   O67442902   0.386   6.875   4.421  0.5492  0.0038  0.5806
   55MOL   C67542903   0.329   6.780   4.494 -0.4339 -0.2386  0.3690
   55MOL   O67642904   0.278   6.683   4.447 -0.1996 -0.8793  0.5810
   55MOL   C67742905   0.352   6.790   4.643 -0.2016  0.2309  0.1103
   55MOL   C67842906   0.435   6.894   4.691 -0.6209 -0.5018 -0.1323
   55MOL   C67942907   0.444   6.926   4.827 -0.4837  0.5949 -0.6770
   55MOL   C68042908   0.376   6.842   4.922  0.0794  0.4139  0.0335
   55MOL   C68142909   0.386   6.885   5.065 -0.0220 -0.1270 -0.7207
   55MOL   O68242910   0.313   6.838   5.153  0.0463  0.6947  0.0251
   55MOL   O68342911   0.484   6.976   5.089 -0.2626  0.2820 -0.2426
   55MOL   C68442912   0.305   6.729   4.874 -0.1456  0.2474 -0.9700
   55MOL   C68542913   0.289   6.711   4.740 -0.4808 -0.4995  0.1023
   55MOL   H68642914   0.227   7.072   4.141  0.2536 -0.8587  0.4476
   55MOL   H68742915   0.326   6.971   4.045  0.3336  0.1633 -0.1783
   55MOL   H68842916   0.322   7.214   3.955  1.2083  2.2569 -0.4536
   55MOL   H68942917   0.382   7.261   4.113 -1.1853  0.2365 -0.1801
   55MOL   H69042918   0.526   7.084   3.909  0.0393  0.5315  0.3054
   55MOL   H69142919   0.657   7.254   3.840 -0.3613 -1.1880  0.3047
   55MOL   H69242920   0.507   7.337   3.869  0.7146  0.2800 -0.3567
   55MOL   H69342921   0.726   7.103   4.074  0.6680  1.9458  0.6597
   55MOL   H69442922   0.632   7.204   4.170 -0.0445  0.6074  0.3810
   55MOL   H69542923   0.612   6.989   4.294 -1.7051 -2.7210  0.5540
   55MOL   H69642924   0.580   6.915   4.139 -0.4258 -0.3028 -0.4269
   55MOL   H69742925   0.402   7.101   4.308 -1.5690  0.8580 -1.3585
   55MOL   H69842926   0.247   6.909   4.283  0.1576 -0.0478  0.6493
   55MOL   H69942927   0.379   6.809   4.216 -0.7104 -0.0647  1.2286
   55MOL   H70042928   0.489   6.962   4.627 -0.2818 -1.6510 -1.1021
   55MOL   H70142929   0.505   7.011   4.856 -2.7723  1.6429  1.1658
   55MOL   H70242930   0.254   6.668   4.947  0.8467  2.0962  1.3127
   55MOL   H70342931   0.222   6.630   4.717  1.7556 -2.5127  0.4849
   55MOL   C70442932   0.615   7.503   5.250  0.0154 -0.7015 -0.7468
   55MOL   C70542933   0.506   7.395   5.245  0.3475 -0.7247 -0.2469
   55MOL   C70642934   0.566   7.259   5.240 -0.2658  0.4136 -0.6809
   55MOL   C70742935   0.450   7.148   5.249  0.5870 -0.3466 -0.1692
   55MOL   O70842936   0.491   7.012   5.240 -0.5358 -0.5768 -0.0071
   55MOL   C70942937   0.655   7.248   5.116 -0.8476 -0.2755  0.5120
   55MOL   C71042938   0.763   7.367   5.105 -0.2554  0.3622  0.0647
   55MOL   C71142939   0.695   7.506   5.123  0.6801 -0.3534 -0.7134
   55MOL   C71242940   0.808   7.610   5.131  0.2361 -0.3863  0.6233
   55MOL   O71342941   0.757   7.742   5.138 -0.4548 -0.1163  0.1544
   55MOL   C71442942   0.839   7.849   5.117  0.2625  0.2145 -0.6108
   55MOL   O71542943   0.963   7.839   5.109 -0.1733 -0.2136 -0.0571
   55MOL   C71642944   0.757   7.972   5.082  0.5090 -0.7859 -0.3801
   55MOL   C71742945   0.793   0.026   4.979 -0.0147  0.1623 -0.0312
   55MOL   C71842946   0.714   0.137   4.948 -0.7357 -0.4109  0.2476
   55MOL   C71942947   0.589   0.155   5.005  0.0120  0.2753 -0.1546
   55MOL   C72042948   0.506   0.274   4.962 -0.1578  0.2966 -0.2383
   55MOL   O72142949   0.399   0.300   5.012 -0.0956 -0.5886 -0.2073
   55MOL   O72242950   0.556   0.338   4.859 -0.0234  0.2588  0.1239
   55MOL   C72342951   0.549   0.062   5.107 -0.0964  0.0191 -0.0648
   55MOL   C72442952   0.632   7.994   5.143 -0.0013  0.2252 -0.5756
   55MOL   H72542953   0.571   7.601   5.265 -1.1341 -1.6251  2.3156
   55MOL   H72642954   0.676   7.485   5.339 -1.2466 -0.4467  0.1752
   55MOL   H72742955   0.451   7.403   5.339  0.8384 -0.1144 -0.0032
   55MOL   H72842956   0.438   7.421   5.164  1.2337  1.9642 -0.1990
   55MOL   H72942957   0.628   7.250   5.329 -0.1606  2.2237 -0.5491
   55MOL   H73042958   0.395   7.178   5.338 -0.7383 -2.0834 -0.3766
   55MOL   H73142959   0.382   7.175   5.169  1.0227  1.0225 -0.0965
   55MOL   H73242960   0.700   7.152   5.093  1.4959  1.2959 -1.8854
   55MOL   H73342961   0.592   7.257   5.027  0.1135 -1.1616 -0.2694
   55MOL   H73442962   0.814   7.364   5.009 -2.2530  0.2383 -1.0326
   55MOL   H73542963   0.847   7.353   5.172 -1.1421  0.0632  1.1384
   55MOL   H73642964   0.633   7.530   5.036  0.8643 -0.2133 -0.8062
   55MOL   H73742965   0.873   7.583   5.214 -1.2929  0.5915  2.1557
   55MOL   H73842966   0.858   7.613   5.034  1.7029 -1.2183  1.3373
   55MOL   H73942967   0.883   0.007   4.923  0.2970 -0.6394  0.7328
   55MOL   H74042968   0.758   0.185   4.861 -2.3078  1.0053  0.2061
   55MOL   H74142969   0.446   0.066   5.137  0.0315 -0.2500  0.4068
   55MOL   H74242970   0.595   7.921   5.214 -0.4320  0.9069 -0.0985
   55MOL   C74342971   0.144   0.708   4.936 -0.7815  0.0945 -0.3269
   55MOL   C74442972   0.263   0.612   4.932 -0.0083 -0.4452  0.0576
   55MOL   C74542973   0.391   0.666   4.870 -0.3765  0.0831  0.3041
   55MOL   C74642974   0.508   0.577   4.875 -0.2346 -0.1945 -0.0549
   55MOL   O74742975   0.470   0.456   4.811 -0.2054  0.2510  0.5538
   55MOL   C74842976   0.364   0.718   4.732  0.4867  0.1186  0.2248
   55MOL   C74942977   0.254   0.828   4.748  0.3993 -0.1851 -0.2467
   55MOL   C75042978   0.118   0.777   4.798  0.4217 -0.2535 -0.1681
   55MOL   C75142979   0.009   0.886   4.803  0.0475  0.6158 -0.0034
   55MOL   O75242980   7.915   0.828   4.844 -0.5130  0.0754  0.2674
   55MOL   C75342981   7.824   0.894   4.917  1.1989  0.1044  0.5325
   55MOL   O75442982   7.836   1.008   4.963 -0.3709 -0.2597  0.0457
   55MOL   C75542983   7.704   0.809   4.918 -0.0619  0.0015  0.0176
   55MOL   C75642984   7.709   0.668   4.899 -0.1811  0.2692 -0.5646
   55MOL   C75742985   7.602   0.588   4.931  0.1762  0.3412 -0.2794
   55MOL   C75842986   7.482   0.639   4.978 -0.0092 -0.2415 -0.2409
   55MOL   C75942987   7.374   0.554   5.034  0.0271 -0.3174 -0.4985
   55MOL   O76042988   7.258   0.577   5.025  0.0089 -0.1489  0.0846
   55MOL   O76142989   7.413   0.439   5.093 -0.0460 -0.2478 -0.1340
   55MOL   C76242990   7.469   0.781   4.988 -0.8565 -0.0013 -0.4036
   55MOL   C76342991   7.579   0.868   4.961  0.1629  0.2845 -0.0819
   55MOL   H76442992   0.054   0.655   4.968 -0.1942  1.0765  3.1812
   55MOL   H76542993   0.158   0.780   5.017  1.0325 -0.2813 -0.2829
   55MOL   H76642994   0.289   0.572   5.031  0.2144 -0.6271 -0.0747
   55MOL   H76742995   0.236   0.523   4.876  1.7939 -0.3349 -1.0289
   55MOL   H76842996   0.424   0.754   4.925 -2.7609  1.6863 -0.7248
   55MOL   H76942997   0.592   0.625   4.826 -1.1283  0.3317 -1.1049
   55MOL   H77042998   0.527   0.556   4.980  0.9796 -0.5527 -0.3376
   55MOL   H77142999   0.451   0.767   4.689  1.5912  0.2993  2.6312
   55MOL   H77243000   0.332   0.643   4.659 -3.5089  2.6511 -0.8226
   55MOL   H77343001   0.233   0.865   4.648  0.1424 -1.0127 -0.5000
   55MOL   H77443002   0.285   0.908   4.815  1.0829 -0.2710 -0.4559
   55MOL   H77543003   0.092   0.697   4.728  0.7282 -1.0953  0.6706
   55MOL   H77643004   0.028   0.962   4.879 -0.2765 -0.1366  0.8452
   55MOL   H77743005   8.028   0.944   4.712 -0.6649  2.9316  1.5368
   55MOL   H77843006   7.804   0.617   4.892 -0.1405  0.5707 -2.7298
   55MOL   H77943007   7.618   0.481   4.928 -1.7044 -0.0019  1.1509
   55MOL   H78043008   7.380   0.832   5.022 -0.2632  0.5172  0.3989
   55MOL   H78143009   7.579   0.976   4.970  2.4574  0.2715  0.5130
   55MOL   H78243010   7.339   0.389   5.124 -1.2031  1.9077  0.6824
   56MOL     C143011   2.623   1.271   5.171  0.1832 -0.1310 -0.5415
   56MOL     C243012   2.576   1.404   5.114  0.3184  0.5752  0.3085
   56MOL     C343013   2.424   1.401   5.070 -0.2283 -0.0651 -0.0927
   56MOL     C443014   2.392   1.521   4.969 -1.3068 -0.0823 -0.9149
   56MOL     O543015   2.401   1.649   5.024 -0.1047  0.4486 -0.1127
   56MOL     C643016   2.382   1.269   4.998 -0.2341  0.8225 -1.0685
   56MOL     C743017   2.423   1.143   5.077  0.4462 -0.2830  0.2199
   56MOL     C843018   2.573   1.144   5.097  0.0015  0.1922 -0.8486
   56MOL     C943019   2.615   1.014   5.165  0.6418 -0.3845  0.3557
   56MOL    O1043020   2.747   1.033   5.210  0.2077  0.3741 -0.1545
   56MOL    C1143021   2.798   0.968   5.314  0.2991 -0.4191 -0.6618
   56MOL    O1243022   2.743   0.874   5.373 -0.2504 -0.2501 -0.0762
   56MOL    C1343023   2.924   1.024   5.365  0.4792  0.2143 -0.0737
   56MOL    C1443024   3.013   0.952   5.442 -0.3608 -0.5807 -0.0001
   56MOL    C1543025   3.121   1.010   5.502  0.9215 -0.6218  0.2069
   56MOL    C1643026   3.150   1.146   5.483 -0.0034  0.2957  0.7720
   56MOL    C1743027   3.264   1.212   5.556 -0.2475 -0.1002  0.0662
   56MOL    O1843028   3.337   1.159   5.638 -0.5781  0.0003 -0.1722
   56MOL    O1943029   3.273   1.350   5.529 -0.2654 -0.7722 -0.7104
   56MOL    C2043030   3.058   1.220   5.400 -0.2019 -0.7261 -0.2897
   56MOL    C2143031   2.954   1.156   5.340 -0.0538  0.2777  0.2052
   56MOL    H2243032   2.731   1.284   5.172  0.2898 -0.3473 -3.6564
   56MOL    H2343033   2.580   1.267   5.271  1.0538 -1.4088 -0.2162
   56MOL    H2443034   2.576   1.473   5.198  0.6945 -1.4284  2.0025
   56MOL    H2543035   2.641   1.447   5.038  0.1890  3.2505  1.6488
   56MOL    H2643036   2.360   1.427   5.155  1.0767  2.9374  0.0463
   56MOL    H2743037   2.467   1.517   4.890  0.6166  1.8765  0.7279
   56MOL    H2843038   2.296   1.512   4.919  0.3264 -1.5725 -3.9415
   56MOL    H2943039   2.274   1.264   4.986 -0.7982 -0.6572  3.5450
   56MOL    H3043040   2.433   1.257   4.903 -1.9460  0.1972 -1.9224
   56MOL    H3143041   2.391   1.050   5.029  1.4090 -0.9440  0.8693
   56MOL    H3243042   2.372   1.139   5.173  0.5531 -0.3469  0.2726
   56MOL    H3343043   2.633   1.139   5.006 -0.5024 -0.1945 -1.1696
   56MOL    H3443044   2.542   1.012   5.246 -3.0683 -2.3506 -2.8810
   56MOL    H3543045   2.596   0.926   5.104  0.9629 -0.1962 -0.0196
   56MOL    H3643046   2.981   0.850   5.458  0.2151 -0.8700 -0.6729
   56MOL    H3743047   3.180   0.950   5.570  1.1466  0.4519  0.9720
   56MOL    H3843048   3.060   1.326   5.384 -1.2607 -0.5716  0.5350
   56MOL    H3943049   2.882   1.221   5.291  1.4888  2.7594  1.1515
   56MOL    H4043050   2.448   1.707   4.967  0.8959 -1.5629 -1.3859
   56MOL    C4143051   3.311   1.726   5.172 -0.0196 -0.3521  0.5309
   56MOL    C4243052   3.417   1.652   5.252 -0.0415 -0.3941  0.0654
   56MOL    C4343053   3.341   1.574   5.368  0.0640 -0.2824 -0.3568
   56MOL    C4443054   3.442   1.481   5.452 -0.4505  0.2892 -0.1400
   56MOL    O4543055   3.400   1.422   5.570 -0.4849  0.2795 -0.4496
   56MOL    C4643056   3.263   1.672   5.452  0.8583  0.0603 -0.2369
   56MOL    C4743057   3.155   1.748   5.370  0.6272 -0.3020  0.8535
   56MOL    C4843058   3.228   1.828   5.255 -0.1390  0.7000 -0.2080
   56MOL    C4943059   3.111   1.883   5.168 -0.6472 -0.6906  0.2498
   56MOL    O5043060   3.035   1.973   5.246 -0.0841  0.4843 -0.7205
   56MOL    C5143061   2.929   2.032   5.193 -1.2788  0.4246 -0.0922
   56MOL    O5243062   2.917   2.032   5.072 -0.3212  0.4881  0.4199
   56MOL    C5343063   2.847   2.093   5.299  0.5394 -0.1948 -0.2781
   56MOL    C5443064   2.737   2.173   5.258  0.3538  0.1843  0.4046
   56MOL    C5543065   2.658   2.243   5.352 -0.4517  0.1922 -0.4291
   56MOL    C5643066   2.687   2.236   5.489  0.2224 -0.5237 -0.5156
   56MOL    C5743067   2.604   2.307   5.589 -0.6595 -0.2674 -0.6656
   56MOL    O5843068   2.641   2.335   5.703  0.3052 -0.0446  0.8006
   56MOL    O5943069   2.492   2.352   5.537  0.1145 -0.7408  0.2555
   56MOL    C6043070   2.795   2.155   5.535  0.7239 -0.3509  0.0587
   56MOL    C6143071   2.871   2.088   5.438  0.6211  0.5474 -0.0084
   56MOL    H6243072   3.359   1.772   5.086 -1.5837 -0.6450 -0.5177
   56MOL    H6343073   3.241   1.653   5.131 -0.7857  0.4680  0.3510
   56MOL    H6443074   3.455   1.574   5.186 -0.8197 -1.3987  0.7983
   56MOL    H6543075   3.487   1.728   5.289 -1.5949  0.3173  1.6332
   56MOL    H6643076   3.265   1.512   5.322  1.1723 -2.2470  0.4284
   56MOL    H6743077   3.480   1.402   5.387 -0.5719  1.0612 -1.1616
   56MOL    H6843078   3.521   1.544   5.493 -1.1026 -0.0681  1.7106
   56MOL    H6943079   3.209   1.616   5.529  1.1978 -0.7702 -0.5909
   56MOL    H7043080   3.323   1.744   5.506 -2.2487  0.9537  2.1616
   56MOL    H7143081   3.089   1.812   5.428 -2.2069 -1.3074 -1.1431
   56MOL    H7243082   3.074   1.687   5.328 -1.0417  2.5951 -0.2324
   56MOL    H7343083   3.301   1.898   5.295  0.9629 -0.1906 -0.6263
   56MOL    H7443084   3.162   1.945   5.094 -2.3673 -1.1941 -1.4287
   56MOL    H7543085   3.047   1.808   5.120 -0.9340  0.8940 -1.9570
   56MOL    H7643086   2.710   2.183   5.154  1.5495 -1.0768 -0.0464
   56MOL    H7743087   2.575   2.307   5.326 -0.1624  0.9257  0.4317
   56MOL    H7843088   2.829   2.141   5.637 -2.8888 -0.0216  1.3721
   56MOL    H7943089   2.959   2.033   5.468  1.2851  1.3113 -0.5280
   56MOL    C8043090   2.268   2.578   6.013  0.3102  0.6423  0.5841
   56MOL    C8143091   2.320   2.472   5.913  0.3816  0.2997 -0.0341
   56MOL    C8243092   2.237   2.473   5.782  0.1694  0.5346 -0.5956
   56MOL    C8343093   2.304   2.390   5.673  0.7954  0.3616 -0.2395
   56MOL    O8443094   2.419   2.454   5.620 -0.2660 -0.4711 -0.4362
   56MOL    C8543095   2.093   2.425   5.815 -0.2989  1.4916  0.1175
   56MOL    C8643096   2.033   2.523   5.919  0.2854 -0.1853  0.1731
   56MOL    C8743097   2.127   2.533   6.041  0.2028  0.9023 -0.3888
   56MOL    C8843098   2.076   2.629   6.152  0.3492 -0.3718  0.2467
   56MOL    O8943099   1.997   2.731   6.099 -0.2817 -0.0602  0.2161
   56MOL    C9043100   2.039   2.854   6.076  0.5190 -0.3509 -0.2248
   56MOL    O9143101   2.155   2.882   6.083  0.1072  0.2009 -0.1964
   56MOL    C9243102   1.933   2.949   6.023  0.1023 -0.3909 -0.0642
   56MOL    C9343103   1.971   3.059   5.939 -0.3697 -0.0628  0.6963
   56MOL    C9443104   1.871   3.153   5.897 -0.3436  0.6956 -0.3176
   56MOL    C9543105   1.736   3.140   5.940  0.6776  0.1355 -0.1716
   56MOL    C9643106   1.641   3.253   5.919 -0.0339  0.2343  0.5800
   56MOL    O9743107   1.675   3.352   5.851 -0.3055 -0.6136 -0.3305
   56MOL    O9843108   1.526   3.241   5.992  0.1641  0.1064 -0.0011
   56MOL    C9943109   1.705   3.030   6.019  0.2023 -0.5048 -0.5302
   56MOL   C10043110   1.804   2.939   6.069  0.1388  0.6191 -0.6587
   56MOL   H10143111   2.328   2.565   6.104 -1.8598 -1.5784  1.7694
   56MOL   H10243112   2.264   2.681   5.978 -0.7781  0.2984 -0.3240
   56MOL   H10343113   2.426   2.485   5.889  0.9084 -1.0598  1.4728
   56MOL   H10443114   2.311   2.371   5.953 -0.2376  0.3505 -0.0460
   56MOL   H10543115   2.232   2.576   5.745 -0.1448  0.1889 -1.5474
   56MOL   H10643116   2.346   2.298   5.714  0.8046  0.2453 -0.5080
   56MOL   H10743117   2.242   2.367   5.585  0.1934  1.7300 -0.1750
   56MOL   H10843118   2.037   2.400   5.725 -1.9463  0.5506  1.3663
   56MOL   H10943119   2.105   2.333   5.872 -1.4567  1.0098 -0.4200
   56MOL   H11043120   1.933   2.493   5.950  0.1414 -0.5938 -0.6632
   56MOL   H11143121   2.015   2.618   5.869  0.9276 -0.1590 -0.0232
   56MOL   H11243122   2.145   2.438   6.092 -0.8697  1.7888  1.7138
   56MOL   H11343123   2.011   2.566   6.212  0.1842 -0.2534  0.1927
   56MOL   H11443124   2.149   2.660   6.227  0.5088 -1.0405  0.3713
   56MOL   H11543125   2.071   3.072   5.901 -1.1970 -0.9441 -1.9105
   56MOL   H11643126   1.903   3.237   5.836 -0.8074  0.0887 -1.4035
   56MOL   H11743127   1.602   3.017   6.048 -0.5572  1.4527 -2.2537
   56MOL   H11843128   1.776   2.854   6.130  0.3026  0.0198 -1.4003
   56MOL   C11943129   1.267   3.761   6.213 -0.6056  0.0902  0.2787
   56MOL   C12043130   1.374   3.643   6.203  0.1471  0.1150 -0.2099
   56MOL   C12143131   1.335   3.528   6.108  0.7341  0.7081 -0.0220
   56MOL   C12243132   1.444   3.420   6.097 -0.1624  0.1286  0.0018
   56MOL   O12343133   1.432   3.352   5.980  0.1708 -0.5491 -0.7657
   56MOL   C12443134   1.193   3.475   6.142  0.4908  0.2180 -0.2027
   56MOL   C12543135   1.090   3.581   6.156 -0.3968 -0.1227  0.1052
   56MOL   C12643136   1.131   3.691   6.255  0.0892 -0.1133  0.0918
   56MOL   C12743137   1.029   3.793   6.276 -0.2188  0.3699 -0.1207
   56MOL   O12843138   0.920   3.736   6.353 -1.0255 -0.0166 -0.1568
   56MOL   C12943139   0.802   3.805   6.354  0.4160  0.1455  0.0704
   56MOL   O13043140   0.788   3.920   6.313 -0.0888 -0.0177  0.1023
   56MOL   C13143141   0.696   3.723   6.410  0.1831  0.1452  0.7523
   56MOL   C13243142   0.562   3.759   6.388 -0.9247 -0.1975 -0.1968
   56MOL   C13343143   0.459   3.668   6.409  0.0302  0.2667 -0.1199
   56MOL   C13443144   0.479   3.541   6.471 -0.5637  0.3661  0.1978
   56MOL   C13543145   0.367   3.444   6.498 -0.3378  0.3324 -0.6987
   56MOL   O13643146   0.394   3.344   6.563 -0.6867  0.0511 -0.3425
   56MOL   O13743147   0.255   3.490   6.457  0.1656 -0.0378  0.2818
   56MOL   C13843148   0.614   3.509   6.498 -0.6699 -0.1745  0.4629
   56MOL   C13943149   0.721   3.604   6.471  0.3632 -0.0232 -0.4103
   56MOL   H14043150   1.279   3.839   6.289 -0.6772  0.0251  0.3566
   56MOL   H14143151   1.260   3.808   6.115  1.2572  0.5435  0.3553
   56MOL   H14243152   1.479   3.671   6.188  0.7167 -1.6004  0.4648
   56MOL   H14343153   1.377   3.608   6.306 -1.4804  0.3548 -0.0762
   56MOL   H14443154   1.337   3.586   6.015  1.1649 -0.1699 -0.5749
   56MOL   H14543155   1.540   3.470   6.105  0.9293 -1.9530  0.0899
   56MOL   H14643156   1.438   3.349   6.179 -0.6983  0.2952  0.1108
   56MOL   H14743157   1.149   3.404   6.072 -0.4642  0.4787  0.1275
   56MOL   H14843158   1.194   3.424   6.238  1.7561  0.0680 -0.2767
   56MOL   H14943159   1.000   3.528   6.190  0.7894 -0.3155  3.1364
   56MOL   H15043160   1.075   3.635   6.063 -1.1072 -1.4578 -0.5657
   56MOL   H15143161   1.148   3.651   6.355 -1.9355  1.1753  0.9975
   56MOL   H15243162   1.070   3.888   6.311  3.1609 -0.4641 -1.6139
   56MOL   H15343163   0.985   3.814   6.179  0.2165 -1.0518 -0.6337
   56MOL   H15443164   0.539   3.854   6.342 -2.9012 -0.6628 -0.2505
   56MOL   H15543165   0.359   3.698   6.382 -0.2297  0.7607  1.3519
   56MOL   H15643166   0.636   3.411   6.536 -1.3601  0.1653  1.7827
   56MOL   H15743167   0.825   3.580   6.486  0.4943 -0.1058 -1.4454
   56MOL   C15843168   0.043   3.614   6.105 -0.1049 -0.9020  0.5684
   56MOL   C15943169   0.117   3.533   6.204  0.3832  0.4575 -0.0686
   56MOL   C16043170   0.015   3.442   6.279 -0.1125 -0.1304  0.4258
   56MOL   C16143171   0.086   3.336   6.365 -0.3656  0.2093 -0.3583
   56MOL   O16243172   0.143   3.395   6.483  0.1244 -0.0903  0.2809
   56MOL   C16343173   7.945   3.524   6.350 -0.0703 -0.6153 -0.1193
   56MOL   C16443174   7.874   3.611   6.252 -0.3267 -0.0849  0.1514
   56MOL   C16543175   7.967   3.698   6.173 -0.9827  0.4350  0.7725
   56MOL   C16643176   7.890   3.786   6.072 -0.1966 -0.1826 -0.3665
   56MOL   O16743177   7.987   3.874   6.019 -0.6536 -0.0023 -0.2301
   56MOL   C16843178   7.963   3.999   6.004  0.4206 -0.5584 -0.4744
   56MOL   O16943179   7.853   4.050   6.035 -0.1282  0.3402 -0.1110
   56MOL   C17043180   0.049   4.083   5.974  0.3679 -0.2470  0.1906
   56MOL   C17143181   0.033   4.225   5.979 -0.5753 -0.2915  0.8414
   56MOL   C17243182   0.140   4.314   5.962 -0.7757 -0.1856 -0.9247
   56MOL   C17343183   0.270   4.260   5.933 -0.0721  0.6465 -0.3781
   56MOL   C17443184   0.398   4.345   5.931  0.0212 -0.0692 -0.1555
   56MOL   O17543185   0.512   4.296   5.921 -1.1486  0.0626  0.4591
   56MOL   O17643186   0.375   4.480   5.937 -0.7048  0.3829 -0.1504
   56MOL   C17743187   0.281   4.123   5.920 -0.4600 -0.3013  0.1303
   56MOL   C17843188   0.176   4.033   5.942  0.7603  0.4003  0.0989
   56MOL   H17943189   0.112   3.684   6.059 -2.5138  0.9910 -0.2773
   56MOL   H18043190   8.024   3.545   6.041 -0.8708 -0.0264  0.2689
   56MOL   H18143191   0.195   3.482   6.147 -1.5124  1.6981 -3.9172
   56MOL   H18243192   0.183   3.601   6.259  2.0615 -0.8127 -0.4575
   56MOL   H18343193   8.005   3.381   6.201  0.5802 -0.6866  0.4522
   56MOL   H18443194   0.014   3.267   6.409  1.8445 -0.2450  2.6788
   56MOL   H18543195   0.166   3.277   6.320 -1.4635 -2.4888  1.0956
   56MOL   H18643196   7.882   3.466   6.418  0.9666 -0.5586  0.9005
   56MOL   H18743197   8.000   3.594   6.413 -2.5872  1.1357  0.1840
   56MOL   H18843198   7.806   3.682   6.300 -0.2528 -0.1965  0.4242
   56MOL   H18943199   7.800   3.555   6.196 -0.9801 -0.9828  1.8780
   56MOL   H19043200   8.027   3.762   6.238  2.2738  0.3675 -2.0087
   56MOL   H19143201   7.848   3.719   5.997  1.2295 -1.6093  0.0784
   56MOL   H19243202   7.815   3.825   6.140  0.3979  0.0329  0.1645
   56MOL   H19343203   7.969   4.268   5.990 -0.9329 -1.2082  1.2905
   56MOL   H19443204   0.128   4.418   5.988  0.3991 -0.2468 -0.0822
   56MOL   H19543205   0.378   4.082   5.896 -0.8177 -0.5486 -0.8967
   56MOL   H19643206   0.190   3.926   5.934 -1.2383  0.1396 -0.3330
   56MOL   C19743207   0.850   4.822   5.733  0.2418  0.3488 -0.0613
   56MOL   C19843208   0.714   4.745   5.724 -0.0400  0.0931 -0.0046
   56MOL   C19943209   0.668   4.698   5.864 -0.2273 -0.3096  0.4389
   56MOL   C20043210   0.548   4.605   5.838 -0.4736  0.6648 -0.4008
   56MOL   O20143211   0.500   4.559   5.962  0.5298 -0.5729 -0.0099
   56MOL   C20243212   0.783   4.624   5.936  1.1068 -0.4294  0.4392
   56MOL   C20343213   0.908   4.714   5.957 -0.4739  0.3080  0.0711
   56MOL   C20443214   0.957   4.766   5.822 -0.6120  0.0559 -0.4896
   56MOL   C20543215   1.072   4.860   5.824 -0.0349 -0.7540 -0.1366
   56MOL   O20643216   1.175   4.807   5.899  0.1511 -0.0670  0.4466
   56MOL   C20743217   1.308   4.816   5.874 -0.3103 -0.5498  0.3033
   56MOL   O20843218   1.357   4.870   5.778  0.3443  0.3092  0.5217
   56MOL   C20943219   1.389   4.758   5.994 -0.4507  0.3471  0.2012
   56MOL   C21043220   1.330   4.672   6.085 -0.7319  0.2940 -0.0978
   56MOL   C21143221   1.401   4.621   6.189 -0.1987 -0.3865  0.2111
   56MOL   C21243222   1.537   4.650   6.208  0.7504 -0.3446  0.1162
   56MOL   C21343223   1.595   4.638   6.344  0.5147  0.0267 -0.8446
   56MOL   O21443224   1.533   4.663   6.451  0.0797  0.0519 -0.1647
   56MOL   O21543225   1.723   4.607   6.339 -0.1067 -0.4112  0.0098
   56MOL   C21643226   1.601   4.734   6.113  0.5076 -0.5478  0.4520
   56MOL   C21743227   1.528   4.791   6.002  0.3554  0.0810  0.7830
   56MOL   H21843228   0.885   4.857   5.636 -1.7564 -1.8217 -1.6156
   56MOL   H21943229   0.826   4.921   5.772  1.9850 -0.3784  3.0930
   56MOL   H22043230   0.643   4.816   5.682  1.7208  1.6452 -0.4253
   56MOL   H22143231   0.730   4.663   5.653 -1.2816 -1.1238  1.1034
   56MOL   H22243232   0.634   4.779   5.929  1.5506  1.6418 -0.9893
   56MOL   H22343233   0.461   4.652   5.792 -0.5560  0.2889 -0.6356
   56MOL   H22443234   0.574   4.520   5.775  0.1109 -0.9280  1.9308
   56MOL   H22543235   0.753   4.581   6.031  1.1345 -0.3510  0.4839
   56MOL   H22643236   0.812   4.547   5.864 -1.3153 -0.7399 -0.2636
   56MOL   H22743237   0.985   4.654   6.006 -1.8482  0.5487  2.5901
   56MOL   H22843238   0.882   4.793   6.027 -2.7195  0.5233 -0.9586
   56MOL   H22943239   0.990   4.675   5.771 -3.6029 -0.3338 -1.8832
   56MOL   H23043240   1.106   4.874   5.721  1.3428  0.7415  0.5029
   56MOL   H23143241   1.039   4.955   5.866  0.7302 -0.3812 -0.3677
   56MOL   H23243242   1.226   4.646   6.068 -0.9128  1.1623 -0.3169
   56MOL   H23343243   1.349   4.557   6.259  0.1895 -0.3987  0.4890
   56MOL   H23443244   1.706   4.755   6.122  0.8951 -3.1533  2.7293
   56MOL   H23543245   1.573   4.853   5.926 -0.0169 -2.2168 -1.3646
   56MOL   C23643246   2.123   4.861   6.746 -0.1607 -0.5625  0.5727
   56MOL   C23743247   2.066   4.847   6.604  0.1198  0.6431 -0.3973
   56MOL   C23843248   1.974   4.725   6.609 -0.1510 -0.1785 -0.1430
   56MOL   C23943249   1.906   4.713   6.473 -0.3029  0.1696 -0.2014
   56MOL   O24043250   1.796   4.613   6.471  0.3679  0.1472 -0.2679
   56MOL   C24143251   2.046   4.598   6.645 -0.7021  0.1608 -0.0946
   56MOL   C24243252   2.132   4.610   6.781  0.6777 -0.1577  0.2782
   56MOL   C24343253   2.212   4.746   6.781 -0.3029 -0.2051 -0.4733
   56MOL   C24443254   2.294   4.756   6.909  0.2117  0.0634  1.3375
   56MOL   O24543255   2.204   4.770   7.019 -0.2827 -0.7774  0.4486
   56MOL   C24643256   2.227   4.855   7.118  0.4628  0.1901  0.1609
   56MOL   O24743257   2.321   4.927   7.128  0.1629  0.4016 -0.2557
   56MOL   C24843258   2.118   4.857   7.223  0.0145  0.2735 -0.0329
   56MOL   C24943259   2.130   4.943   7.334 -1.0955  0.0057  0.3899
   56MOL   C25043260   2.051   4.928   7.451  0.3868 -0.1990 -0.3501
   56MOL   C25143261   1.955   4.824   7.453  0.4030  0.2587 -0.1200
   56MOL   C25243262   1.865   4.811   7.572  0.5223 -0.9956  0.2048
   56MOL   O25343263   1.855   4.894   7.661  0.4584 -0.1496 -0.4547
   56MOL   O25443264   1.781   4.707   7.566  0.8748  0.2608 -0.1419
   56MOL   C25543265   1.939   4.739   7.341 -0.1028  0.3523  1.3045
   56MOL   C25643266   2.018   4.756   7.228  0.3747  0.7410 -0.1397
   56MOL   H25743267   2.175   4.955   6.758 -0.0910 -0.0787 -3.0301
   56MOL   H25843268   2.039   4.883   6.812 -1.4863 -0.0130 -1.2700
   56MOL   H25943269   2.011   4.936   6.575 -0.8208  0.6287  1.2804
   56MOL   H26043270   2.137   4.819   6.527 -0.6815 -0.0982 -0.8785
   56MOL   H26143271   1.900   4.740   6.688  0.1791 -0.5503  0.2342
   56MOL   H26243272   1.855   4.808   6.455 -1.5846 -0.1371  1.7552
   56MOL   H26343273   1.980   4.707   6.392 -0.0630 -0.8738  0.0950
   56MOL   H26443274   1.975   4.518   6.666 -0.6460  0.5674  1.7896
   56MOL   H26543275   2.106   4.554   6.566  0.3266 -0.0749  0.8058
   56MOL   H26643276   2.210   4.535   6.796  0.0704 -0.4870  2.0063
   56MOL   H26743277   2.071   4.603   6.872 -0.6038 -2.4439 -0.7057
   56MOL   H26843278   2.282   4.743   6.697 -0.5907 -2.2447 -0.6608
   56MOL   H26943279   2.352   4.667   6.929 -1.6525 -1.6779 -0.7137
   56MOL   H27043280   2.361   4.842   6.900  0.4659 -0.0531  2.0890
   56MOL   H27143281   2.202   5.023   7.346 -0.2933 -0.8448  1.3472
   56MOL   H27243282   2.075   4.988   7.537  0.4784 -0.9173  0.1301
   56MOL   H27343283   1.857   4.669   7.346 -1.0896  1.4132  0.3191
   56MOL   H27443284   2.003   4.676   7.157  2.5433 -1.0148  1.2979
   56MOL   C27543285   1.321   4.726   7.308 -0.0566 -0.5279  0.4087
   56MOL   C27643286   1.379   4.796   7.429  0.2850 -0.3381 -0.3153
   56MOL   C27743287   1.491   4.707   7.489  0.0390 -1.0934 -0.1721
   56MOL   C27843288   1.561   4.791   7.606  0.1802 -0.2373 -0.3029
   56MOL   O27943289   1.663   4.716   7.673 -0.1559 -0.0569  0.5654
   56MOL   C28043290   1.432   4.581   7.543  0.3395 -0.0648  0.5902
   56MOL   C28143291   1.377   4.498   7.424 -0.7061  0.3324 -0.9861
   56MOL   C28243292   1.269   4.581   7.349  0.7550  0.5893  0.3365
   56MOL   C28343293   1.208   4.499   7.234  0.4296 -0.3523 -0.3910
   56MOL   O28443294   1.149   4.379   7.288  0.3224 -0.1257  0.4641
   56MOL   C28543295   1.071   4.297   7.216  0.0767  0.2890 -0.6200
   56MOL   O28643296   1.040   4.309   7.098 -0.0485  0.4468 -0.5163
   56MOL   C28743297   1.034   4.179   7.297 -0.4369 -0.6102 -0.0446
   56MOL   C28843298   1.059   4.171   7.438 -0.5943  0.4615 -0.5889
   56MOL   C28943299   1.041   4.049   7.508 -0.3779  0.2889 -0.2667
   56MOL   C29043300   0.991   3.937   7.435  0.5628  0.5412 -0.1946
   56MOL   C29143301   0.973   3.817   7.509 -0.0441  0.2056 -0.2891
   56MOL   O29243302   0.969   3.806   7.631 -0.2264  0.2186 -0.3920
   56MOL   O29343303   0.958   3.711   7.431  0.1505 -0.0392  0.6078
   56MOL   C29443304   0.963   3.947   7.301  0.0252  0.5294  0.2385
   56MOL   C29543305   0.979   4.063   7.233  0.4712 -0.0348 -0.2206
   56MOL   H29643306   1.237   4.792   7.282  0.6987  0.3565  0.2027
   56MOL   H29743307   1.390   4.732   7.224 -0.9889 -0.8011 -0.3854
   56MOL   H29843308   1.420   4.895   7.406  0.3441 -0.1111  0.7344
   56MOL   H29943309   1.300   4.807   7.503 -1.1610 -2.4261 -1.4872
   56MOL   H30043310   1.560   4.677   7.410  0.1116 -1.1955 -0.0703
   56MOL   H30143311   1.582   4.895   7.583 -2.4137  0.2359 -0.6616
   56MOL   H30243312   1.489   4.810   7.686  1.9430  1.4838  0.9274
   56MOL   H30343313   1.503   4.514   7.592 -0.9827 -1.7516  0.2260
   56MOL   H30443314   1.348   4.587   7.612 -0.2972 -0.7202 -0.1309
   56MOL   H30543315   1.327   4.408   7.459 -1.0959  2.0572  3.0696
   56MOL   H30643316   1.455   4.479   7.350 -1.8245 -1.7317 -1.7056
   56MOL   H30743317   1.185   4.590   7.418  0.0385  0.1577 -0.4730
   56MOL   H30843318   1.129   4.560   7.189  0.0180 -0.5004  0.1211
   56MOL   H30943319   1.286   4.479   7.161  0.6269  0.7588 -0.5011
   56MOL   H31043320   1.098   4.247   7.504 -1.2498 -0.1504  0.5178
   56MOL   H31143321   1.069   4.043   7.612  2.2642  1.7476 -0.8585
   56MOL   H31243322   0.934   3.853   7.256 -0.4471  0.0013  1.6141
   56MOL   H31343323   0.963   4.082   7.128  0.1175 -0.3812 -0.2262
   56MOL   C31443324   0.903   3.190   7.764 -0.3577  0.0991 -0.8341
   56MOL   C31543325   0.851   3.297   7.676 -0.0814  0.0749 -0.1908
   56MOL   C31643326   0.958   3.387   7.611  0.2300  0.1061  0.1786
   56MOL   C31743327   0.909   3.493   7.526 -0.2019  0.2796  0.3307
   56MOL   O31843328   1.017   3.578   7.478 -0.4683  0.5458 -0.0245
   56MOL   C31943329   1.044   3.443   7.724  0.8447  0.0253  0.4594
   56MOL   C32043330   1.101   3.337   7.820  0.1969 -0.2744  0.1768
   56MOL   C32143331   0.986   3.255   7.880  0.3418 -0.3618  0.4587
   56MOL   C32243332   1.042   3.163   7.990  0.2018 -0.0136  0.5666
   56MOL   O32343333   0.950   3.073   0.014  0.4375 -0.2159  0.0500
   56MOL   C32443334   0.829   3.108   0.068 -0.2890  0.3373 -0.2346
   56MOL   O32543335   0.797   3.223   0.081  0.1129  1.1793 -0.3156
   56MOL   C32643336   0.741   2.992   0.114 -0.4896  0.1398 -0.4312
   56MOL   C32743337   0.610   3.015   0.154 -0.2045  0.3243  0.2742
   56MOL   C32843338   0.531   2.914   0.217 -0.7361  0.2776  0.4280
   56MOL   C32943339   0.586   2.786   0.222  0.5790 -0.2330 -0.1213
   56MOL   C33043340   0.496   2.665   0.270  0.3263 -0.9743  0.4705
   56MOL   O33143341   0.373   2.675   0.269  0.3018 -0.6561  0.0870
   56MOL   O33243342   0.556   2.554   0.288  0.2335 -0.5811  0.3820
   56MOL   C33343343   0.721   2.760   0.182 -0.0270 -0.2361 -0.4685
   56MOL   C33443344   0.801   2.862   0.129 -0.5966 -0.1486 -0.6083
   56MOL   H33543345   0.821   3.124   7.792 -1.3785  1.0876 -1.4357
   56MOL   H33643346   0.955   3.114   7.706 -0.7899 -0.1410 -0.9080
   56MOL   H33743347   0.798   3.244   7.597  0.9331 -1.0707 -0.1121
   56MOL   H33843348   0.768   3.351   7.722  0.7473  4.0462 -3.0853
   56MOL   H33943349   1.024   3.320   7.557  1.5995  0.3705  1.4880
   56MOL   H34043350   0.851   3.453   7.443 -0.5993 -1.1045  1.2669
   56MOL   H34143351   0.836   3.544   7.589 -1.2398 -0.4055 -0.3037
   56MOL   H34243352   1.130   3.498   7.686 -0.4030  0.1212 -2.3585
   56MOL   H34343353   0.995   3.524   7.778  2.5512  0.5189  1.3224
   56MOL   H34443354   1.163   3.379   7.899  1.8555 -0.6987 -0.8783
   56MOL   H34543355   1.176   3.280   7.765 -0.7334 -0.8940 -0.4736
   56MOL   H34643356   0.924   3.331   7.928 -0.2642  0.6583 -1.8571
   56MOL   H34743357   1.127   3.111   7.946 -0.2286  0.4926 -0.8908
   56MOL   H34843358   1.082   3.223   0.036 -2.7272 -0.5754  2.5012
   56MOL   H34943359   0.568   3.113   0.135 -1.1262 -0.2525 -0.7089
   56MOL   H35043360   0.434   2.933   0.260 -0.5706 -0.3652  1.1031
   56MOL   H35143361   0.755   2.658   0.191  1.1739  0.4134  3.5247
   56MOL   H35243362   0.893   2.839   0.078 -0.5026 -2.4654  0.5411
   56MOL   C35343363   0.425   2.011   0.339 -0.5939 -0.2398  0.8789
   56MOL   C35443364   0.492   2.144   0.299  0.2753 -0.6584  0.0429
   56MOL   C35543365   0.389   2.227   0.224  0.4327  0.7987  0.3351
   56MOL   C35643366   0.450   2.361   0.194 -0.4679 -0.1064  0.1409
   56MOL   O35743367   0.472   2.430   0.317 -0.0399 -0.1805  0.2452
   56MOL   C35843368   0.346   2.159   0.091 -0.1192 -0.8503 -0.0101
   56MOL   C35943369   0.282   2.019   0.127  0.1200  0.3021  0.3564
   56MOL   C36043370   0.370   1.937   0.217 -0.0101 -0.9871  0.4799
   56MOL   C36143371   0.302   1.806   0.266  0.6815  0.0874  0.3272
   56MOL   O36243372   0.194   1.832   0.351  0.7500 -0.1972 -0.0318
   56MOL   C36343373   0.079   1.767   0.338  0.1301  0.3278 -0.5451
   56MOL   O36443374   0.051   1.670   0.263 -0.5841 -0.5462  0.2911
   56MOL   C36543375   8.006   1.826   0.426  0.4651  0.6992  0.0468
   56MOL   C36643376   7.897   1.741   0.450  0.3376 -0.0386 -0.3484
   56MOL   C36743377   7.796   1.784   0.544  0.6364 -0.2940 -0.2648
   56MOL   C36843378   7.806   1.913   0.609 -0.4941  0.0310 -0.1071
   56MOL   C36943379   7.697   1.959   0.694  0.1458 -1.0115 -0.5173
   56MOL   O37043380   7.588   1.904   0.697  0.0094 -0.2174  0.0672
   56MOL   O37143381   7.731   2.068   0.761  0.3530  0.2411 -0.4101
   56MOL   C37243382   7.918   2.000   0.582 -0.2426 -0.5889 -0.3005
   56MOL   C37343383   8.015   1.952   0.485 -0.4191  0.1152 -0.3956
   56MOL   H37443384   0.499   1.947   0.387  0.8241 -0.3205 -1.3180
   56MOL   H37543385   0.347   2.044   0.407  0.6946  2.3025  1.1784
   56MOL   H37643386   0.522   2.190   0.393  3.8096  0.1979 -1.4258
   56MOL   H37743387   0.578   2.132   0.234  1.9059 -1.9824  2.3815
   56MOL   H37843388   0.303   2.245   0.288  1.5940 -0.8018  2.4098
   56MOL   H37943389   0.543   2.358   0.137  0.0241 -0.1335  0.9527
   56MOL   H38043390   0.379   2.416   0.131 -0.3270 -2.4098 -2.0998
   56MOL   H38143391   0.269   2.223   0.049  1.0006  0.0588 -0.7422
   56MOL   H38243392   0.427   2.150   0.018  0.3140 -2.8031  0.6746
   56MOL   H38343393   0.256   1.960   0.040 -2.6628 -1.6350  2.3925
   56MOL   H38443394   0.192   2.047   0.182 -0.7085  2.9569 -2.2381
   56MOL   H38543395   0.455   1.914   0.155 -1.0890 -0.2264 -1.3191
   56MOL   H38643396   0.268   1.750   0.179  0.2847  0.5623  0.1730
   56MOL   H38743397   0.382   1.757   0.321 -0.1580  0.1760  1.6538
   56MOL   H38843398   7.894   1.644   0.403 -0.0324 -0.1573 -0.0880
   56MOL   H38943399   7.712   1.718   0.559  0.3056 -0.0345 -0.9291
   56MOL   H39043400   7.929   2.103   0.611  0.3869 -0.5371 -0.7034
   56MOL   H39143401   0.065   2.012   0.459  0.6719 -1.6296 -0.9435
   56MOL   C39243402   7.843   2.496   0.982  0.8065 -0.0808  0.2489
   56MOL   C39343403   7.762   2.376   0.949 -0.5294 -0.0533 -1.2026
   56MOL   C39443404   7.703   2.361   0.807 -0.0889  0.0001 -0.3168
   56MOL   C39543405   7.592   2.260   0.797  0.6248 -0.3010 -0.1095
   56MOL   O39643406   7.631   2.132   0.855  0.6536  0.4920 -0.0682
   56MOL   C39743407   7.651   2.498   0.744  0.2476 -0.3457 -0.1536
   56MOL   C39843408   7.751   2.614   0.788 -0.8238 -0.1927 -0.0428
   56MOL   C39943409   7.768   2.626   0.942 -0.9646 -0.4187 -0.0638
   56MOL   C40043410   7.838   2.747   0.998  0.4983 -0.0826 -0.3332
   56MOL   O40143411   7.758   2.863   0.995  0.4926  0.3670 -0.3916
   56MOL   C40243412   7.825   2.983   0.982  0.2590  0.9216  0.3952
   56MOL   O40343413   7.947   2.996   0.960  0.3132  0.1774  0.0204
   56MOL   C40443414   7.730   3.098   1.003 -0.5352 -0.5597 -0.6211
   56MOL   C40543415   7.783   3.230   1.012  0.3843  0.3054  0.2425
   56MOL   C40643416   7.699   3.341   1.031  0.4371 -0.1990 -0.4331
   56MOL   C40743417   7.559   3.327   1.045 -0.1540 -0.5467  0.8234
   56MOL   C40843418   7.475   3.448   1.065 -0.4502 -0.3095 -0.2455
   56MOL   O40943419   7.520   3.564   1.078 -0.0581 -0.5822  0.5831
   56MOL   O41043420   7.341   3.422   1.080  0.2005 -0.1468 -0.2461
   56MOL   C41143421   7.506   3.198   1.036  0.3692  0.2881  0.8020
   56MOL   C41243422   7.591   3.085   1.014  0.2625 -0.2336  0.2773
   56MOL   H41343423   7.856   2.499   1.090 -2.2721 -1.4711  0.7025
   56MOL   H41443424   7.942   2.492   0.936  1.3817  1.4696  1.3186
   56MOL   H41543425   7.816   2.287   0.982  0.7113  0.9389 -0.5124
   56MOL   H41643426   7.682   2.378   1.023 -1.7585  2.2672 -2.5242
   56MOL   H41743427   7.788   2.327   0.748 -0.2661 -1.5702  0.2969
   56MOL   H41843428   7.510   2.304   0.855  1.9104  1.7257  0.2003
   56MOL   H41943429   7.554   2.253   0.696 -1.6670 -0.7544  0.7448
   56MOL   H42043430   7.647   2.498   0.635  0.1732 -0.3092 -0.1512
   56MOL   H42143431   7.550   2.521   0.779 -0.2302 -0.3706 -1.4891
   56MOL   H42243432   7.712   2.712   0.758  1.5990  1.2210  1.2817
   56MOL   H42343433   7.841   2.604   0.727 -1.3913 -1.9568 -0.6276
   56MOL   H42443434   7.672   2.619   0.994 -0.5597 -1.0664  0.6137
   56MOL   H42543435   7.864   2.726   1.102  1.4464  1.0319 -0.3383
   56MOL   H42643436   7.926   2.774   0.939  1.0633  1.3956  1.1231
   56MOL   H42743437   7.889   3.248   1.004  0.4976 -0.8640 -1.1076
   56MOL   H42843438   7.744   3.439   1.028  2.0586 -0.9335 -0.6809
   56MOL   H42943439   7.400   3.177   1.038  0.6090 -0.9427  1.7615
   56MOL   H43043440   7.551   2.986   0.997  1.0492 -0.4719 -0.2577
   56MOL   C43143441   6.944   3.325   1.474 -0.3221  0.2546 -0.7053
   56MOL   C43243442   7.021   3.443   1.402 -0.0974 -0.0720 -0.6778
   56MOL   C43343443   7.106   3.404   1.276  0.2390  0.3252  0.0086
   56MOL   C43443444   7.197   3.526   1.242  0.1349 -0.5254  0.1174
   56MOL   O43543445   7.248   3.535   1.112  0.0511  0.8015  0.5769
   56MOL   C43643446   7.192   3.278   1.317  0.7687 -1.3641  0.0414
   56MOL   C43743447   7.102   3.165   1.376 -0.1701 -0.2613  0.4548
   56MOL   C43843448   7.025   3.203   1.506 -0.4147 -0.4061  0.9213
   56MOL   C43943449   6.944   3.085   1.557  0.0925 -0.2250 -0.0321
   56MOL   O44043450   7.033   2.990   1.612 -0.2567 -0.4191  0.0852
   56MOL   C44143451   7.030   2.865   1.563 -0.5260 -0.4368 -0.1141
   56MOL   O44243452   6.959   2.829   1.465 -0.2852  0.2835 -0.0415
   56MOL   C44343453   7.099   2.763   1.649  0.1604 -0.0560  0.1236
   56MOL   C44443454   7.150   2.791   1.783 -0.7863  0.6236  0.2133
   56MOL   C44543455   7.224   2.698   1.861 -0.0921 -0.0673 -0.3685
   56MOL   C44643456   7.262   2.575   1.811 -0.4676 -0.3112 -0.2029
   56MOL   C44743457   7.341   2.477   1.886  0.5875 -0.5398 -0.5680
   56MOL   O44843458   7.418   2.515   1.973 -0.0343 -0.1295 -0.2298
   56MOL   O44943459   7.323   2.345   1.863  0.1268  0.1582  0.3994
   56MOL   C45043460   7.204   2.544   1.686  0.3990 -0.1336 -0.2247
   56MOL   C45143461   7.127   2.636   1.606  0.6141 -0.1881 -0.2670
   56MOL   H45243462   6.900   3.357   1.569  0.2419 -0.3326 -0.2411
   56MOL   H45343463   6.869   3.293   1.401 -0.0111  2.1311 -1.8895
   56MOL   H45443464   6.949   3.523   1.383 -0.3092  0.1873  1.1292
   56MOL   H45543465   7.090   3.485   1.474 -2.6673  1.5429  0.9382
   56MOL   H45643466   7.040   3.389   1.191 -0.0837 -0.7331  0.4377
   56MOL   H45743467   7.142   3.618   1.263  0.1178 -0.5488  0.1742
   56MOL   H45843468   7.288   3.522   1.302  1.6097 -0.4364 -2.0394
   56MOL   H45943469   7.250   3.234   1.236  0.9193  0.9495 -1.1292
   56MOL   H46043470   7.261   3.306   1.397 -0.9191  2.8289  0.1522
   56MOL   H46143471   7.155   3.074   1.401 -1.2189 -1.0371 -0.0884
   56MOL   H46243472   7.027   3.144   1.300 -1.2737  0.9771  1.1810
   56MOL   H46343473   7.095   3.229   1.586  1.3680  2.1908 -1.3955
   56MOL   H46443474   6.892   3.111   1.650 -0.9588 -0.7434 -0.4665
   56MOL   H46543475   6.871   3.045   1.487 -0.8540 -0.6201  1.1674
   56MOL   H46643476   7.114   2.883   1.827 -1.3809  1.0260 -1.0573
   56MOL   H46743477   7.247   2.725   1.963  0.6686 -1.7380 -0.0840
   56MOL   H46843478   7.217   2.449   1.637 -0.4333 -0.7094  0.6717
   56MOL   H46943479   7.106   2.603   1.506  0.6354  0.5545 -0.5157
   56MOL   C47043480   7.879   2.100   1.969  0.0261  0.6690  0.7349
   56MOL   C47143481   7.769   2.163   1.886  0.1244  0.2511 -0.2312
   56MOL   C47243482   7.626   2.158   1.956 -0.5032 -0.1945  0.0078
   56MOL   C47343483   7.522   2.230   1.870  0.0272 -0.2772 -0.3667
   56MOL   O47443484   7.403   2.254   1.944 -0.1349 -0.6109  0.1645
   56MOL   C47543485   7.588   2.010   1.994 -0.7909 -0.3436 -0.5029
   56MOL   C47643486   7.697   1.950   2.073 -0.4573 -1.0044 -0.9383
   56MOL   C47743487   7.835   1.952   2.000 -0.4733 -0.3965  0.6414
   56MOL   C47843488   7.942   1.886   2.094 -0.2810 -1.1109 -0.2200
   56MOL   O47943489   7.902   1.757   2.148 -0.7137 -0.0985  0.0567
   56MOL   C48043490   7.915   1.646   2.067 -0.4892 -0.6015  0.5436
   56MOL   O48143491   7.963   1.649   1.956  0.2185  0.5642  0.4309
   56MOL   C48243492   7.875   1.514   2.119  0.4593  0.3485  0.9764
   56MOL   C48343493   7.830   1.501   2.252 -0.4615 -0.7540  0.7258
   56MOL   C48443494   7.792   1.382   2.303  0.3071  0.6522  0.1761
   56MOL   C48543495   7.791   1.261   2.223 -0.5074  0.6095  1.1169
   56MOL   C48643496   7.744   1.128   2.276  0.1377  0.9202 -0.1194
   56MOL   O48743497   7.658   1.124   2.364 -0.3552 -0.3050  0.0298
   56MOL   O48843498   7.806   1.014   2.223 -0.3152 -0.2793 -0.2677
   56MOL   C48943499   7.827   1.271   2.085 -0.4353  0.4070 -0.1272
   56MOL   C49043500   7.873   1.398   2.038 -0.4858 -0.9348  0.3047
   56MOL   H49143501   7.975   2.102   1.919  0.4883 -0.2643  1.5865
   56MOL   H49243502   7.898   2.154   2.062  0.6979  0.6336  0.6204
   56MOL   H49343503   7.797   2.268   1.872  2.7165 -0.2118  1.1331
   56MOL   H49443504   7.765   2.123   1.785  0.8533  0.1865 -0.2388
   56MOL   H49543505   7.637   2.209   2.052  0.8646  1.0867 -0.8060
   56MOL   H49643506   7.561   2.327   1.842 -0.8240  0.0180 -0.5534
   56MOL   H49743507   7.508   2.163   1.785 -0.2509  1.1666 -1.4759
   56MOL   H49843508   7.491   2.009   2.044  0.7135  0.7809  2.5683
   56MOL   H49943509   7.575   1.955   1.900  1.8683  0.8492 -1.6035
   56MOL   H50043510   7.677   1.847   2.100  0.6064 -0.7723  0.8360
   56MOL   H50143511   7.704   2.005   2.167 -1.1594  2.1464 -2.6319
   56MOL   H50243512   7.824   1.888   1.912 -3.1283  0.1368  0.5266
   56MOL   H50343513   0.001   1.874   2.041 -0.4478  1.0987 -1.0834
   56MOL   H50443514   7.952   1.946   2.185 -0.9814 -0.7210 -0.3965
   56MOL   H50543515   7.824   1.588   2.315  0.7544  0.7879 -1.2342
   56MOL   H50643516   7.764   1.380   2.407 -2.8653  0.4104 -0.6446
   56MOL   H50743517   7.806   1.190   2.016 -3.7379  1.2051 -0.1486
   56MOL   H50843518   7.905   1.404   1.935 -0.2518  1.2973  0.4990
   56MOL   C50943519   7.509   0.479   2.078 -0.0002 -0.0955 -0.2873
   56MOL   C51043520   7.537   0.625   2.068  0.6965  0.0689 -0.1301
   56MOL   C51143521   7.624   0.677   2.183 -0.3278  0.3070  0.2781
   56MOL   C51243522   7.665   0.830   2.165  0.6023 -0.3875 -0.4141
   56MOL   O51343523   7.748   0.875   2.267 -0.0440 -0.7236 -0.0587
   56MOL   C51443524   7.566   0.644   2.316  0.2366  0.3381 -0.6365
   56MOL   C51543525   7.533   0.495   2.328 -0.1386  0.4386  0.4850
   56MOL   C51643526   7.444   0.445   2.214  0.0184 -0.0845 -0.5237
   56MOL   C51743527   7.413   0.295   2.231 -0.4097 -0.3778 -0.5721
   56MOL   O51843528   7.316   0.255   2.132  0.2025 -0.4139 -0.0298
   56MOL   C51943529   7.192   0.222   2.160  0.0298  0.2322 -0.1259
   56MOL   O52043530   7.151   0.216   2.275  0.6463  0.3620 -0.0288
   56MOL   C52143531   7.115   0.209   2.034 -0.6123 -0.7749  0.3424
   56MOL   C52243532   7.175   0.179   1.907  0.2099  0.2359 -0.2506
   56MOL   C52343533   7.099   0.133   1.802 -0.0201 -0.6486  0.5006
   56MOL   C52443534   6.959   0.135   1.804  0.0505  0.5329  0.0554
   56MOL   C52543535   6.878   0.096   1.690 -0.2781  0.1274 -0.2072
   56MOL   O52643536   6.758   0.123   1.678 -0.2149  0.4304  0.2965
   56MOL   O52743537   6.945   0.026   1.597  0.2533  0.1862 -0.5020
   56MOL   C52843538   6.898   0.187   1.920 -0.1450  0.4509  0.3857
   56MOL   C52943539   6.973   0.228   2.034 -0.5753  0.0548 -0.0770
   56MOL   H53043540   7.455   0.438   1.992  1.5080  0.6365 -1.6030
   56MOL   H53143541   7.609   0.436   2.083  0.5706  1.1961 -0.4270
   56MOL   H53243542   7.579   0.653   1.972  0.2398 -0.3301 -0.4513
   56MOL   H53343543   7.444   0.682   2.074  0.3172 -0.4878 -0.7124
   56MOL   H53443544   7.723   0.630   2.186 -0.6619 -0.4673 -0.6077
   56MOL   H53543545   7.725   0.845   2.075  0.1916  1.4635 -0.3995
   56MOL   H53643546   7.583   0.900   2.150  1.8710  1.2181 -0.0199
   56MOL   H53743547   7.633   0.654   2.401 -0.7186  2.3149 -0.0901
   56MOL   H53843548   7.479   0.702   2.346  0.9247  0.3255  1.4024
   56MOL   H53943549   7.474   0.490   2.419 -0.5813  2.5624  0.3584
   56MOL   H54043550   7.624   0.436   2.318  0.2972  1.2368 -0.4056
   56MOL   H54143551   7.350   0.498   2.231  0.0418 -0.4284  0.7883
   56MOL   H54243552   7.495   0.225   2.219 -1.1796 -1.1414 -1.4857
   56MOL   H54343553   7.376   0.282   2.332  2.1910 -1.6163  0.2499
   56MOL   H54443554   7.282   0.161   1.906  0.6836  1.6978  4.8621
   56MOL   H54543555   7.151   0.093   1.716 -0.6517  1.0053 -0.6755
   56MOL   H54643556   6.791   0.189   1.915 -0.1888 -1.0137  0.5348
   56MOL   H54743557   6.918   0.262   2.121 -0.2647  1.7707 -0.5376
   56MOL   C54843558   7.191   8.025   1.125 -0.1698  0.7696 -0.2328
   56MOL   C54943559   7.062   0.048   1.187  0.5498  0.5778 -0.6414
   56MOL   C55043560   7.001   7.992   1.302 -0.5530 -0.3850 -0.1251
   56MOL   C55143561   6.877   0.014   1.369  0.1447 -0.3005  0.5182
   56MOL   O55243562   6.849   7.996   1.498 -0.1630 -0.1001  0.4164
   56MOL   C55343563   6.988   7.845   1.258 -0.7012  0.0428  0.1260
   56MOL   C55443564   7.112   7.788   1.182  0.3745 -0.7447  0.2118
   56MOL   C55543565   7.164   7.882   1.071 -0.4658  0.1879 -0.1701
   56MOL   C55643566   7.294   7.820   1.014 -0.5155 -0.1469 -0.4971
   56MOL   O55743567   7.256   7.729   0.908 -0.1914  0.1093  0.0877
   56MOL   C55843568   7.290   7.604   0.921  0.5699  1.0452  0.2919
   56MOL   O55943569   7.338   7.560   1.027  0.4298 -0.2226  0.3931
   56MOL   C56043570   7.247   7.524   0.797  1.3391 -0.1193 -0.8852
   56MOL   C56143571   7.257   7.382   0.813  0.3129 -0.3291 -0.1413
   56MOL   C56243572   7.240   7.304   0.698  0.4025 -0.0206 -0.3649
   56MOL   C56343573   7.201   7.362   0.577  0.6952  0.3518  0.0426
   56MOL   C56443574   7.158   7.280   0.461 -0.1373  0.2792  0.7541
   56MOL   O56543575   7.130   7.325   0.348  0.4825  0.5932  0.0236
   56MOL   O56643576   7.146   7.146   0.486 -0.7224 -0.4972  0.1817
   56MOL   C56743577   7.184   7.498   0.564 -0.0197  0.4387  0.1915
   56MOL   C56843578   7.202   7.581   0.678  0.0417 -0.1849  0.0935
   56MOL   H56943579   7.236   0.061   1.057 -0.6667  0.1041 -1.2752
   56MOL   H57043580   7.265   8.020   1.205 -1.0671  1.2589  0.6319
   56MOL   H57143581   7.082   0.145   1.232 -0.3557  0.8462 -0.7929
   56MOL   H57243582   6.984   0.061   1.112 -2.0463 -4.0563  0.9880
   56MOL   H57343583   7.075   7.989   1.382  0.5792  2.9797 -0.9639
   56MOL   H57443584   6.894   0.121   1.379  0.9435 -0.4432  0.7790
   56MOL   H57543585   6.787   8.034   1.310  1.0992 -0.7324 -0.8639
   56MOL   H57643586   6.960   7.787   1.345  0.1479  0.7644  0.8883
   56MOL   H57743587   6.913   7.850   1.179 -0.1127 -0.8226 -0.4946
   56MOL   H57843588   7.088   7.699   1.123  3.4642 -1.2830 -0.3317
   56MOL   H57943589   7.189   7.749   1.249 -1.1100  1.7110  3.5046
   56MOL   H58043590   7.085   7.884   0.996 -0.4777  1.9145 -0.1340
   56MOL   H58143591   7.345   7.905   0.969  2.5386 -0.8047  1.5835
   56MOL   H58243592   7.354   7.781   1.096 -2.2166 -1.5075  0.1263
   56MOL   H58343593   7.266   7.338   0.911 -1.9341  2.1308  1.2169
   56MOL   H58443594   7.249   7.197   0.702 -1.0919 -0.1473  0.2523
   56MOL   H58543595   7.163   7.547   0.470  2.0434  0.6228 -0.1799
   56MOL   H58643596   7.201   7.687   0.661 -1.3094 -0.2573 -0.2759
   56MOL   C58743597   6.796   6.735   0.540 -0.8177  0.0855  0.3516
   56MOL   C58843598   6.818   6.864   0.463 -0.2626 -0.7016  0.3850
   56MOL   C58943599   6.971   6.902   0.452  0.3529 -0.2635  1.1735
   56MOL   C59043600   6.985   7.028   0.368  0.3658 -0.3467  0.4037
   56MOL   O59143601   7.118   7.057   0.365 -0.6038 -0.6501 -0.8716
   56MOL   C59243602   7.044   6.895   0.587 -0.2972 -0.3159  0.6100
   56MOL   C59343603   7.020   6.767   0.665 -0.2898 -1.1330  0.3757
   56MOL   C59443604   6.868   6.742   0.681 -0.1396  0.6277 -0.2052
   56MOL   C59543605   6.828   6.621   0.758  0.6875  0.2774 -0.3172
   56MOL   O59643606   6.856   6.498   0.699  0.4573 -0.1657  0.4297
   56MOL   C59743607   6.850   6.383   0.778  0.3571 -0.3180 -0.5498
   56MOL   O59843608   6.840   6.384   0.902 -1.0699  0.1515  0.2289
   56MOL   C59943609   6.858   6.253   0.702 -0.4442 -0.9938 -0.3216
   56MOL   C60043610   6.879   6.131   0.770 -0.6565  0.9378 -0.1857
   56MOL   C60143611   6.867   6.005   0.704  0.4819  0.5654 -0.5956
   56MOL   C60243612   6.832   6.002   0.567  0.0042  0.0913  0.2767
   56MOL   C60343613   6.832   5.876   0.490  0.0325 -0.4178 -0.6871
   56MOL   O60443614   6.793   5.865   0.376  0.1553  0.9690 -0.0454
   56MOL   O60543615   6.875   5.767   0.571  0.0340 -0.0177 -0.4908
   56MOL   C60643616   6.804   6.120   0.500  0.2432  0.0010 -0.4524
   56MOL   C60743617   6.830   6.244   0.563  0.3983  0.1261  0.2334
   56MOL   H60843618   6.688   6.718   0.548 -1.0005  1.9855  2.4235
   56MOL   H60943619   6.845   6.653   0.489 -1.5250 -0.1931  0.1185
   56MOL   H61043620   6.783   6.847   0.361 -0.0116  1.5736 -0.1173
   56MOL   H61143621   6.757   6.951   0.491  2.3496  2.0749 -2.1576
   56MOL   H61243622   7.015   6.820   0.395 -0.5040  0.0798 -0.0015
   56MOL   H61343623   6.969   7.013   0.261  1.8931  1.3020 -0.0843
   56MOL   H61443624   6.927   7.112   0.405 -1.9404  0.0807 -3.9062
   56MOL   H61543625   7.151   6.909   0.568 -0.5910 -0.6573 -1.3928
   56MOL   H61643626   7.012   6.986   0.638 -0.2691  0.0502 -0.0224
   56MOL   H61743627   7.063   6.770   0.765 -1.7842 -1.8180  1.0589
   56MOL   H61843628   7.061   6.678   0.617 -0.9819 -1.6482  0.7152
   56MOL   H61943629   6.827   6.826   0.737 -0.1331  0.5602 -0.0997
   56MOL   H62043630   6.892   6.629   0.846  2.1726  0.0013 -1.3553
   56MOL   H62143631   6.727   6.628   0.797 -0.5771 -1.0042 -3.2543
   56MOL   H62243632   6.908   6.132   0.874  0.1686 -1.1941 -0.3724
   56MOL   H62343633   6.884   5.914   0.760 -0.3069  0.1591 -1.0149
   56MOL   H62443634   6.757   6.111   0.402 -0.0117 -2.7084 -0.1064
   56MOL   H62543635   6.807   6.331   0.503 -0.0118  0.0709  0.3084
   56MOL   C62643636   6.856   5.300   0.258  0.0419 -0.4897  0.4788
   56MOL   C62743637   6.878   5.393   0.376  0.8145  0.7106 -0.2144
   56MOL   C62843638   6.744   5.457   0.429 -0.7549  0.9822 -1.3440
   56MOL   C62943639   6.780   5.557   0.536  0.1997 -0.3346  0.6354
   56MOL   O63043640   6.877   5.643   0.490 -0.5260 -0.4284  0.7974
   56MOL   C63143641   6.673   5.536   0.310 -0.9519  1.0772 -0.2323
   56MOL   C63243642   6.658   5.438   0.193 -0.1029 -0.2257 -0.4780
   56MOL   C63343643   6.785   5.375   0.144  1.0128  0.2207  0.3206
   56MOL   C63443644   6.739   5.282   0.030 -0.0570 -0.5420  0.0219
   56MOL   O63543645   6.864   5.223   8.019 -0.3842 -0.1794 -0.2707
   56MOL   C63643646   6.917   5.245   7.898 -0.3202 -1.0788 -0.7059
   56MOL   O63743647   6.878   5.338   7.826 -0.1876  0.1093  0.8043
   56MOL   C63843648   7.036   5.160   7.862 -0.3920  0.2567 -0.3081
   56MOL   C63943649   7.090   5.055   7.938  0.4634 -0.2262 -0.6850
   56MOL   C64043650   7.211   4.991   7.905  0.1887 -0.3204 -0.0157
   56MOL   C64143651   7.267   5.014   7.780  0.0626  0.1279 -0.1034
   56MOL   C64243652   7.390   4.944   7.732  0.2081 -0.5279 -0.2335
   56MOL   O64343653   7.458   4.982   7.638  0.1683  0.2611 -0.2484
   56MOL   O64443654   7.424   4.834   7.804  0.2271  0.7089 -0.4576
   56MOL   C64543655   7.219   5.120   7.709 -1.1091  0.5571  0.4289
   56MOL   C64643656   7.106   5.197   7.746 -0.0127 -0.5621 -0.1951
   56MOL   H64743657   6.953   5.258   0.230  0.1016  1.7045 -2.8872
   56MOL   H64843658   6.792   5.216   0.287 -0.5316 -0.2179 -0.0047
   56MOL   H64943659   6.930   5.345   0.458  1.9715  0.6610 -0.9659
   56MOL   H65043660   6.947   5.470   0.341 -0.1985  2.4902  1.5820
   56MOL   H65143661   6.682   5.378   0.471  0.2576  0.7358 -0.2964
   56MOL   H65243662   6.690   5.611   0.565 -2.9519 -3.6964 -2.3838
   56MOL   H65343663   6.814   5.514   0.630 -0.0872  0.8289  1.2905
   56MOL   H65443664   6.571   5.563   0.339 -0.3894  0.1674  2.8337
   56MOL   H65543665   6.731   5.620   0.272 -0.7336  0.0460 -2.2372
   56MOL   H65643666   6.597   5.483   0.114 -0.0770 -0.6419 -0.7388
   56MOL   H65743667   6.591   5.360   0.228  1.0335 -0.5094  1.0806
   56MOL   H65843668   6.838   5.458   0.098 -1.4448  2.0317  0.6551
   56MOL   H65943669   6.675   5.210   0.079  0.2290  0.7640  2.4104
   56MOL   H66043670   6.684   5.328   7.983  1.1869  0.4219 -0.2995
   56MOL   H66143671   7.050   5.034   0.001  0.5027  1.3211 -0.3269
   56MOL   H66243672   7.259   4.933   7.981 -0.4160  0.5905  1.0841
   56MOL   H66343673   7.272   5.142   7.617  0.6315  0.6585  1.4338
   56MOL   H66443674   7.079   5.288   7.695  0.0712 -0.2380  0.3297
   56MOL   C66543675   7.825   4.440   7.615 -0.3475  0.3798  0.3879
   56MOL   C66643676   7.713   4.510   7.692 -0.6472  0.0726  0.5970
   56MOL   C66743677   7.633   4.595   7.587  0.4893  0.0162  0.6393
   56MOL   C66843678   7.508   4.664   7.645 -0.5063  0.3564 -0.3514
   56MOL   O66943679   7.541   4.761   7.742 -0.5580  0.0293  0.0753
   56MOL   C67043680   7.722   4.686   7.504  0.7566 -0.0279 -0.1396
   56MOL   C67143681   7.847   4.616   7.441 -0.2594  0.2281  0.2730
   56MOL   C67243682   7.916   4.535   7.545 -0.6157 -0.7760  0.6421
   56MOL   C67343683   0.007   4.464   7.491 -0.3332 -0.4245 -0.1866
   56MOL   O67443684   0.092   4.553   7.432  0.4221  0.2255 -0.0650
   56MOL   C67543685   0.168   4.638   7.503 -0.6329  0.8371  0.2313
   56MOL   O67643686   0.178   4.636   7.627  0.0488 -0.0938 -0.1835
   56MOL   C67743687   0.246   4.732   7.419 -0.1057  0.3248  0.1215
   56MOL   C67843688   0.229   4.736   7.274 -0.2600 -0.4356  0.1720
   56MOL   C67943689   0.286   4.840   7.197 -0.7708 -0.4006 -0.2872
   56MOL   C68043690   0.372   4.933   7.260 -0.4668  0.4601  1.0468
   56MOL   C68143691   0.445   5.033   7.168  0.4088  0.1240  0.3529
   56MOL   O68243692   0.555   5.085   7.184  0.1069  0.4357 -0.2528
   56MOL   O68343693   0.363   5.084   7.072  0.3468 -0.2929 -0.4426
   56MOL   C68443694   0.404   4.915   7.400  0.3751 -0.1981 -0.8761
   56MOL   C68543695   0.340   4.823   7.474 -0.1898 -0.2471  0.0322
   56MOL   H68643696   7.884   4.374   7.679  2.5052  0.7936 -1.7580
   56MOL   H68743697   7.789   4.375   7.536  0.5085  0.6163 -0.1955
   56MOL   H68843698   7.634   4.455   7.743 -2.4387  1.2706 -0.7913
   56MOL   H68943699   7.756   4.578   7.765 -1.4887  0.1476  1.0288
   56MOL   H69043700   7.605   4.516   7.517  2.9297  1.1326 -1.7219
   56MOL   H69143701   7.435   4.705   7.574 -1.2234 -0.0673  0.1464
   56MOL   H69243702   7.454   4.594   7.708  0.9804  0.5175  1.1433
   56MOL   H69343703   7.662   4.735   7.427 -0.8690 -1.5529  0.1317
   56MOL   H69443704   7.752   4.771   7.566 -0.3638 -0.9790  1.7409
   56MOL   H69543705   7.910   4.693   7.396  0.6234 -0.2674  0.6419
   56MOL   H69643706   7.820   4.546   7.362  1.0182 -1.4444  1.2778
   56MOL   H69743707   7.950   4.604   7.622  2.5330  0.3628 -1.6355
   56MOL   H69843708   0.057   4.430   7.582  0.4361 -0.6725 -0.7059
   56MOL   H69943709   8.031   4.383   7.420 -0.2037  0.1958 -0.9167
   56MOL   H70043710   0.157   4.676   7.222  0.0492 -0.6286 -0.0339
   56MOL   H70143711   0.270   4.850   7.090 -1.0667  0.7751 -0.1480
   56MOL   H70243712   0.475   4.979   7.451  0.5913  0.3712 -1.8743
   56MOL   H70343713   0.350   4.818   7.581 -0.8289  0.6475  0.1394
   56MOL   C70443714   0.192   5.606   7.046  0.1823 -0.1385 -0.2084
   56MOL   C70543715   0.326   5.527   7.038 -0.2116 -0.0487 -0.1122
   56MOL   C70643716   0.297   5.376   7.038 -0.9373 -0.0389  0.1142
   56MOL   C70743717   0.434   5.311   7.029 -0.6150 -0.2257  0.4855
   56MOL   O70843718   0.424   5.178   6.978  0.3097  0.1772  0.6355
   56MOL   C70943719   0.218   5.343   7.165 -0.3133 -0.0370  0.4243
   56MOL   C71043720   0.087   5.422   7.183 -0.1584 -0.0509  0.5829
   56MOL   C71143721   0.105   5.578   7.167 -0.0276 -0.1734 -0.4656
   56MOL   C71243722   7.995   5.644   7.160  0.4656  0.1908 -0.1709
   56MOL   O71343723   7.927   5.628   7.283  0.1361  0.0392 -0.2788
   56MOL   C71443724   7.926   5.721   7.379  0.3548  0.0144 -0.2093
   56MOL   O71543725   7.961   5.837   7.371  0.7053  0.6938  1.0053
   56MOL   C71643726   7.868   5.667   7.504  0.3211 -0.1181  0.3184
   56MOL   C71743727   7.833   5.749   7.616 -0.5757  0.1787  0.0187
   56MOL   C71843728   7.790   5.697   7.739 -0.2393  0.1013  0.4002
   56MOL   C71943729   7.772   5.556   7.754 -0.4787  0.9613  0.6461
   56MOL   C72043730   7.717   5.505   7.883 -0.1607  0.2748  0.0307
   56MOL   O72143731   7.730   5.566   7.991  0.1656 -0.0186  0.7281
   56MOL   O72243732   7.655   5.391   7.871 -0.2550 -0.2097  0.7871
   56MOL   C72343733   7.815   5.471   7.644 -1.0693  0.0811 -0.7540
   56MOL   C72443734   7.852   5.530   7.519 -0.1192  0.2413 -0.5879
   56MOL   H72543735   0.205   5.712   7.022  0.4671 -0.1067  0.0871
   56MOL   H72643736   0.125   5.567   6.969  0.1605 -2.2849  0.8643
   56MOL   H72743737   0.367   5.548   6.939 -0.2071 -0.6475 -0.2361
   56MOL   H72843738   0.398   5.561   7.112  0.6857  0.4442 -1.1929
   56MOL   H72943739   0.229   5.344   6.960  0.2570  2.7170 -2.1248
   56MOL   H73043740   0.496   5.345   6.945 -0.9563  1.2647  0.8294
   56MOL   H73143741   0.493   5.309   7.121  3.3580 -1.3422 -1.9477
   56MOL   H73243742   0.193   5.237   7.162 -1.2470  0.2043 -0.8061
   56MOL   H73343743   0.274   5.355   7.258  4.6793 -0.4048 -2.3683
   56MOL   H73443744   0.031   5.410   7.276 -1.2889 -0.8280 -0.1923
   56MOL   H73543745   0.017   5.382   7.111  0.1414  0.4343  0.0208
   56MOL   H73643746   0.149   5.609   7.263 -2.4083 -1.8621  1.2277
   56MOL   H73743747   8.008   5.746   7.123 -2.0202  0.5555 -0.1654
   56MOL   H73843748   7.940   5.592   7.082 -0.2759  0.4077  0.2009
   56MOL   H73943749   7.846   5.855   7.601  0.4884 -0.2283 -2.1943
   56MOL   H74043750   7.763   5.764   7.819 -0.7425 -1.5371  1.6464
   56MOL   H74143751   7.800   5.364   7.637  0.7640 -0.2577  0.2600
   56MOL   H74243752   7.875   5.458   7.441 -2.3893  2.3559 -3.2754
   56MOL   C74343753   7.145   5.548   0.145  0.0752 -0.7062 -0.3383
   56MOL   C74443754   7.211   5.465   0.037 -0.2362 -0.0498 -0.1001
   56MOL   C74543755   7.364   5.458   0.055  0.5925  0.3353 -0.9478
   56MOL   C74643756   7.427   5.384   7.961  0.5712  0.1689  0.3239
   56MOL   O74743757   7.571   5.355   7.992 -0.6706 -0.1701  1.0349
   56MOL   C74843758   7.430   5.598   0.079  0.1803 -0.1432 -0.4899
   56MOL   C74943759   7.357   5.671   0.192  0.5578 -0.1525  0.2217
   56MOL   C75043760   7.204   5.694   0.161 -0.5092 -0.1019 -0.0671
   56MOL   C75143761   7.134   5.758   0.282 -0.4693 -0.0994 -0.5166
   56MOL   O75243762   7.164   5.901   0.273 -0.5334 -0.6238 -0.6355
   56MOL   C75343763   7.162   5.979   0.387  0.1510  0.9989 -0.4609
   56MOL   O75443764   7.163   5.934   0.501  0.0581 -0.4074  0.4313
   56MOL   C75543765   7.166   6.122   0.357 -0.1144  0.7838 -0.0358
   56MOL   C75643766   7.192   6.211   0.465 -0.3928  1.0208 -0.3052
   56MOL   C75743767   7.185   6.349   0.447 -0.4130  0.2751  0.7395
   56MOL   C75843768   7.180   6.405   0.319 -0.8046  0.7698 -0.0647
   56MOL   C75943769   7.181   6.554   0.308  0.2031  0.8690  0.2477
   56MOL   O76043770   7.155   6.607   0.205 -0.2256  0.8154 -0.2555
   56MOL   O76143771   7.207   6.623   0.422 -0.1876  0.6287 -0.2650
   56MOL   C76243772   7.147   6.315   0.211 -0.0249 -0.3463  0.1537
   56MOL   C76343773   7.139   6.178   0.231  0.3091  0.0620  0.1064
   56MOL   H76443774   7.037   5.557   0.136 -0.0666 -1.3811  0.5928
   56MOL   H76543775   7.165   5.494   0.238  1.6578 -0.2424 -0.4084
   56MOL   H76643776   7.167   5.365   0.041  0.7284 -0.5411 -1.3835
   56MOL   H76743777   7.202   5.510   7.974  4.0129  1.7760  0.2118
   56MOL   H76843778   7.383   5.393   0.140 -1.1638 -0.1987 -0.9430
   56MOL   H76943779   7.389   5.289   7.925  0.5376  0.4580 -0.4106
   56MOL   H77043780   7.415   5.457   7.881 -2.5219 -1.0706 -0.3887
   56MOL   H77143781   7.534   5.583   0.107 -0.0724 -0.6026  0.2298
   56MOL   H77243782   7.440   5.658   8.025  0.3575  2.3491  1.1507
   56MOL   H77343783   7.407   5.766   0.213 -1.2949  0.8676  0.0749
   56MOL   H77443784   7.358   5.617   0.287 -0.6954 -0.1484  0.2362
   56MOL   H77543785   7.186   5.749   0.068  1.7715 -0.0305 -0.4925
   56MOL   H77643786   7.026   5.749   0.289 -0.5685  1.0900 -0.3516
   56MOL   H77743787   7.181   5.709   0.367  0.6990  2.6024  0.4829
   56MOL   H77843788   7.220   6.160   0.556 -1.1010  1.9984  0.4773
   56MOL   H77943789   7.205   6.413   0.531  1.1021  0.1117  0.5083
   56MOL   H78043790   7.145   6.360   0.112 -0.9370  2.8555  1.5646
   56MOL   H78143791   7.112   6.119   0.145  0.3602 -1.6790  1.2489
   56MOL   H78243792   7.254   6.699   0.391 -0.4868  1.2761  0.8366
   57MOL     C143793   3.207   4.071   4.396  1.0088 -0.4030  0.3901
   57MOL     C243794   3.328   4.021   4.473  0.0440 -0.4496  0.8141
   57MOL     C343795   3.388   3.903   4.411 -0.0037  0.5743  0.3787
   57MOL     C443796   3.517   3.857   4.490  0.1068 -0.1147  0.4388
   57MOL     O543797   3.488   3.788   4.611  0.5451 -0.1313  0.5014
   57MOL     C643798   3.277   3.793   4.398  1.1272  0.4776  0.0052
   57MOL     C743799   3.155   3.837   4.318  0.6326 -1.1348  1.0832
   57MOL     C843800   3.091   3.968   4.373  0.2415  0.5005 -0.5305
   57MOL     C943801   2.975   4.013   4.279 -0.2645 -0.2990  0.0666
   57MOL    O1043802   2.879   3.903   4.268 -0.2454 -0.0387 -0.4063
   57MOL    C1143803   2.751   3.931   4.228  0.4653  0.1187  0.0156
   57MOL    O1243804   2.711   4.043   4.225  0.2343  0.1606 -0.2399
   57MOL    C1343805   2.672   3.804   4.220  0.1968 -1.1999  0.4408
   57MOL    C1443806   2.536   3.823   4.204 -0.3172  0.2916 -0.5461
   57MOL    C1543807   2.440   3.717   4.195 -0.1022 -0.5374 -0.4360
   57MOL    C1643808   2.491   3.589   4.183 -0.2430  0.3617 -0.1925
   57MOL    C1743809   2.396   3.476   4.171  0.0264  0.2347 -0.5564
   57MOL    O1843810   2.283   3.490   4.212  0.6809  0.2360  0.1214
   57MOL    O1943811   2.460   3.360   4.118  0.0621  0.0700 -0.1741
   57MOL    C2043812   2.630   3.568   4.190 -0.4257  0.7455  0.2208
   57MOL    C2143813   2.722   3.675   4.214  0.3703 -1.2113  0.6071
   57MOL    H2243814   3.171   4.169   4.430  2.8415  0.5032 -0.2193
   57MOL    H2343815   3.247   4.087   4.296  1.6366 -0.0675  0.6951
   57MOL    H2443816   3.401   4.100   4.483  0.3586 -0.8171  1.4300
   57MOL    H2543817   3.310   4.000   4.578  1.3712 -2.1624  0.7239
   57MOL    H2643818   3.411   3.938   4.310  0.3402 -0.2077  0.1851
   57MOL    H2743819   3.574   3.779   4.439  0.1495 -0.1383  0.5223
   57MOL    H2843820   3.588   3.937   4.510  0.7550 -0.3503 -0.8290
   57MOL    H2943821   3.317   3.700   4.358 -2.4448 -1.6238  1.0618
   57MOL    H3043822   3.254   3.750   4.495 -2.0712 -1.4814 -1.5312
   57MOL    H3143823   3.084   3.758   4.295 -1.0855  1.1409 -1.7254
   57MOL    H3243824   3.197   3.850   4.219  2.6218 -3.8598  1.4896
   57MOL    H3343825   3.047   3.948   4.470 -1.0906 -0.7487 -1.3716
   57MOL    H3443826   2.916   4.095   4.321 -0.0972  0.1504 -0.5863
   57MOL    H3543827   3.011   4.052   4.184 -0.7101  2.8199  1.1241
   57MOL    H3643828   2.490   3.922   4.205 -0.7133  0.1091 -0.4752
   57MOL    H3743829   2.334   3.734   4.187 -0.1980 -1.7406 -2.2140
   57MOL    H3843830   2.676   3.472   4.172 -0.2039  0.8453  0.2500
   57MOL    H3943831   2.826   3.651   4.227  0.1968 -2.3849 -0.1078
   57MOL    H4043832   3.511   3.696   4.608 -2.6461 -1.0076  1.4755
   57MOL    C4143833   2.601   3.192   3.656 -0.0987 -0.1835  0.3882
   57MOL    C4243834   2.466   3.209   3.721  0.5645  0.5402  0.0058
   57MOL    C4343835   2.478   3.228   3.877 -0.4679  0.0905  0.0910
   57MOL    C4443836   2.342   3.236   3.945  0.8250  0.3202 -0.5463
   57MOL    O4543837   2.365   3.246   4.088  1.0103  0.0975 -0.3404
   57MOL    C4643838   2.558   3.118   3.945  0.2727  0.0129 -0.9615
   57MOL    C4743839   2.690   3.085   3.873  0.0355 -0.3976 -0.4196
   57MOL    C4843840   2.676   3.072   3.719 -0.0992  0.4128  0.0807
   57MOL    C4943841   2.809   3.040   3.656  0.1706  0.1107 -0.4497
   57MOL    O5043842   2.860   2.917   3.705  0.2131  0.1239  0.4332
   57MOL    C5143843   2.980   2.875   3.665 -0.5461 -0.4677 -0.0243
   57MOL    O5243844   3.053   2.939   3.592  0.4461 -0.1243 -0.1346
   57MOL    C5343845   2.998   2.744   3.717  0.8126 -0.3284 -0.5085
   57MOL    C5443846   2.919   2.686   3.824 -0.2630 -0.5260 -0.2768
   57MOL    C5543847   2.939   2.554   3.864 -0.4237  0.4967 -0.0188
   57MOL    C5643848   3.035   2.473   3.800  0.4740  0.0811 -0.3757
   57MOL    C5743849   3.063   2.337   3.850 -0.3585 -0.4244 -0.5086
   57MOL    O5843850   3.149   2.267   3.812  0.4288 -0.0066  0.1879
   57MOL    O5943851   2.984   2.303   3.952  0.1290 -0.1460  0.7065
   57MOL    C6043852   3.108   2.523   3.693 -0.2723  0.0036 -0.4945
   57MOL    C6143853   3.095   2.658   3.660 -0.1266  0.5808  0.3525
   57MOL    H6243854   2.591   3.182   3.548 -0.6285  1.0893  0.3063
   57MOL    H6343855   2.661   3.283   3.669  1.2703 -0.9952 -0.1356
   57MOL    H6443856   2.412   3.291   3.673 -1.7171 -0.8348  0.1448
   57MOL    H6543857   2.402   3.122   3.709 -0.2081  0.7494  2.2594
   57MOL    H6643858   2.526   3.324   3.894 -2.6935  1.2294  0.1075
   57MOL    H6743859   2.294   3.324   3.902  2.3788  0.6750 -1.6484
   57MOL    H6843860   2.273   3.157   3.915 -0.9353  0.9519  1.7618
   57MOL    H6943861   2.574   3.129   4.052 -0.6367  0.9362 -0.9149
   57MOL    H7043862   2.496   3.029   3.952 -2.3941  2.0754  3.2258
   57MOL    H7143863   2.725   2.988   3.909  1.0539  0.9954  2.5285
   57MOL    H7243864   2.764   3.163   3.891  0.0189 -0.5336  0.2707
   57MOL    H7343865   2.608   2.989   3.698  0.4775 -0.0646  0.0901
   57MOL    H7443866   2.785   3.042   3.549 -1.4429 -1.4395 -0.1257
   57MOL    H7543867   2.876   3.120   3.688 -0.8216  1.4263 -1.5919
   57MOL    H7643868   2.853   2.749   3.883  0.5888  0.4893 -0.3952
   57MOL    H7743869   2.889   2.519   3.953  3.6374 -1.5525  1.6021
   57MOL    H7843870   3.166   2.451   3.638  0.3957 -0.1105  0.3495
   57MOL    H7943871   3.157   2.698   3.581 -1.3122  0.2992 -0.7317
   57MOL    C8043872   2.728   1.914   4.208  0.3359 -0.2201  0.2933
   57MOL    C8143873   2.866   1.971   4.155 -0.1762  0.1549 -0.0934
   57MOL    C8243874   2.869   2.124   4.189  0.1112  0.3630 -0.4536
   57MOL    C8343875   3.009   2.179   4.154 -0.0139  0.2198 -0.8632
   57MOL    O8443876   3.033   2.172   4.018  0.4903 -0.4149 -0.3917
   57MOL    C8543877   2.751   2.208   4.130 -0.0097  0.1144 -0.5960
   57MOL    C8643878   2.619   2.139   4.178  0.8713  0.4544 -0.4572
   57MOL    C8743879   2.606   1.991   4.143  0.4118 -0.3290  0.4722
   57MOL    C8843880   2.474   1.941   4.200 -0.4411  0.0646  0.3090
   57MOL    O8943881   2.464   1.806   4.164  0.4945  0.8197 -1.3192
   57MOL    C9043882   2.381   1.764   4.068  0.2603 -0.3578 -0.4154
   57MOL    O9143883   2.319   1.844   3.992 -0.7904  0.1998  0.0212
   57MOL    C9243884   2.357   1.618   4.065 -0.1664  0.0144 -0.4141
   57MOL    C9343885   2.322   1.549   3.948  0.6220  0.7206  0.0912
   57MOL    C9443886   2.326   1.407   3.941  0.5774 -0.1360  0.3435
   57MOL    C9543887   2.367   1.334   4.053  0.0308  0.2489 -0.1510
   57MOL    C9643888   2.390   1.189   4.050 -0.1822 -0.2833  0.5564
   57MOL    O9743889   2.436   1.124   4.150  0.3292 -0.6515  0.0102
   57MOL    O9843890   2.398   1.143   3.922  0.7310  0.3077 -0.2014
   57MOL    C9943891   2.392   1.404   4.175  0.0099 -0.3355 -0.7025
   57MOL   C10043892   2.383   1.545   4.183 -0.2836  0.2500  0.4495
   57MOL   H10143893   2.725   1.810   4.177  0.3481 -0.4565  1.0775
   57MOL   H10243894   2.715   1.922   4.316 -0.7755  0.0280  0.1491
   57MOL   H10343895   2.944   1.915   4.205 -1.0235 -0.3952  0.6321
   57MOL   H10443896   2.871   1.958   4.047 -0.7247  1.3630 -0.2756
   57MOL   H10543897   2.862   2.129   4.298  1.9165 -2.2347 -0.1743
   57MOL   H10643898   3.030   2.279   4.192 -0.5969 -0.0051  0.0777
   57MOL   H10743899   3.090   2.121   4.198 -1.7469 -1.7190 -0.1458
   57MOL   H10843900   2.758   2.311   4.166 -0.3376 -0.7251  2.0222
   57MOL   H10943901   2.747   2.214   4.021 -1.1435  1.5127 -0.4880
   57MOL   H11043902   2.534   2.194   4.137 -0.0059 -0.9262 -0.5582
   57MOL   H11143903   2.622   2.151   4.286  0.9216 -1.7220 -0.1778
   57MOL   H11243904   2.607   1.979   4.035  0.5351  1.6612  0.2385
   57MOL   H11343905   2.486   1.952   4.308  1.8111 -1.0651  0.1822
   57MOL   H11443906   2.387   2.004   4.179  0.1833  1.0931  0.7604
   57MOL   H11543907   2.304   1.611   3.861 -0.0410 -0.9958 -1.0328
   57MOL   H11643908   2.301   1.361   3.847 -0.5799  0.1853  0.4840
   57MOL   H11743909   2.414   1.341   4.261  0.5688  0.1693 -0.4716
   57MOL   H11843910   2.423   1.590   4.273  2.8984 -0.7492 -0.3825
   57MOL   C11943911   2.887   0.770   3.794 -0.3858  0.2352 -0.5535
   57MOL   C12043912   2.812   0.904   3.784 -0.0466 -0.0315 -0.4340
   57MOL   C12143913   2.665   0.888   3.840  0.6497 -0.4820 -0.6623
   57MOL   C12243914   2.588   1.022   3.836  0.3278 -0.0582  0.2798
   57MOL   O12343915   2.462   1.011   3.898 -0.2770 -0.6828 -0.4119
   57MOL   C12443916   2.596   0.779   3.752  0.5804 -0.0014  0.3618
   57MOL   C12543917   2.675   0.647   3.760  0.4897 -0.5688  0.4781
   57MOL   C12643918   2.808   0.669   3.710 -0.0530 -0.0555  0.5202
   57MOL   C12743919   2.890   0.537   3.693 -0.4275 -0.3073  0.5305
   57MOL   O12843920   2.993   0.561   3.600 -0.2032  0.2120  0.0636
   57MOL   C12943921   3.095   0.470   3.597 -0.1425  0.0912 -0.3750
   57MOL   O13043922   3.101   0.361   3.654  0.5391 -0.2716  0.7079
   57MOL   C13143923   3.215   0.525   3.526  0.0152 -0.5227  0.4548
   57MOL   C13243924   3.344   0.467   3.535 -0.0687 -0.8858  0.3534
   57MOL   C13343925   3.448   0.528   3.468 -0.0240 -0.1054  0.3961
   57MOL   C13443926   3.428   0.630   3.372 -0.0679 -0.0042  0.1584
   57MOL   C13543927   3.544   0.679   3.290  0.0095 -0.3784 -0.3183
   57MOL   O13643928   3.664   0.645   3.313 -0.4752  0.2479 -0.4501
   57MOL   O13743929   3.508   0.769   3.191  0.0360 -0.4953 -0.2000
   57MOL   C13843930   3.303   0.682   3.352 -0.3086  0.2597  0.7109
   57MOL   C13943931   3.198   0.634   3.439 -0.5298  0.2693  0.7161
   57MOL   H14043932   2.989   0.784   3.757 -0.2066  0.7548  0.1192
   57MOL   H14143933   2.888   0.735   3.897  0.7740  1.5785 -0.0935
   57MOL   H14243934   2.864   0.990   3.826  0.5470 -0.6152  0.0459
   57MOL   H14343935   2.808   0.935   3.680 -0.3685  2.5971  0.3158
   57MOL   H14443936   2.660   0.855   3.944 -3.6838  1.8021  0.0026
   57MOL   H14543937   2.650   1.089   3.895 -0.0394  0.5637 -0.0415
   57MOL   H14643938   2.576   1.059   3.734  0.8047 -0.1581  0.1862
   57MOL   H14743939   2.498   0.768   3.798  2.1304 -0.7579  3.6928
   57MOL   H14843940   2.581   0.804   3.647  0.0763 -5.3566 -1.0100
   57MOL   H14943941   2.618   0.578   3.698  0.9513 -0.1974 -0.3771
   57MOL   H15043942   2.674   0.610   3.862 -0.7011  0.2323  0.7584
   57MOL   H15143943   2.789   0.703   3.609  0.6515  1.1744  0.7910
   57MOL   H15243944   2.933   0.504   3.788 -4.6205 -1.9749  2.0165
   57MOL   H15343945   2.831   0.452   3.657 -1.3804  0.7667 -0.4921
   57MOL   H15443946   3.353   0.386   3.606 -0.2680 -2.0333 -0.9252
   57MOL   H15543947   3.549   0.491   3.476 -0.2740 -0.5586  1.5530
   57MOL   H15643948   3.282   0.750   3.271  0.8040 -2.1280 -1.6926
   57MOL   H15743949   3.099   0.675   3.423 -0.5539 -0.2456 -0.5121
   57MOL   C15843950   3.486   1.106   2.800 -0.3950  0.2928 -0.0290
   57MOL   C15943951   3.573   0.997   2.872  0.6153 -0.4196  0.4770
   57MOL   C16043952   3.588   1.020   3.022 -0.1629 -0.7204 -0.6011
   57MOL   C16143953   3.676   0.913   3.094  0.3517 -0.6657 -0.2427
   57MOL   O16243954   3.620   0.786   3.088 -0.2093  0.5618 -0.2462
   57MOL   C16343955   3.644   1.161   3.052  0.0168 -0.4359  0.1677
   57MOL   C16443956   3.572   1.275   2.976 -0.1932  0.1532  0.3414
   57MOL   C16543957   3.552   1.251   2.826  0.3426 -0.4846 -0.1372
   57MOL   C16643958   3.464   1.356   2.747 -0.2694 -0.7274 -0.2683
   57MOL   O16743959   3.531   1.477   2.717 -0.6181  0.3765 -0.1778
   57MOL   C16843960   3.528   1.582   2.803 -0.0460 -0.4493  0.2967
   57MOL   O16943961   3.458   1.582   2.903 -0.0737  0.4222 -0.1573
   57MOL   C17043962   3.612   1.699   2.758 -0.5288  0.4068 -0.5102
   57MOL   C17143963   3.685   1.698   2.640  0.5418  0.3449  0.0396
   57MOL   C17243964   3.759   1.814   2.607 -0.0080  0.3118  0.0621
   57MOL   C17343965   3.756   1.931   2.690 -0.7010 -0.1945 -0.2920
   57MOL   C17443966   3.839   2.051   2.642 -0.8833  0.7587 -0.0669
   57MOL   O17543967   3.884   2.073   2.526  0.1228  0.1072 -0.5158
   57MOL   O17643968   3.867   2.130   2.745  0.0206  0.4914  0.0365
   57MOL   C17743969   3.679   1.934   2.803  0.5485 -0.1602  0.5552
   57MOL   C17843970   3.610   1.815   2.842  0.5967  0.4202  0.4114
   57MOL   H17943971   3.495   1.101   2.692  2.1673 -0.8796  0.1895
   57MOL   H18043972   3.380   1.099   2.820  0.1247 -3.5164  1.8817
   57MOL   H18143973   3.516   0.908   2.846  0.2403  0.1221 -0.6260
   57MOL   H18243974   3.674   0.987   2.833  0.4240 -2.0379  0.3700
   57MOL   H18343975   3.491   1.023   3.070 -0.1580 -0.7418 -0.5896
   57MOL   H18443976   3.773   0.903   3.044  0.1995  0.0441 -0.6986
   57MOL   H18543977   3.689   0.939   3.199 -1.7167 -0.4702 -0.0233
   57MOL   H18643978   3.644   1.173   3.161 -0.8226  0.9153  0.0426
   57MOL   H18743979   3.749   1.156   3.025 -0.2571 -2.2293 -0.6123
   57MOL   H18843980   3.613   1.375   2.995 -1.4563  0.4850  1.3791
   57MOL   H18943981   3.474   1.299   3.016 -0.1917  0.4655  0.1573
   57MOL   H19043982   3.649   1.261   2.777  0.8624  0.8114  1.1086
   57MOL   H19143983   3.454   1.329   2.641  0.7120  1.0014 -0.8189
   57MOL   H19243984   3.365   1.366   2.790 -0.6770  0.8138 -1.5306
   57MOL   H19343985   3.684   1.612   2.575  1.4111 -1.1318  1.9011
   57MOL   H19443986   3.812   1.819   2.513 -1.7839 -0.8686 -1.0332
   57MOL   H19543987   3.674   2.024   2.863  0.2240 -0.1332  0.4879
   57MOL   H19643988   3.543   1.812   2.927  0.0720 -0.6064 -0.0224
   57MOL   C19743989   4.252   2.439   2.435  0.3058  0.1038  1.2010
   57MOL   C19843990   4.142   2.354   2.495 -0.1958  0.7726 -0.0157
   57MOL   C19943991   4.082   2.420   2.620 -0.4849  0.2267 -0.1712
   57MOL   C20043992   3.967   2.338   2.685  0.1164  0.5128  0.2352
   57MOL   O20143993   4.001   2.201   2.721  0.7126  0.2538  0.0878
   57MOL   C20243994   4.193   2.455   2.722 -0.3573 -0.0504  0.1705
   57MOL   C20343995   4.306   2.535   2.659 -0.2519 -0.1803 -0.4978
   57MOL   C20443996   4.363   2.459   2.534  0.0676 -0.8299  0.0691
   57MOL   C20543997   4.487   2.530   2.467 -0.3149 -0.3414 -0.4217
   57MOL   O20643998   4.556   2.429   2.394  0.2506  0.2656 -0.4785
   57MOL   C20743999   4.577   2.453   2.267  0.0338  0.3508  0.1959
   57MOL   O20844000   4.527   2.547   2.203  0.4814 -0.0271  0.5349
   57MOL   C20944001   4.657   2.343   2.206  0.4345  0.0980  0.0378
   57MOL   C21044002   4.743   2.263   2.283 -0.1446 -0.0716  0.7761
   57MOL   C21144003   4.827   2.157   2.225  0.3596 -0.2147  0.5945
   57MOL   C21244004   4.811   2.129   2.087  0.2101  0.0136  0.3739
   57MOL   C21344005   4.896   2.023   2.027 -0.5498 -0.5199 -0.7555
   57MOL   O21444006   4.960   1.940   2.092  0.4359  0.0473  0.4119
   57MOL   O21544007   4.885   2.012   1.890  0.0208  0.1333 -0.4702
   57MOL   C21644008   4.716   2.202   2.011  0.8844 -1.0169 -0.4048
   57MOL   C21744009   4.638   2.306   2.071  0.6815  0.3551 -0.4243
   57MOL   H21844010   4.278   2.400   2.337 -1.9698  0.8635  0.2691
   57MOL   H21944011   4.204   2.534   2.414 -0.6306 -0.5220  0.4205
   57MOL   H22044012   4.072   2.324   2.417 -1.6668 -2.2533  2.3550
   57MOL   H22144013   4.181   2.256   2.523 -0.8152  0.2231 -1.0524
   57MOL   H22244014   4.039   2.516   2.591 -1.6494 -0.3752 -0.4431
   57MOL   H22344015   3.933   2.384   2.778  1.8676  0.1310  1.0859
   57MOL   H22444016   3.874   2.352   2.630 -0.9376 -3.1449  0.9633
   57MOL   H22544017   4.149   2.512   2.804 -0.2755 -0.1378  0.2741
   57MOL   H22644018   4.244   2.367   2.761  2.3482 -0.4012 -3.8628
   57MOL   H22744019   4.392   2.550   2.725 -0.0818 -0.8271 -0.5659
   57MOL   H22844020   4.269   2.634   2.634 -0.2212 -0.4620 -1.6967
   57MOL   H22944021   4.405   2.368   2.578 -0.1696 -1.7134 -1.4743
   57MOL   H23044022   4.448   2.617   2.414  1.4874 -0.4539 -1.9912
   57MOL   H23144023   4.552   2.569   2.545 -0.0454 -1.4929 -0.0541
   57MOL   H23244024   4.749   2.283   2.389  0.7636 -1.4744  0.9966
   57MOL   H23344025   4.892   2.098   2.288  2.1001  0.0182 -0.9479
   57MOL   H23444026   4.697   2.171   1.910 -2.2022 -2.6711  0.5999
   57MOL   H23544027   4.570   2.362   2.009  1.0356  1.5571  0.2427
   57MOL   C23644028   5.133   2.177   1.433 -0.5298  0.2354 -0.0869
   57MOL   C23744029   5.139   2.056   1.540 -0.6091 -0.5362  0.2036
   57MOL   C23844030   5.039   2.055   1.655  0.4606  0.2409  0.0889
   57MOL   C23944031   5.078   1.954   1.756  0.0990  0.1730  0.6333
   57MOL   O24044032   4.971   1.901   1.831  0.1710 -0.1361 -0.4712
   57MOL   C24144033   5.023   2.195   1.714  0.0582 -0.5532  0.3217
   57MOL   C24244034   5.007   2.305   1.603 -0.2916  0.6698 -0.0162
   57MOL   C24344035   5.120   2.307   1.504  0.3894 -0.5742  0.2128
   57MOL   C24444036   5.120   2.440   1.425 -0.4457  0.3494  0.7499
   57MOL   O24544037   5.248   2.457   1.366 -0.6665  0.1523 -0.4720
   57MOL   C24644038   5.271   2.464   1.243 -0.7379 -0.4691 -0.5048
   57MOL   O24744039   5.181   2.489   1.161  0.0573  0.0531 -0.1148
   57MOL   C24844040   5.423   2.450   1.203 -0.0700  0.8724  0.1006
   57MOL   C24944041   5.503   2.395   1.298  0.0355  0.2338 -0.3616
   57MOL   C25044042   5.636   2.361   1.271 -0.3906 -0.4466 -0.6450
   57MOL   C25144043   5.695   2.379   1.143 -0.2263 -0.6806  0.1592
   57MOL   C25244044   5.833   2.354   1.112 -0.1004 -1.4000 -0.4611
   57MOL   O25344045   5.888   2.360   1.001 -0.1668  0.2743  0.0400
   57MOL   O25444046   5.903   2.326   1.224  0.2919  0.3313 -0.0015
   57MOL   C25544047   5.616   2.445   1.048  0.0824 -0.1352 -0.1778
   57MOL   C25644048   5.484   2.481   1.074 -0.0101 -0.3400  0.1874
   57MOL   H25744049   5.230   2.170   1.382  0.1104 -1.5964  1.2960
   57MOL   H25844050   5.050   2.160   1.365  0.1986  0.9052 -1.1609
   57MOL   H25944051   5.134   1.957   1.494 -2.3058  1.2588 -3.8151
   57MOL   H26044052   5.237   2.069   1.586 -0.2786  1.0020 -0.8917
   57MOL   H26144053   4.948   2.023   1.605  0.8012 -0.9326  0.2007
   57MOL   H26244054   5.121   1.867   1.705  3.2998  1.8339  0.4077
   57MOL   H26344055   5.156   1.986   1.825  0.1772 -0.9142  1.0602
   57MOL   H26444056   4.938   2.206   1.781  0.6660  0.8839  0.8743
   57MOL   H26544057   5.113   2.214   1.772  1.2401  1.5375 -2.0868
   57MOL   H26644058   5.006   2.399   1.658  0.2471  0.1255  0.9425
   57MOL   H26744059   4.908   2.288   1.560 -1.3315  0.7707  2.2641
   57MOL   H26844060   5.214   2.316   1.559 -0.0552  0.4420  0.8091
   57MOL   H26944061   5.036   2.446   1.356  1.3035  0.0965 -1.4302
   57MOL   H27044062   5.101   2.514   1.503 -2.9211  0.6122 -0.0418
   57MOL   H27144063   5.470   2.368   1.396  1.1377  0.7777  0.1761
   57MOL   H27244064   5.695   2.325   1.354 -0.3647 -0.3303 -0.6141
   57MOL   H27344065   5.675   2.465   0.959 -0.3016  1.5330 -0.0769
   57MOL   H27444066   5.426   2.517   0.990  0.0037  0.4292  0.5093
   57MOL   C27544067   6.233   2.274   1.598  0.1403  0.4056 -0.3992
   57MOL   C27644068   6.221   2.272   1.444  0.5083  0.5207  0.4533
   57MOL   C27744069   6.142   2.402   1.408  0.3681  0.2878 -0.3458
   57MOL   C27844070   6.122   2.409   1.259  0.1441 -0.0196  0.1126
   57MOL   O27944071   6.048   2.299   1.203 -0.7227 -0.2243 -0.4422
   57MOL   C28044072   6.009   2.415   1.477 -0.3521  0.1854  0.1599
   57MOL   C28144073   6.029   2.417   1.628 -0.0368  0.1487  0.5815
   57MOL   C28244074   6.106   2.293   1.679  0.0996  0.9218  0.5569
   57MOL   C28344075   6.137   2.291   1.822  0.5343 -1.3365 -0.1107
   57MOL   O28444076   6.023   2.296   1.909  0.3912 -0.3663  0.2810
   57MOL   C28544077   6.001   2.192   1.993 -0.4794 -0.2531  1.0887
   57MOL   O28644078   6.065   2.091   1.994 -0.3176 -0.0139 -0.2883
   57MOL   C28744079   5.878   2.224   2.077 -0.3015  0.4160 -0.2379
   57MOL   C28844080   5.876   2.162   2.205  0.6680  0.5335 -0.4621
   57MOL   C28944081   5.771   2.188   2.291  0.6431  0.5247  0.4311
   57MOL   C29044082   5.669   2.277   2.261  0.1670 -1.0700 -0.3357
   57MOL   C29144083   5.564   2.309   2.360  0.0424  0.3980  0.4818
   57MOL   O29244084   5.553   2.250   2.468  0.2839  0.3852  0.1336
   57MOL   O29344085   5.478   2.414   2.325 -0.3181 -0.0531 -0.4217
   57MOL   C29444086   5.667   2.340   2.137  0.1349  0.5032 -0.1842
   57MOL   C29544087   5.780   2.320   2.047 -0.0719 -0.1133 -0.0278
   57MOL   H29644088   6.276   2.182   1.639 -0.1761 -0.4095 -1.8894
   57MOL   H29744089   6.310   2.346   1.625  0.8694 -0.7214  0.6237
   57MOL   H29844090   6.320   2.267   1.399  0.4843  0.4014  0.4150
   57MOL   H29944091   6.167   2.180   1.426  0.3056  0.1083  2.9855
   57MOL   H30044092   6.200   2.487   1.445  0.2434  1.1516 -2.1047
   57MOL   H30144093   6.081   2.508   1.238 -0.1078 -0.3419 -0.9343
   57MOL   H30244094   6.216   2.416   1.204 -0.5955  0.1789 -1.1463
   57MOL   H30344095   5.975   2.515   1.453  1.4638  1.1683  1.5557
   57MOL   H30444096   5.940   2.337   1.444 -0.7791  0.5723  0.1363
   57MOL   H30544097   5.938   2.427   1.687  1.0266  0.0212  2.2867
   57MOL   H30644098   6.087   2.505   1.656  0.6677 -0.5021  1.1744
   57MOL   H30744099   6.047   2.204   1.660 -0.3595  1.4361 -0.5161
   57MOL   H30844100   6.207   2.215   1.858  1.5431 -0.2485  0.2246
   57MOL   H30944101   6.186   2.383   1.852  1.8503 -2.3282  0.9006
   57MOL   H31044102   5.938   2.078   2.235 -0.3204  0.2267  0.7521
   57MOL   H31144103   5.765   2.130   2.382  0.9768  0.8002  0.6279
   57MOL   H31244104   5.595   2.410   2.099  0.9429  1.2109 -0.4325
   57MOL   H31344105   5.788   2.379   1.956  0.8018 -0.3792 -0.1299
   57MOL   C31444106   5.000   2.580   2.167 -0.1799 -0.3592 -0.3121
   57MOL   C31544107   5.057   2.519   2.295  0.4181  0.2205 -0.1251
   57MOL   C31644108   5.193   2.468   2.273 -0.0408  0.7456  0.3701
   57MOL   C31744109   5.256   2.426   2.410  0.0576 -0.1622  0.7086
   57MOL   O31844110   5.392   2.467   2.435  0.7448  0.5151 -0.2039
   57MOL   C31944111   5.193   2.352   2.168 -0.1826 -0.2927 -0.0194
   57MOL   C32044112   5.121   2.388   2.039  0.9825  0.0404 -0.7095
   57MOL   C32144113   4.992   2.477   2.055 -0.6221  0.5423 -0.0624
   57MOL   C32244114   4.957   2.549   1.923  0.3236 -0.1066  0.3881
   57MOL   O32344115   4.839   2.630   1.940 -0.0880 -0.4230 -0.1410
   57MOL   C32444116   4.730   2.607   1.864 -0.0482 -0.7050 -0.2129
   57MOL   O32544117   4.706   2.503   1.804  0.4805 -0.0900  0.6675
   57MOL   C32644118   4.637   2.729   1.870  0.2388 -0.2564  0.3407
   57MOL   C32744119   4.648   2.834   1.964 -0.5371 -0.7461 -0.6001
   57MOL   C32844120   4.564   2.942   1.952  0.3665 -0.5037  0.5489
   57MOL   C32944121   4.472   2.958   1.846 -0.2837 -0.1305  0.3539
   57MOL   C33044122   4.379   3.072   1.843  0.0427 -1.0065 -0.4375
   57MOL   O33144123   4.374   3.159   1.935  0.5407  0.0682 -1.0510
   57MOL   O33244124   4.294   3.066   1.748  0.4921 -0.0801  0.5628
   57MOL   C33344125   4.468   2.858   1.743 -0.7802 -0.1285 -0.3586
   57MOL   C33444126   4.551   2.743   1.759 -0.4312  0.3489 -0.1999
   57MOL   H33544127   4.906   2.634   2.179  0.1343  0.0632  0.2842
   57MOL   H33644128   5.069   2.656   2.130 -0.2330  0.4453  1.1751
   57MOL   H33744129   5.066   2.599   2.369  0.1425  0.3339 -0.2142
   57MOL   H33844130   4.994   2.437   2.329  0.3661  0.1905 -0.2925
   57MOL   H33944131   5.249   2.548   2.225  0.1571  0.8198  0.7188
   57MOL   H34044132   5.188   2.462   2.488  2.0158 -0.3948  2.5623
   57MOL   H34144133   5.249   2.319   2.429 -0.0693 -0.4411 -0.9050
   57MOL   H34244134   5.293   2.317   2.144  0.4131 -0.5839  2.8308
   57MOL   H34344135   5.147   2.263   2.210  1.8535 -2.3040 -1.9622
   57MOL   H34444136   5.115   2.308   1.965  1.3697  0.8391 -1.6175
   57MOL   H34544137   5.184   2.457   1.983 -1.9750  1.1808 -2.7544
   57MOL   H34644138   4.909   2.413   2.085 -0.9642  1.1656  0.3217
   57MOL   H34744139   5.039   2.621   1.913  0.5036 -0.3222  0.3259
   57MOL   H34844140   4.955   2.484   1.836  1.8984  1.1396 -0.6161
   57MOL   H34944141   4.719   2.833   2.045 -0.7526  1.3325 -0.3660
   57MOL   H35044142   4.561   3.010   2.036  0.4193 -0.6200  0.6456
   57MOL   H35144143   4.403   2.861   1.657  1.5525  1.9856 -2.1093
   57MOL   H35244144   4.544   2.668   1.681 -1.4118  0.9456 -0.7015
   57MOL   C35344145   3.993   3.502   1.897 -0.2502  0.4067  0.5144
   57MOL   C35444146   4.112   3.416   1.852 -0.3742  0.7805 -0.2425
   57MOL   C35544147   4.096   3.371   1.705  0.3784  0.5375 -0.6385
   57MOL   C35644148   4.196   3.264   1.663  0.2626 -0.0857 -0.4381
   57MOL   O35744149   4.186   3.162   1.759  0.3050  0.5722  1.0014
   57MOL   C35844150   3.955   3.314   1.680 -0.2051 -0.2879  0.3089
   57MOL   C35944151   3.849   3.404   1.728 -0.7184 -0.2279 -0.0571
   57MOL   C36044152   3.864   3.429   1.880 -0.9722 -1.0363 -0.2515
   57MOL   C36144153   3.746   3.511   1.928 -0.5167  0.1068 -0.3573
   57MOL   O36244154   3.625   3.452   1.902  0.8376 -0.1627 -0.3434
   57MOL   C36344155   3.523   3.456   1.992 -0.5823 -0.0061 -0.4634
   57MOL   O36444156   3.518   3.536   2.092 -0.0040  0.2718  0.1674
   57MOL   C36544157   3.415   3.357   1.958 -0.4657  0.0702 -0.3305
   57MOL   C36644158   3.422   3.281   1.837 -0.0641 -0.1093 -0.0709
   57MOL   C36744159   3.315   3.195   1.807  0.4953  0.5083  0.5392
   57MOL   C36844160   3.199   3.185   1.883 -0.1993 -0.2052  0.1358
   57MOL   C36944161   3.078   3.104   1.849  0.4094 -0.2496 -0.6359
   57MOL   O37044162   2.988   3.079   1.929 -0.1798 -0.2465 -0.1960
   57MOL   O37144163   3.083   3.065   1.717  0.0163  0.3161  0.0374
   57MOL   C37244164   3.194   3.253   2.007 -0.1319  0.1508  0.6392
   57MOL   C37344165   3.298   3.345   2.044 -0.3156 -0.4080  0.6376
   57MOL   H37444166   4.014   3.540   1.997 -1.5078  1.8066  0.2610
   57MOL   H37544167   3.992   3.589   1.832  0.7424 -0.7757 -1.1433
   57MOL   H37644168   4.206   3.471   1.855  1.1333 -1.7835  1.9050
   57MOL   H37744169   4.132   3.330   1.915 -0.0495  2.2447  1.7087
   57MOL   H37844170   4.113   3.463   1.650  1.3232 -0.0099 -1.2900
   57MOL   H37944171   4.172   3.227   1.563 -3.0375 -2.0722  0.9765
   57MOL   H38044172   4.295   3.306   1.676 -0.9404  2.5808  0.2870
   57MOL   H38144173   3.948   3.315   1.571  2.3229 -0.6330  0.1149
   57MOL   H38244174   3.934   3.213   1.714 -0.4307  0.0515  1.1744
   57MOL   H38344175   3.756   3.354   1.702 -1.0526  0.5474 -0.3525
   57MOL   H38444176   3.835   3.501   1.679 -2.3694 -1.0487 -1.2662
   57MOL   H38544177   3.876   3.331   1.927  0.2653 -0.9388 -0.3510
   57MOL   H38644178   3.757   3.512   2.036 -1.4788 -0.1001 -0.2570
   57MOL   H38744179   3.756   3.614   1.893 -0.1268 -0.1694 -1.0773
   57MOL   H38844180   3.509   3.281   1.773 -0.3650 -1.2307 -0.4949
   57MOL   H38944181   3.313   3.134   1.718 -2.7255  0.0796  0.8608
   57MOL   H39044182   3.111   3.227   2.070 -0.2905  0.5332  0.5880
   57MOL   H39144183   3.289   3.389   2.142  3.1027  0.9960  0.3680
   57MOL   C39244184   3.218   2.734   1.386  0.0496 -0.4761  0.0579
   57MOL   C39344185   3.102   2.791   1.485 -0.5109  0.1701  0.4230
   57MOL   C39444186   3.143   2.791   1.630  0.2246 -0.2004 -0.6735
   57MOL   C39544187   3.014   2.837   1.706 -0.9337 -0.0629 -0.9421
   57MOL   O39644188   2.974   2.969   1.674 -0.1142 -0.0735  0.0036
   57MOL   C39744189   3.184   2.644   1.671  0.0620 -0.1433 -0.4410
   57MOL   C39844190   3.304   2.600   1.574  0.5236 -0.3474  0.0260
   57MOL   C39944191   3.259   2.583   1.427  0.7305  0.0410  0.0129
   57MOL   C40044192   3.373   2.531   1.344 -0.2139 -0.5585  0.1712
   57MOL   O40144193   3.428   2.405   1.386 -0.4150  0.6489  0.1850
   57MOL   C40244194   3.558   2.402   1.420  0.2967 -0.4688  0.4125
   57MOL   O40344195   3.635   2.502   1.413  0.6259  0.4294 -0.3973
   57MOL   C40444196   3.601   2.266   1.467 -0.2865 -0.7742  0.3705
   57MOL   C40544197   3.709   2.245   1.548 -0.1511  0.1172  0.0119
   57MOL   C40644198   3.750   2.116   1.589 -0.3886  0.6331 -0.3860
   57MOL   C40744199   3.674   2.002   1.560 -1.2368 -0.2352  0.2827
   57MOL   C40844200   3.715   1.864   1.604  0.3030 -0.1668  0.6871
   57MOL   O40944201   3.647   1.758   1.593 -0.3967  0.0910 -0.8093
   57MOL   O41044202   3.833   1.864   1.668 -0.3538  0.0194  0.2097
   57MOL   C41144203   3.552   2.023   1.494  1.2994  0.4567  0.9038
   57MOL   C41244204   3.519   2.153   1.441  0.1465 -0.4514  0.1363
   57MOL   H41344205   3.171   2.732   1.287 -0.6758  0.2061  0.3787
   57MOL   H41444206   3.303   2.800   1.374  0.5876 -1.0944  0.4685
   57MOL   H41544207   3.081   2.891   1.448 -1.7180  0.1176  0.9592
   57MOL   H41644208   3.010   2.735   1.475  0.7512 -1.8728 -0.1002
   57MOL   H41744209   3.222   2.866   1.635  1.3280 -1.2940 -1.6213
   57MOL   H41844210   2.928   2.774   1.687 -1.4585  1.3860 -3.6100
   57MOL   H41944211   3.024   2.837   1.815 -1.1597 -0.0055 -0.9216
   57MOL   H42044212   3.212   2.660   1.775  1.5276 -0.1858 -0.8135
   57MOL   H42144213   3.099   2.576   1.666 -0.5894  0.6658 -0.7015
   57MOL   H42244214   3.329   2.502   1.616  1.1128  0.0178  0.5267
   57MOL   H42344215   3.390   2.666   1.580 -0.2707  1.0835 -3.2360
   57MOL   H42444216   3.168   2.523   1.434  0.8718 -0.1970 -0.2135
   57MOL   H42544217   3.337   2.512   1.243  1.2573  2.9170 -1.1034
   57MOL   H42644218   3.447   2.610   1.331  0.0273 -0.5694  1.4019
   57MOL   H42744219   3.780   2.321   1.579  0.5504 -0.0684 -1.1155
   57MOL   H42844220   3.850   2.112   1.629 -0.4630  0.3696 -0.2215
   57MOL   H42944221   3.495   1.937   1.461  0.9449  0.6452  1.0279
   57MOL   H43044222   3.430   2.166   1.382 -0.0280  0.3313  0.5536
   57MOL   C43144223   4.092   1.644   2.131  0.4622 -0.8419 -0.0988
   57MOL   C43244224   3.997   1.662   2.002 -0.1879  0.4000 -0.2270
   57MOL   C43344225   3.932   1.803   1.991  0.4103 -0.2594 -0.3756
   57MOL   C43444226   3.811   1.802   1.900  0.0737  0.1958  0.1884
   57MOL   O43544227   3.852   1.752   1.768 -0.2998 -0.3431  0.5212
   57MOL   C43644228   3.884   1.872   2.127 -0.6586 -0.0672 -0.1953
   57MOL   C43744229   3.983   1.855   2.239  0.1412  0.5839  0.0412
   57MOL   C43844230   4.025   1.704   2.256  0.1988  0.0129  0.0482
   57MOL   C43944231   4.110   1.692   2.381  0.2376  0.7270 -0.3002
   57MOL   O44044232   4.136   1.554   2.423  0.1158  0.3004 -0.0852
   57MOL   C44144233   4.252   1.484   2.403  0.4733 -0.4096  0.0660
   57MOL   O44244234   4.354   1.526   2.342 -0.3072 -0.6224 -0.1770
   57MOL   C44344235   4.244   1.344   2.455  0.1891  0.4064 -0.6603
   57MOL   C44444236   4.124   1.304   2.522  0.1140  0.6487  0.2891
   57MOL   C44544237   4.113   1.169   2.563  0.0404 -0.5843 -0.0602
   57MOL   C44644238   4.224   1.076   2.549 -0.0810 -0.3095 -0.5101
   57MOL   C44744239   4.216   0.925   2.593  1.0068  0.5089 -0.2699
   57MOL   O44844240   4.310   0.848   2.592 -0.2889  0.1907  0.0531
   57MOL   O44944241   4.086   0.901   2.626 -0.1142 -0.0488  0.6064
   57MOL   C45044242   4.338   1.120   2.477  0.1715  0.0185 -0.0840
   57MOL   C45144243   4.346   1.250   2.427 -0.8280 -0.7931  0.1199
   57MOL   H45244244   4.095   1.536   2.144 -1.1425 -0.6741  1.8852
   57MOL   H45344245   4.192   1.679   2.106  0.5469  0.4806  1.9983
   57MOL   H45444246   4.055   1.649   1.911  0.2712 -0.7883  0.2279
   57MOL   H45544247   3.923   1.582   1.996 -1.2113  1.2846  0.4385
   57MOL   H45644248   3.997   1.871   1.937 -0.5485  0.9798  0.0160
   57MOL   H45744249   3.727   1.743   1.936 -1.4592  3.0561  1.4669
   57MOL   H45844250   3.782   1.906   1.887 -1.4833 -0.6194 -3.5287
   57MOL   H45944251   3.857   1.977   2.116  0.6736  0.1201 -1.9814
   57MOL   H46044252   3.791   1.832   2.167 -0.9112 -1.6220 -2.2123
   57MOL   H46144253   3.944   1.877   2.338 -0.0748 -1.0735  0.3347
   57MOL   H46244254   4.069   1.917   2.212  1.4659 -0.5134  1.6222
   57MOL   H46344255   3.931   1.651   2.274  0.5571 -0.9659 -0.9908
   57MOL   H46444256   4.203   1.750   2.370 -0.3533  1.9733  1.0531
   57MOL   H46544257   4.064   1.745   2.465 -0.4320 -1.4075  0.7010
   57MOL   H46644258   4.044   1.374   2.540  0.2080  0.9528 -0.4555
   57MOL   H46744259   4.019   1.139   2.606 -0.5501  0.0602 -0.8818
   57MOL   H46844260   4.419   1.051   2.456  0.4538  0.1893  0.4498
   57MOL   H46944261   4.427   1.286   2.366 -0.6699 -0.6417  0.4179
   57MOL   C47044262   3.819   0.354   2.616  0.2842  0.2267  0.2569
   57MOL   C47144263   3.909   0.460   2.552 -0.5843  0.4655 -0.2221
   57MOL   C47244264   3.929   0.578   2.646  0.5008 -0.3669  0.3420
   57MOL   C47344265   4.027   0.672   2.590 -0.6173 -0.4042 -0.8861
   57MOL   O47444266   4.063   0.766   2.690  0.1330 -0.3907 -0.3519
   57MOL   C47544267   3.792   0.647   2.685  0.0982 -0.3531  0.0174
   57MOL   C47644268   3.693   0.537   2.735 -0.3969  0.7697 -0.3563
   57MOL   C47744269   3.684   0.416   2.641 -0.0846 -1.3068 -0.0501
   57MOL   C47844270   3.589   0.323   2.714 -0.4330 -0.1546  0.1755
   57MOL   O47944271   3.582   0.213   2.626 -0.3456 -0.5395 -0.0269
   57MOL   C48044272   3.530   0.098   2.667  0.1357  0.2422  0.3172
   57MOL   O48144273   3.497   0.076   2.782 -0.1903 -0.2240  0.1542
   57MOL   C48244274   3.528   8.031   2.556 -0.0534  0.2653 -0.2912
   57MOL   C48344275   3.481   7.900   2.580 -0.4659 -0.1339 -0.2379
   57MOL   C48444276   3.484   7.798   2.484  0.1583  0.3819 -0.2695
   57MOL   C48544277   3.525   7.832   2.356 -0.0041  0.6518 -0.5324
   57MOL   C48644278   3.527   7.729   2.248  0.2479  0.5203  0.3607
   57MOL   O48744279   3.531   7.755   2.126  0.1268 -0.0675 -0.1570
   57MOL   O48844280   3.502   7.598   2.289 -0.2153 -0.0916 -0.1932
   57MOL   C48944281   3.571   7.962   2.328  0.0636  0.2157  0.6831
   57MOL   C49044282   3.567   0.031   2.425  0.1374 -0.1651 -0.6526
   57MOL   H49144283   3.819   0.262   2.557  0.4611  0.9007 -0.8183
   57MOL   H49244284   3.860   0.320   2.710  2.1113  0.8841 -0.2810
   57MOL   H49344285   3.999   0.403   2.531 -1.3169 -0.9665  0.4223
   57MOL   H49444286   3.881   0.485   2.450 -0.3305  0.3660 -0.3139
   57MOL   H49544287   3.965   0.531   2.738  2.0171 -0.3310 -0.2175
   57MOL   H49644288   4.115   0.633   2.539  0.1181  1.7267 -1.2824
   57MOL   H49744289   3.985   0.721   2.502 -1.4323 -0.4264 -0.5137
   57MOL   H49844290   3.804   0.721   2.765 -0.9009 -1.9229  1.6739
   57MOL   H49944291   3.747   0.692   2.597 -1.8717 -0.9307  0.6792
   57MOL   H50044292   3.599   0.592   2.741  0.0737  1.5512 -0.1568
   57MOL   H50144293   3.718   0.503   2.835 -0.5488  1.2567 -0.1541
   57MOL   H50244294   3.641   0.436   2.542  0.9316  1.0759 -0.0396
   57MOL   H50344295   3.632   0.284   2.806 -1.1023  2.9374  1.8755
   57MOL   H50444296   3.486   0.355   2.727 -0.1404  0.6640  0.5330
   57MOL   H50544297   3.451   7.883   2.682 -0.7412  0.8918 -0.1419
   57MOL   H50644298   3.457   7.697   2.508 -0.4601 -0.0152 -2.5083
   57MOL   H50744299   3.594   7.992   2.227  0.2111  1.9642  1.2280
   57MOL   H50844300   3.593   0.129   2.388  0.8662  0.4759  1.4763
   57MOL   C50944301   3.315   7.213   1.894 -0.3853 -0.1694  0.1577
   57MOL   C51044302   3.339   7.280   2.029  0.6072 -0.7787 -0.3879
   57MOL   C51144303   3.267   7.425   2.045 -0.0269 -0.0888  0.5333
   57MOL   C51244304   3.318   7.498   2.173  0.4455 -0.3932 -0.1123
   57MOL   O51344305   3.462   7.509   2.171  0.8748 -0.5151 -0.0808
   57MOL   C51444306   3.284   7.519   1.922  0.4201  0.5142 -0.0571
   57MOL   C51544307   3.250   7.438   1.792 -0.1596 -1.0253 -0.2432
   57MOL   C51644308   3.335   7.312   1.772 -0.2196  0.0033  0.4445
   57MOL   C51744309   3.294   7.248   1.640 -0.5456  0.5457 -0.7256
   57MOL   O51844310   3.310   7.332   1.524 -0.2818 -0.4149 -0.2046
   57MOL   C51944311   3.384   7.291   1.413 -0.0102  0.6765 -0.2155
   57MOL   O52044312   3.434   7.180   1.395  0.2517  0.7813 -0.0691
   57MOL   C52144313   3.394   7.396   1.305  0.2567  0.5794 -0.3252
   57MOL   C52244314   3.312   7.511   1.306 -0.2197  0.3264  0.0729
   57MOL   C52344315   3.336   7.618   1.215 -0.3851  0.0452  0.0341
   57MOL   C52444316   3.431   7.597   1.114 -0.4616 -0.4099  0.0748
   57MOL   C52544317   3.459   7.708   1.021 -0.5389  0.8251 -0.7199
   57MOL   O52644318   3.384   7.806   1.015 -0.0516  0.4572 -0.2742
   57MOL   O52744319   3.571   7.690   0.941  0.3079  0.3477  0.2067
   57MOL   C52844320   3.501   7.473   1.096  0.0718 -0.2991 -0.5955
   57MOL   C52944321   3.477   7.373   1.195  0.3613  0.3277  0.2018
   57MOL   H53044322   3.381   7.127   1.884  0.5607  0.8869 -3.5853
   57MOL   H53144323   3.212   7.176   1.897 -0.3008 -0.2958  1.9490
   57MOL   H53244324   3.314   7.214   2.113 -0.0857  0.5685  0.4816
   57MOL   H53344325   3.447   7.292   2.035  0.3202  2.2584 -0.6462
   57MOL   H53444326   3.162   7.395   2.039  0.0783 -0.2610 -0.6472
   57MOL   H53544327   3.272   7.597   2.177  0.4817 -0.1433 -4.0034
   57MOL   H53644328   3.272   7.451   2.260  0.8465 -1.6041 -0.5413
   57MOL   H53744329   3.213   7.601   1.933 -2.2878 -2.1945  4.0402
   57MOL   H53844330   3.383   7.563   1.919 -0.6135  2.8623 -1.3922
   57MOL   H53944331   3.266   7.510   1.712  1.9565 -0.2386  0.8373
   57MOL   H54044332   3.148   7.401   1.785 -0.1898 -1.0980  0.5763
   57MOL   H54144333   3.438   7.340   1.747 -0.2059 -0.5436 -0.1164
   57MOL   H54244334   3.335   7.148   1.627 -1.2897 -0.1467  1.9756
   57MOL   H54344335   3.188   7.231   1.653 -0.5788  0.5217 -1.0167
   57MOL   H54444336   3.250   7.527   1.393  0.6107 -0.8858  0.9018
   57MOL   H54544337   3.284   7.713   1.217 -0.7767 -0.1568 -0.4433
   57MOL   H54644338   3.566   7.453   1.013 -0.6289 -2.0938 -0.7355
   57MOL   H54744339   3.537   7.283   1.193 -1.4793 -0.9196  0.3268
   57MOL   C54844340   3.500   0.044   0.487  0.1208 -0.0507  0.3492
   57MOL   C54944341   3.477   7.974   0.599 -0.1562 -0.4566 -1.0014
   57MOL   C55044342   3.585   7.867   0.599  0.6683 -0.3743 -0.2245
   57MOL   C55144343   3.563   7.756   0.706  0.5199 -0.1176  0.2899
   57MOL   O55244344   3.587   7.803   0.838 -0.0636 -0.6739 -0.1111
   57MOL   C55344345   3.609   7.804   0.460  0.2971  0.1954  0.0971
   57MOL   C55444346   3.637   7.911   0.358  0.0472  0.0332 -0.2170
   57MOL   C55544347   3.511   8.005   0.355 -0.5359 -0.3652 -0.1630
   57MOL   C55644348   3.541   0.079   0.250 -0.1855 -0.2073  0.1223
   57MOL   O55744349   3.645   0.170   0.279  0.1878  0.1734  0.2719
   57MOL   C55844350   3.766   0.151   0.226  0.3869 -0.1820  0.0015
   57MOL   O55944351   3.787   0.060   0.152 -0.1880 -0.7162  0.1359
   57MOL   C56044352   3.880   0.239   0.283  0.4183 -0.2704 -0.2391
   57MOL   C56144353   3.850   0.343   0.375  0.8591 -0.2796  0.0006
   57MOL   C56244354   3.955   0.415   0.431  0.8520  0.2520  0.0022
   57MOL   C56344355   4.091   0.382   0.405 -0.5841 -0.4665  0.6287
   57MOL   C56444356   4.203   0.457   0.476  1.1144 -0.2356 -0.1934
   57MOL   O56544357   4.180   0.561   0.536 -0.6524 -0.5075 -0.1809
   57MOL   O56644358   4.332   0.403   0.450 -0.6706 -0.1659 -0.4416
   57MOL   C56744359   4.119   0.275   0.312 -0.1230  0.0709 -0.7848
   57MOL   C56844360   4.012   0.210   0.255 -0.4950  0.5017  0.2654
   57MOL   H56944361   3.416   0.114   0.484  0.6358  0.5262 -0.6189
   57MOL   H57044362   3.592   0.098   0.510  0.9572 -1.3075 -0.0306
   57MOL   H57144363   3.476   8.031   0.692  2.0147 -0.0985 -1.1763
   57MOL   H57244364   3.375   7.934   0.590  0.0667 -1.0902 -0.7446
   57MOL   H57344365   3.676   7.918   0.631 -0.1514  0.9691 -0.0166
   57MOL   H57444366   3.460   7.722   0.694  0.4993 -0.5473  1.6294
   57MOL   H57544367   3.636   7.677   0.693 -0.4847 -0.9846 -0.1503
   57MOL   H57644368   3.695   7.738   0.471 -1.4859 -2.4823 -1.2396
   57MOL   H57744369   3.518   7.743   0.453 -1.0442  1.7713  2.9328
   57MOL   H57844370   3.650   7.855   0.264 -0.3686 -1.3942  0.5587
   57MOL   H57944371   3.732   7.957   0.384 -0.7292  2.4094 -1.4196
   57MOL   H58044372   3.415   7.958   0.333 -1.6899  1.1922  1.3577
   57MOL   H58144373   3.549   0.034   0.151 -2.1379  0.1378 -0.2120
   57MOL   H58244374   3.447   0.134   0.251  0.2309  0.6078 -2.1455
   57MOL   H58344375   3.754   0.385   0.400  0.9223 -0.4017  0.4641
   57MOL   H58444376   3.938   0.504   0.490 -1.0461  0.6165 -1.0574
   57MOL   H58544377   4.218   0.234   0.298  0.1418  0.0698  1.0218
   57MOL   H58644378   4.023   0.123   0.193  0.8440  1.0588 -0.2940
   57MOL   C58744379   4.754   0.567   0.138  0.0510  0.0521  0.7827
   57MOL   C58844380   4.655   0.626   0.240 -0.3561  0.3973  0.3135
   57MOL   C58944381   4.622   0.524   0.345  0.3050 -0.5085 -0.7023
   57MOL   C59044382   4.503   0.581   0.438 -0.2730 -0.5904  0.4024
   57MOL   O59144383   4.449   0.485   0.523  0.3218  0.3093  0.5374
   57MOL   C59244384   4.583   0.398   0.274 -0.7730 -0.6865  0.0376
   57MOL   C59344385   4.688   0.334   0.185 -0.0868 -0.7682  0.5643
   57MOL   C59444386   4.718   0.433   0.077 -0.8677 -0.8324  0.2688
   57MOL   C59544387   4.827   0.391   8.003  0.1715  0.5864 -0.0132
   57MOL   O59644388   4.953   0.375   0.041 -0.3188  0.6218  0.7815
   57MOL   C59744389   5.065   0.436   0.004 -0.9908 -0.3696 -0.3854
   57MOL   O59844390   5.093   0.472   7.923 -0.0907  0.1822  0.0838
   57MOL   C59944391   5.153   0.469   0.119 -0.7457  0.2802 -0.1005
   57MOL   C60044392   5.113   0.455   0.251  0.0398  0.3521  0.1367
   57MOL   C60144393   5.189   0.512   0.356 -1.0021  0.0692 -0.5539
   57MOL   C60244394   5.318   0.565   0.330  0.0498 -0.0081  0.6745
   57MOL   C60344395   5.399   0.613   0.447  0.1909 -0.0870 -0.1083
   57MOL   O60444396   5.356   0.609   0.565 -0.2675 -0.2218 -0.4577
   57MOL   O60544397   5.519   0.666   0.416 -0.1289  0.1780 -0.4282
   57MOL   C60644398   5.351   0.584   0.191 -0.8840 -0.9928  0.3046
   57MOL   C60744399   5.273   0.538   0.088  0.0173 -0.3614 -0.0150
   57MOL   H60844400   4.747   0.653   0.071 -1.9483 -0.1035  0.7757
   57MOL   H60944401   4.856   0.577   0.176 -0.4364 -0.8924  2.3729
   57MOL   H61044402   4.689   0.723   0.275 -2.0885  1.9775 -2.2793
   57MOL   H61144403   4.567   0.655   0.183 -0.3600 -0.5037 -0.1517
   57MOL   H61244404   4.716   0.506   0.398 -0.1671 -2.5575 -0.4888
   57MOL   H61344405   4.552   0.654   0.503  1.3169 -1.9649  0.7997
   57MOL   H61444406   4.416   0.625   0.389 -0.2950  1.3593  2.1135
   57MOL   H61544407   4.562   0.328   0.355 -0.8378  0.2076  0.8091
   57MOL   H61644408   4.488   0.407   0.222 -1.0210  0.0469  0.6113
   57MOL   H61744409   4.659   0.246   0.127  1.5094  0.2807 -1.9398
   57MOL   H61844410   4.778   0.311   0.241  1.7762  0.6450 -1.7145
   57MOL   H61944411   4.628   0.450   0.018  0.2057 -0.5681 -1.3085
   57MOL   H62044412   4.802   0.298   7.953  1.6533  0.6300 -0.9024
   57MOL   H62144413   4.836   0.461   7.919 -1.0113  0.8826  0.1069
   57MOL   H62244414   5.015   0.414   0.271  1.3046 -2.4754  0.7348
   57MOL   H62344415   5.157   0.503   0.459 -1.2055 -1.8170 -0.7691
   57MOL   H62444416   5.439   0.638   0.160 -2.3463  0.5140 -1.3663
   57MOL   H62544417   5.302   0.538   8.019 -1.1468  1.3568 -0.3432
   57MOL   C62644418   5.800   1.010   0.831 -0.0964 -0.1632 -0.4269
   57MOL   C62744419   5.762   0.947   0.702  0.0976 -0.1889  0.2968
   57MOL   C62844420   5.613   0.939   0.674  0.3467 -0.3567  0.0062
   57MOL   C62944421   5.562   0.867   0.548  0.6270 -0.9294 -0.1853
   57MOL   O63044422   5.599   0.727   0.534 -0.1424 -0.3469 -0.2200
   57MOL   C63144423   5.542   0.868   0.794  0.4722 -0.1523 -0.6047
   57MOL   C63244424   5.593   0.921   0.934  0.0231  0.9485  0.5028
   57MOL   C63344425   5.748   0.926   0.953 -0.5405 -0.2049  0.7292
   57MOL   C63444426   5.785   0.986   1.089 -0.9813 -0.3184 -0.2098
   57MOL   O63544427   5.926   1.009   1.081  0.2142 -0.0321  0.0248
   57MOL   C63644428   5.977   1.115   1.141 -0.0024 -0.2798 -0.2134
   57MOL   O63744429   5.912   1.192   1.213 -0.1864  0.3848 -0.5670
   57MOL   C63844430   6.124   1.132   1.112  0.2311  0.0629  0.0670
   57MOL   C63944431   6.191   1.079   1.004  0.5837  0.1512 -0.7059
   57MOL   C64044432   6.333   1.076   0.996  0.1392  0.2781  0.4745
   57MOL   C64144433   6.404   1.162   1.075  0.4629  0.1677  0.4580
   57MOL   C64244434   6.552   1.172   1.042  0.3440  0.1003  0.4568
   57MOL   O64344435   6.638   1.225   1.111 -0.4759 -0.1425 -0.1060
   57MOL   O64444436   6.594   1.107   0.935 -0.1633  0.2690 -0.3394
   57MOL   C64544437   6.340   1.238   1.180 -0.2767  0.2799 -0.0542
   57MOL   C64644438   6.201   1.217   1.202  0.3899  0.2228 -0.0164
   57MOL   H64744439   5.908   1.000   0.840  0.0159  1.1047 -0.3704
   57MOL   H64844440   5.768   1.114   0.838  1.4475  0.2412  1.1300
   57MOL   H64944441   5.816   1.008   0.629  0.4791  0.0755  0.7914
   57MOL   H65044442   5.810   0.850   0.697  1.0044  0.2266  0.7075
   57MOL   H65144443   5.564   1.037   0.668  0.8693 -0.0634  0.4836
   57MOL   H65244444   5.453   0.871   0.551  0.4705 -2.3661 -2.6794
   57MOL   H65344445   5.602   0.912   0.457 -0.7061 -0.8189 -0.7226
   57MOL   H65444446   5.436   0.892   0.791  0.8337  1.8966  1.2655
   57MOL   H65544447   5.559   0.761   0.791  0.2512 -0.2079  0.0082
   57MOL   H65644448   5.550   0.856   1.010 -0.9038 -0.6845 -1.3735
   57MOL   H65744449   5.545   1.015   0.963 -1.7896 -0.5508  2.5666
   57MOL   H65844450   5.791   0.826   0.955  0.8696  0.4058  1.5461
   57MOL   H65944451   5.722   1.075   1.081 -0.5692  0.0471  0.5322
   57MOL   H66044452   5.741   0.918   1.162  1.4862 -2.1096 -0.3323
   57MOL   H66144453   6.131   1.016   0.940 -0.6340  0.5764  0.0121
   57MOL   H66244454   6.381   1.017   0.920 -0.0161  0.6988  0.0424
   57MOL   H66344455   6.409   1.298   1.236  0.3042 -2.2383  1.9914
   57MOL   H66444456   6.158   1.261   1.291 -1.8294 -2.2963  0.1997
   57MOL   C66544457   7.159   1.186   1.008 -0.5653 -0.0948 -0.2901
   57MOL   C66644458   7.010   1.206   0.980 -0.3390 -0.6744 -0.8775
   57MOL   C66744459   6.961   1.142   0.856  0.4721 -0.3536 -0.9185
   57MOL   C66844460   6.810   1.166   0.853  0.2508 -0.6959  0.2983
   57MOL   O66944461   6.738   1.070   0.932  0.1398  0.4003 -1.0006
   57MOL   C67044462   7.042   1.205   0.738 -0.9638  0.4764 -0.0540
   57MOL   C67144463   7.190   1.167   0.761  0.4364 -0.0704  0.0620
   57MOL   C67244464   7.246   1.235   0.888  0.5737  0.8210  0.1579
   57MOL   C67344465   7.395   1.217   0.926  0.1010  0.1701 -0.1967
   57MOL   O67444466   7.494   1.259   0.834  0.2046  0.0010 -0.3962
   57MOL   C67544467   7.621   1.285   0.874 -0.5339 -0.4183 -0.3724
   57MOL   O67644468   7.663   1.295   0.988  0.2116 -0.6815 -0.3736
   57MOL   C67744469   7.712   1.299   0.762 -0.7253 -0.1448 -0.0235
   57MOL   C67844470   7.684   1.268   0.627  0.3667  0.1069  0.1178
   57MOL   C67944471   7.780   1.290   0.524  0.4499 -0.1678  0.4923
   57MOL   C68044472   7.914   1.334   0.555  0.3937 -0.5588  0.4091
   57MOL   C68144473   8.013   1.357   0.442 -0.4699  0.3767 -0.0863
   57MOL   O68244474   7.980   1.339   0.324 -0.5774 -0.9221  0.2358
   57MOL   O68344475   0.104   1.381   0.491  0.2585  0.1903  0.4323
   57MOL   C68444476   7.936   1.380   0.686 -0.5851  0.0101  0.3649
   57MOL   C68544477   7.839   1.361   0.786  0.2147  0.2455 -0.5479
   57MOL   H68644478   7.195   1.237   1.098  0.8078  1.3998 -1.6414
   57MOL   H68744479   7.180   1.080   1.026  0.6210  0.4062  1.4131
   57MOL   H68844480   6.946   1.180   1.064  1.6193 -0.8263  0.6260
   57MOL   H68944481   6.998   1.314   0.980  0.4558 -0.5675  1.4954
   57MOL   H69044482   6.979   1.035   0.863 -1.6211 -0.5629  2.2753
   57MOL   H69144483   6.789   1.270   0.877 -2.0322 -1.0668  0.0493
   57MOL   H69244484   6.768   1.154   0.754  2.4748 -0.8514 -0.6586
   57MOL   H69344485   7.008   1.179   0.638  0.3078  0.3481 -0.4610
   57MOL   H69444486   7.022   1.312   0.732 -0.3142  0.7345  1.8622
   57MOL   H69544487   7.256   1.193   0.678  1.3156  1.9375  1.3403
   57MOL   H69644488   7.206   1.060   0.772  0.8672  0.1928  2.3978
   57MOL   H69744489   7.234   1.343   0.875 -2.0026  0.5370  0.0828
   57MOL   H69844490   7.419   1.264   1.021  0.8685  1.1171 -0.8539
   57MOL   H69944491   7.414   1.110   0.937  1.4462  0.5086  0.9375
   57MOL   H70044492   7.592   1.221   0.594  0.4263  0.7078 -0.8997
   57MOL   H70144493   7.763   1.250   0.426  0.6802 -0.1932  0.4630
   57MOL   H70244494   8.023   1.437   0.717 -1.6098  1.6539  0.2552
   57MOL   H70344495   7.877   1.402   0.879 -0.1022 -0.9480  0.1179
   57MOL   C70444496   0.544   1.485   0.125 -0.3095 -0.3284  0.1487
   57MOL   C70544497   0.402   1.444   0.164  0.4198  0.5691  0.4625
   57MOL   C70644498   0.395   1.347   0.281 -0.1727 -0.3661 -0.8687
   57MOL   C70744499   0.253   1.304   0.321  0.0628 -0.1467 -0.1744
   57MOL   O70844500   0.203   1.420   0.388 -0.7256  0.1144  0.2038
   57MOL   C70944501   0.474   1.222   0.252 -0.4210  0.0431 -0.4029
   57MOL   C71044502   0.617   1.257   0.197 -0.5707 -0.5849 -0.0827
   57MOL   C71144503   0.610   1.360   0.080  0.0029  0.1770 -0.3540
   57MOL   C71244504   0.759   1.393   0.035  0.4293  0.7982  0.1908
   57MOL   O71344505   0.764   1.497   7.978 -0.9208  0.0015 -0.5269
   57MOL   C71444506   0.744   1.472   7.851 -0.3108  0.2531  0.3011
   57MOL   O71544507   0.694   1.371   7.805 -0.7024 -0.3313 -0.4076
   57MOL   C71644508   0.779   1.584   7.761  0.8956 -1.2881  0.5857
   57MOL   C71744509   0.833   1.706   7.806 -0.1695 -0.6501 -0.0917
   57MOL   C71844510   0.853   1.815   7.719 -0.4981 -0.1094  0.2453
   57MOL   C71944511   0.833   1.792   7.578 -0.5006  0.1053  0.6459
   57MOL   C72044512   0.870   1.907   7.482 -0.3731 -0.3663 -0.5357
   57MOL   O72144513   0.883   2.025   7.516 -0.4679  0.3471 -0.1830
   57MOL   O72244514   0.888   1.869   7.356 -0.3915 -0.3475  0.6144
   57MOL   C72344515   0.783   1.670   7.529 -0.7483  0.6375  0.4162
   57MOL   C72444516   0.749   1.565   7.620 -0.0976 -0.9165 -0.0267
   57MOL   H72544517   0.543   1.555   0.042 -1.6994 -0.7891 -0.2386
   57MOL   H72644518   0.599   1.529   0.209 -1.0321 -0.0091  0.4607
   57MOL   H72744519   0.355   1.539   0.192 -0.0432 -0.1368  2.1098
   57MOL   H72844520   0.343   1.410   0.079 -1.0121  1.2106  1.1828
   57MOL   H72944521   0.447   1.398   0.362  0.7867 -1.5371 -0.7366
   57MOL   H73044522   0.195   1.283   0.231  1.1958  2.6214 -1.6236
   57MOL   H73144523   0.256   1.221   0.391 -0.1119  3.0679  3.7817
   57MOL   H73244524   0.478   1.176   0.351  0.6994 -1.6027 -1.1892
   57MOL   H73344525   0.411   1.164   0.185  0.3276 -0.5590 -0.5952
   57MOL   H73444526   0.680   1.171   0.175  1.2084  0.5837  0.3720
   57MOL   H73544527   0.672   1.305   0.278 -2.2604  1.6745 -0.2141
   57MOL   H73644528   0.559   1.314   8.031 -1.9380 -1.2686  1.5587
   57MOL   H73744529   0.818   1.415   0.125 -0.2475  1.4998  0.4685
   57MOL   H73844530   0.800   1.306   8.020  3.5746 -0.0529  3.9029
   57MOL   H73944531   0.852   1.719   7.911  0.0629  0.2897 -0.2437
   57MOL   H74044532   0.870   1.913   7.761 -2.0201  0.4436 -0.3974
   57MOL   H74144533   0.771   1.640   7.426 -4.2311 -1.0473  1.2105
   57MOL   H74244534   0.728   1.462   7.596  0.8743 -1.1222 -0.0504
   57MOL   C74344535   1.027   2.316   7.022  0.6354 -0.0428 -0.1437
   57MOL   C74444536   0.968   2.230   7.135 -0.1634 -0.0352  0.2346
   57MOL   C74544537   0.865   2.132   7.085 -0.3030 -0.8399  0.6059
   57MOL   C74644538   0.816   2.031   7.198 -0.5499  0.8385 -0.1549
   57MOL   O74744539   0.933   1.980   7.259 -0.2594  0.5650 -0.2714
   57MOL   C74844540   0.753   2.208   7.017 -0.5614 -0.0850  0.3329
   57MOL   C74944541   0.807   2.303   6.905  0.4746  0.5483  0.1317
   57MOL   C75044542   0.916   2.397   6.956 -0.0004 -0.0009 -0.0032
   57MOL   C75144543   0.973   2.472   6.839  0.9029  0.1542  0.0168
   57MOL   O75244544   0.880   2.562   6.779 -0.1413 -0.2079 -0.2100
   57MOL   C75344545   0.933   2.658   6.706 -0.2141 -0.5990  0.0997
   57MOL   O75444546   1.056   2.671   6.700  0.6229  0.1836 -0.0848
   57MOL   C75544547   0.834   2.752   6.646  0.3027  0.6210 -0.4097
   57MOL   C75644548   0.696   2.736   6.661 -0.0342 -0.2685  0.5266
   57MOL   C75744549   0.610   2.834   6.606 -0.2716  0.5230 -0.2884
   57MOL   C75844550   0.663   2.960   6.560  0.4431  0.0871  0.1879
   57MOL   C75944551   0.569   3.072   6.513  0.3870 -0.1007 -0.7153
   57MOL   O76044552   0.586   3.144   6.416  0.4561 -0.7682  0.0756
   57MOL   O76144553   0.458   3.089   6.593  0.1588  0.2912 -1.0255
   57MOL   C76244554   0.802   2.976   6.555 -0.5291  0.4305 -0.3202
   57MOL   C76344555   0.887   2.870   6.595  0.2265 -0.0478 -0.0195
   57MOL   H76444556   1.096   2.378   7.080 -0.6543  0.6793  0.6589
   57MOL   H76544557   1.076   2.249   6.953  0.4182 -0.6181  0.2608
   57MOL   H76644558   1.047   2.174   7.185  0.1108  0.9757  0.9486
   57MOL   H76744559   0.936   2.300   7.212 -2.6067  0.0771 -0.8367
   57MOL   H76844560   0.913   2.075   7.005  0.5487  0.7103 -0.0164
   57MOL   H76944561   0.758   2.087   7.271  2.7603  0.1628  3.1490
   57MOL   H77044562   0.757   1.955   7.146 -2.3487  2.2278 -0.1769
   57MOL   H77144563   0.693   2.133   6.967  1.8366 -1.4661 -0.5605
   57MOL   H77244564   0.689   2.263   7.086  1.7842  3.1530  0.0726
   57MOL   H77344565   0.722   2.361   6.868  0.7068  2.2495  2.1400
   57MOL   H77444566   0.842   2.240   6.823 -0.8679  0.0234 -0.0487
   57MOL   H77544567   0.882   2.461   7.038  0.0464 -2.3969  1.9380
   57MOL   H77644568   1.063   2.522   6.876  0.4759  0.8745  0.0909
   57MOL   H77744569   1.002   2.395   6.768 -1.3575 -0.2053 -0.5682
   57MOL   H77844570   0.655   2.651   6.713  2.7840 -1.6850  0.5469
   57MOL   H77944571   0.504   2.826   6.623 -0.6129  0.8763 -2.1384
   57MOL   H78044572   0.846   3.070   6.525  2.4341 -0.8186  0.0085
   57MOL   H78144573   0.992   2.896   6.596  0.2350 -0.0243 -0.9622
   57MOL   H78244574   0.439   3.177   6.564  1.3925  0.7359 -0.5593
   58MOL     C144575   4.034   3.404   1.188 -0.2108 -0.1763  0.6190
   58MOL     C244576   3.977   3.544   1.214 -0.1287 -0.0750 -0.6329
   58MOL     C344577   3.865   3.548   1.315  0.0345 -0.3321  0.2991
   58MOL     C444578   3.805   3.690   1.324 -0.3764 -0.5398 -0.3145
   58MOL     O544579   3.724   3.739   1.216 -0.2868 -0.4946 -0.1912
   58MOL     C644580   3.760   3.438   1.287 -0.4535  0.4644 -0.4572
   58MOL     C744581   3.816   3.304   1.261 -0.4974  1.4759  0.6249
   58MOL     C844582   3.927   3.302   1.153 -0.5093  0.3032  0.4401
   58MOL     C944583   3.984   3.161   1.131 -0.0490  0.4744  0.5065
   58MOL    O1044584   3.874   3.068   1.109 -0.1961 -0.6559 -0.2912
   58MOL    C1144585   3.891   2.970   1.013  0.4508  0.3447 -0.8609
   58MOL    O1244586   3.996   2.949   0.952  0.2524  0.6256  0.8693
   58MOL    C1344587   3.774   2.885   0.996  0.1446  0.4476  0.8167
   58MOL    C1444588   3.785   2.764   0.927  0.6442 -0.0186  0.2597
   58MOL    C1544589   3.669   2.684   0.924 -0.8062 -0.4411 -0.3231
   58MOL    C1644590   3.547   2.720   0.984  0.6908  0.6010  0.1002
   58MOL    C1744591   3.426   2.628   0.984 -0.0176 -0.2858 -0.1398
   58MOL    O1844592   3.324   2.651   1.048  0.4461 -0.5294 -0.1298
   58MOL    O1944593   3.454   2.521   0.909  0.4943 -0.0090  0.2156
   58MOL    C2044594   3.540   2.846   1.039 -0.6676 -0.1691 -0.2246
   58MOL    C2144595   3.655   2.929   1.054  0.5650 -0.1657 -0.7978
   58MOL    H2244596   4.110   3.413   1.110 -0.9485  2.9225  0.1860
   58MOL    H2344597   4.084   3.373   1.280 -0.7586 -0.6991  0.7397
   58MOL    H2444598   4.056   3.615   1.236 -0.6584 -0.0021  1.1065
   58MOL    H2544599   3.938   3.574   1.116  0.0110 -0.9608 -0.9607
   58MOL    H2644600   3.907   3.518   1.412  0.1273 -0.3576  0.2506
   58MOL    H2744601   3.738   3.692   1.410 -0.6381  0.3547 -0.5319
   58MOL    H2844602   3.877   3.768   1.349  1.2120 -1.2805 -2.4438
   58MOL    H2944603   3.693   3.429   1.373 -2.0143 -0.9496 -1.7825
   58MOL    H3044604   3.693   3.468   1.206 -2.2644  0.0840  0.8624
   58MOL    H3144605   3.733   3.243   1.224  1.6209 -0.4853 -1.0547
   58MOL    H3244606   3.857   3.257   1.350  0.0786 -0.0743 -0.4343
   58MOL    H3344607   3.873   3.331   1.063 -0.4798  1.8756  0.9212
   58MOL    H3444608   4.036   3.164   1.035 -0.2706 -0.5110  0.3511
   58MOL    H3544609   4.049   3.139   1.216 -1.4989  1.1360  1.7935
   58MOL    H3644610   3.878   2.725   0.888 -1.3831 -2.0802 -2.7468
   58MOL    H3744611   3.683   2.589   0.873  2.2407  0.3755 -1.1682
   58MOL    H3844612   3.452   2.894   1.078  0.4744  1.1948  0.7320
   58MOL    H3944613   3.639   3.016   1.115 -1.1482  0.2709 -1.8361
   58MOL    H4044614   3.664   3.801   1.255 -1.0271 -1.1835 -0.1954
   58MOL    C4144615   3.266   2.057   0.635 -0.0215 -0.3007  0.1102
   58MOL    C4244616   3.250   2.166   0.751  0.2062 -0.3294  0.0315
   58MOL    C4344617   3.277   2.308   0.689  0.5683  0.8308 -0.2629
   58MOL    C4444618   3.260   2.424   0.804  0.3836 -0.6972 -0.3220
   58MOL    O4544619   3.344   2.415   0.916  0.2205 -0.1567  0.4110
   58MOL    C4644620   3.410   2.313   0.615  1.1547  0.2284 -0.0446
   58MOL    C4744621   3.434   2.193   0.514  0.0509 -0.2670  0.0804
   58MOL    C4844622   3.417   2.053   0.584  0.0089  0.0660 -0.0535
   58MOL    C4944623   3.432   1.934   0.487 -1.2333 -0.6837 -0.0408
   58MOL    O5044624   3.566   1.892   0.468 -0.0003  0.6500 -0.2723
   58MOL    C5144625   3.640   1.919   0.357 -0.5077 -0.1667  0.1438
   58MOL    O5244626   3.614   2.001   0.268  0.0042 -0.2117 -0.2004
   58MOL    C5344627   3.765   1.837   0.353  0.4054  0.0897  0.6093
   58MOL    C5444628   3.881   1.874   0.275 -0.3927 -0.4787  0.1357
   58MOL    C5544629   3.993   1.788   0.269  0.5386  0.4688 -0.4817
   58MOL    C5644630   4.000   1.674   0.352  0.2521 -0.1295  0.0359
   58MOL    C5744631   4.126   1.586   0.353 -0.2592  0.1701 -0.7390
   58MOL    O5844632   4.239   1.634   0.346  0.3143 -0.2342  0.4413
   58MOL    O5944633   4.093   1.455   0.342 -0.1184 -0.5207 -0.1667
   58MOL    C6044634   3.895   1.651   0.443  0.5598 -0.3063  0.9268
   58MOL    C6144635   3.775   1.728   0.439 -0.3276 -0.9715  0.4163
   58MOL    H6244636   3.227   1.960   0.666 -3.4005  0.0592 -2.7637
   58MOL    H6344637   3.206   2.074   0.546 -0.8891  0.5182  0.8433
   58MOL    H6444638   3.148   2.157   0.790 -0.3223  0.3149 -1.1731
   58MOL    H6544639   3.312   2.136   0.835  1.8448 -1.4918 -1.5572
   58MOL    H6644640   3.193   2.325   0.621  0.4498  0.7110 -0.1474
   58MOL    H6744641   3.247   2.526   0.767  0.3964 -0.3880  0.5107
   58MOL    H6844642   3.163   2.413   0.851  1.0760  0.0696  1.3222
   58MOL    H6944643   3.424   2.409   0.566  1.6119  0.0847 -0.2036
   58MOL    H7044644   3.491   2.319   0.687 -0.4781  1.9305  1.6901
   58MOL    H7144645   3.534   2.198   0.471 -0.7778 -0.4856 -1.9415
   58MOL    H7244646   3.364   2.200   0.430 -0.6777  0.3214  0.7301
   58MOL    H7344647   3.480   2.036   0.671  1.1714 -1.6213 -1.1966
   58MOL    H7444648   3.372   1.853   0.531 -0.9754 -1.2506 -0.7282
   58MOL    H7544649   3.379   1.939   0.392  0.2692 -0.4253 -0.8761
   58MOL    H7644650   3.875   1.966   0.219 -2.0256 -0.7165 -0.1196
   58MOL    H7744651   4.072   1.811   0.199  0.7488  2.2998  0.3301
   58MOL    H7844652   3.889   1.566   0.510  1.4458  0.0031  1.4064
   58MOL    H7944653   3.691   1.694   0.498 -0.7645 -1.5895 -0.5622
   58MOL    C8044654   4.601   1.490   0.463 -0.1847  0.5375  0.3083
   58MOL    C8144655   4.485   1.432   0.385  0.4348 -0.6309 -0.2680
   58MOL    C8244656   4.374   1.373   0.481 -0.4273 -0.2004 -0.9638
   58MOL    C8344657   4.257   1.304   0.404 -0.6720  0.2401 -0.0867
   58MOL    O8444658   4.207   1.379   0.298  0.3094 -0.3282  0.5606
   58MOL    C8544659   4.447   1.265   0.565  0.3818  0.0734  0.2415
   58MOL    C8644660   4.559   1.326   0.652 -0.3594 -0.1314 -0.6746
   58MOL    C8744661   4.661   1.388   0.561 -0.6054 -0.2967  0.1067
   58MOL    C8844662   4.759   1.466   0.652  0.1549  0.3420  0.1369
   58MOL    O8944663   4.868   1.516   0.579 -0.1117  0.7237 -0.1378
   58MOL    C9044664   4.951   1.601   0.631 -0.6300  0.4718 -0.0957
   58MOL    O9144665   4.942   1.645   0.743 -0.2092 -0.1098 -0.0917
   58MOL    C9244666   5.042   1.670   0.532 -0.0042  0.1128  0.3205
   58MOL    C9344667   5.026   1.651   0.393 -0.3817 -0.4453 -0.2806
   58MOL    C9444668   5.112   1.705   0.305  0.0309  0.8632 -0.3324
   58MOL    C9544669   5.225   1.779   0.353 -0.5076  0.0484  0.2064
   58MOL    C9644670   5.323   1.828   0.247  0.0131 -0.2163  0.2591
   58MOL    O9744671   5.421   1.902   0.273 -0.5427  0.4362  0.3496
   58MOL    O9844672   5.298   1.783   0.128 -0.1698  0.3973  0.1012
   58MOL    C9944673   5.249   1.793   0.492  0.1189  0.3028  0.6475
   58MOL   C10044674   5.158   1.740   0.586  0.6455  0.2351  0.2263
   58MOL   H10144675   4.671   1.524   0.386 -1.2665  0.8843 -0.5372
   58MOL   H10244676   4.557   1.576   0.514 -0.5423  0.4885  0.0855
   58MOL   H10344677   4.442   1.505   0.316 -1.4526 -0.0697  1.4483
   58MOL   H10444678   4.526   1.352   0.323  1.3990  1.1811 -2.0407
   58MOL   H10544679   4.345   1.451   0.551 -3.7565 -0.6237 -1.7722
   58MOL   H10644680   4.296   1.213   0.358 -3.7354 -1.3944  0.4427
   58MOL   H10744681   4.175   1.269   0.466  0.0892 -0.2495  0.6608
   58MOL   H10844682   4.378   1.205   0.624  1.5276 -0.7927  0.7266
   58MOL   H10944683   4.479   1.186   0.497  0.4223 -0.3005  0.6927
   58MOL   H11044684   4.612   1.251   0.712  1.2504  1.6557  0.1763
   58MOL   H11144685   4.520   1.401   0.719  0.5483 -0.2653  0.0026
   58MOL   H11244686   4.709   1.312   0.499  2.2279  3.0885 -2.0023
   58MOL   H11344687   4.705   1.545   0.705  1.2751  1.5109 -0.4424
   58MOL   H11444688   4.794   1.402   0.733 -2.8587 -0.6220  0.7316
   58MOL   H11544689   4.937   1.595   0.371 -0.6683 -0.4165  0.7747
   58MOL   H11644690   5.089   1.695   0.200 -3.0756  1.2827  0.2539
   58MOL   H11744691   5.333   1.854   0.521  0.3763  1.1768 -1.8578
   58MOL   H11844692   5.160   1.757   0.693  0.7709 -1.1241  0.4483
   58MOL   C11944693   5.696   2.100   7.864 -0.0341  0.1842  0.2368
   58MOL   C12044694   5.574   2.047   7.947 -0.6209 -0.3707  0.1106
   58MOL   C12144695   5.493   1.929   7.873 -0.6861 -0.2303 -0.4572
   58MOL   C12244696   5.372   1.882   7.959  0.0146 -0.5532  0.5340
   58MOL   O12344697   5.416   1.809   0.037  0.0472  0.0014 -0.1986
   58MOL   C12444698   5.448   1.982   7.740 -0.8168 -0.1278 -0.5716
   58MOL   C12544699   5.561   2.039   7.655 -0.1707  0.0273  0.5220
   58MOL   C12644700   5.645   2.149   7.725 -0.5000 -0.3892 -0.1462
   58MOL   C12744701   5.755   2.211   7.640 -0.1500 -0.3505 -0.3673
   58MOL   O12844702   5.702   2.272   7.525 -0.2452 -1.0077  0.4309
   58MOL   C12944703   5.749   2.389   7.478  0.2000 -0.4996  0.6129
   58MOL   O13044704   5.841   2.451   7.529 -0.3794 -0.4576  0.1780
   58MOL   C13144705   5.671   2.433   7.359 -0.3712 -0.0835 -0.5734
   58MOL   C13244706   5.559   2.361   7.314 -0.2720 -0.6481 -1.1112
   58MOL   C13344707   5.486   2.410   7.209 -0.5449 -0.7004  0.6466
   58MOL   C13444708   5.515   2.533   7.142 -0.3778 -0.0842 -0.0518
   58MOL   C13544709   5.420   2.579   7.039 -0.6420 -0.7271 -0.4573
   58MOL   O13644710   5.435   2.678   6.967  0.4394 -0.1433  0.0860
   58MOL   O13744711   5.306   2.510   7.032 -0.0292  0.3407 -0.0248
   58MOL   C13844712   5.631   2.603   7.186 -0.3537 -0.6061 -0.3635
   58MOL   C13944713   5.704   2.556   7.298  0.5664  0.2088  0.1145
   58MOL   H14044714   5.743   2.178   7.923  1.3834  2.0241 -3.1783
   58MOL   H14144715   5.769   2.020   7.851  0.8909  0.5045  3.0958
   58MOL   H14244716   5.623   2.012   0.002  0.6236  0.4755 -0.2232
   58MOL   H14344717   5.504   2.127   7.974  0.1757 -0.2792  2.0057
   58MOL   H14444718   5.567   1.853   7.848  0.4503  0.4236  0.8276
   58MOL   H14544719   5.319   1.972   7.992 -2.0432 -0.6966 -2.1826
   58MOL   H14644720   5.299   1.822   7.904 -0.4500  1.3857 -1.0148
   58MOL   H14744721   5.400   1.900   7.687 -0.4851 -0.2117 -0.7452
   58MOL   H14844722   5.378   2.063   7.762 -2.5530 -1.6056 -0.5940
   58MOL   H14944723   5.518   2.073   7.561  3.7572  0.3262 -1.2640
   58MOL   H15044724   5.631   1.960   7.628  0.0381  0.1884  0.5842
   58MOL   H15144725   5.581   2.234   7.749 -0.3698 -0.1635 -0.5865
   58MOL   H15244726   5.810   2.281   7.703  0.3363 -0.7129 -0.3819
   58MOL   H15344727   5.827   2.135   7.609  2.6441  2.6363 -1.5738
   58MOL   H15444728   5.534   2.266   7.360 -0.4668 -0.2518 -0.4010
   58MOL   H15544729   5.401   2.356   7.169 -1.7323  2.0349 -0.6366
   58MOL   H15644730   5.667   2.698   7.148 -1.6805 -1.2599 -3.3744
   58MOL   H15744731   5.789   2.612   7.334  1.4273  0.5248 -2.3468
   58MOL   C15844732   5.063   2.128   6.954  0.0262 -0.8179  0.6230
   58MOL   C15944733   5.158   2.240   6.934  0.0467  0.6741  0.1356
   58MOL   C16044734   5.121   2.342   6.823 -0.0530  0.3428  0.0084
   58MOL   C16144735   5.216   2.471   6.818 -0.8949 -0.1807 -0.0804
   58MOL   O16244736   5.210   2.557   6.927  0.2442 -0.5072  0.3657
   58MOL   C16344737   5.102   2.263   6.690  0.1594  0.2730 -1.0440
   58MOL   C16444738   4.987   2.163   6.713 -0.1608 -0.9077  0.6085
   58MOL   C16544739   5.018   2.058   6.819  0.1770 -0.1571 -0.6570
   58MOL   C16644740   4.900   1.956   6.829 -0.3354  0.3325  0.4232
   58MOL   O16744741   4.957   1.838   6.890  0.2756  0.3923  0.5053
   58MOL   C16844742   4.910   1.797   7.005 -0.0562  0.3382  0.2900
   58MOL   O16944743   4.818   1.857   7.064  0.5929  0.1069  0.5551
   58MOL   C17044744   4.972   1.664   7.040  0.5776  0.0271  0.8199
   58MOL   C17144745   4.923   1.593   7.154 -0.1362 -0.3047  0.1695
   58MOL   C17244746   4.986   1.468   7.194  0.0566  0.9408 -0.4703
   58MOL   C17344747   5.100   1.422   7.128 -0.2732 -0.0134 -0.8152
   58MOL   C17444748   5.175   1.312   7.194 -0.3762  0.3647  0.2072
   58MOL   O17544749   5.130   1.224   7.272 -0.1015 -0.2459 -0.2402
   58MOL   O17644750   5.301   1.305   7.143  0.3695  0.1165  0.1871
   58MOL   C17744751   5.142   1.492   7.012 -0.3836 -0.0094 -0.3153
   58MOL   C17844752   5.087   1.620   6.979 -0.6010  0.3443 -0.2328
   58MOL   H17944753   5.106   2.045   7.009 -0.5638 -0.8091  1.1170
   58MOL   H18044754   4.988   2.182   7.013 -0.9084 -2.7692  1.2629
   58MOL   H18144755   5.155   2.291   7.030  0.5161  0.6082  0.1885
   58MOL   H18244756   5.262   2.206   6.936  0.1654  1.0200 -0.1911
   58MOL   H18344757   5.024   2.386   6.846 -0.5592  0.3005 -1.9670
   58MOL   H18444758   5.318   2.438   6.799 -0.7775  0.1245  0.0090
   58MOL   H18544759   5.188   2.520   6.724 -2.3793 -1.3522 -0.2787
   58MOL   H18644760   5.098   2.327   6.602  2.1788 -1.6150 -2.5798
   58MOL   H18744761   5.198   2.217   6.669  0.4058  0.2507  0.1139
   58MOL   H18844762   4.981   2.114   6.615 -1.7900 -0.2745  0.3909
   58MOL   H18944763   4.900   2.220   6.743 -0.3082 -1.5723  1.4448
   58MOL   H19044764   5.105   1.999   6.791 -0.7433 -1.4389 -0.8879
   58MOL   H19144765   4.811   1.993   6.880  0.3069  1.7956  0.5049
   58MOL   H19244766   4.850   1.932   6.736  0.8085  1.8784 -0.6156
   58MOL   H19344767   4.835   1.628   7.206 -0.6322 -0.9077 -0.2472
   58MOL   H19444768   4.959   1.405   7.277 -1.1421  0.3792 -1.2764
   58MOL   H19544769   5.225   1.450   6.958 -0.8636  0.5462 -1.5221
   58MOL   H19644770   5.130   1.685   6.904 -2.4067 -0.1660 -1.7479
   58MOL   C19744771   5.376   0.973   7.584  0.3112  1.0713 -0.4641
   58MOL   C19844772   5.352   1.080   7.481  0.1299 -0.2493  0.3318
   58MOL   C19944773   5.485   1.114   7.405  0.1122 -0.0392  0.6236
   58MOL   C20044774   5.473   1.224   7.302 -0.0455  0.2985 -0.5660
   58MOL   O20144775   5.377   1.187   7.205  0.7193  0.0067  0.2650
   58MOL   C20244776   5.600   1.156   7.498  0.4961 -0.1507 -0.6780
   58MOL   C20344777   5.616   1.035   7.598  0.2689 -0.5808 -0.2782
   58MOL   C20444778   5.485   1.014   7.680  0.5081  0.1775 -0.0825
   58MOL   C20544779   5.526   0.906   7.785 -0.2711 -0.0811 -0.1675
   58MOL   O20644780   5.431   0.901   7.898 -0.1327 -0.2461  0.2032
   58MOL   C20744781   5.459   0.939   8.028 -0.3077 -0.3823 -0.0121
   58MOL   O20844782   5.572   0.975   0.029  0.1169 -0.6563 -0.5238
   58MOL   C20944783   5.344   0.918   0.092  1.0501  0.0365  0.3408
   58MOL   C21044784   5.374   0.945   0.230 -0.1543  0.4923 -0.3826
   58MOL   C21144785   5.271   0.907   0.323 -0.5909 -0.2269  0.1962
   58MOL   C21244786   5.147   0.857   0.279 -0.2751 -0.4005 -0.2732
   58MOL   C21344787   5.039   0.828   0.380  0.2398  0.7871 -0.4537
   58MOL   O21444788   4.954   0.741   0.359 -0.0273 -0.2189 -0.5219
   58MOL   O21544789   5.062   0.892   0.486  0.1679  0.0667  0.4616
   58MOL   C21644790   5.121   0.828   0.144 -0.4427 -0.6338  0.3248
   58MOL   C21744791   5.221   0.858   0.048  0.2218 -0.8122 -0.1366
   58MOL   H21844792   5.279   0.952   7.630 -0.3431  1.0560 -1.8103
   58MOL   H21944793   5.409   0.884   7.532  1.6618  0.4223  1.4408
   58MOL   H22044794   5.277   1.036   7.415  1.3063 -0.6051 -0.7716
   58MOL   H22144795   5.321   1.172   7.532 -0.0184 -0.0127 -0.1844
   58MOL   H22244796   5.518   1.026   7.348  0.6827  2.4297 -3.0401
   58MOL   H22344797   5.447   1.317   7.354 -0.5386 -0.2155  0.1087
   58MOL   H22444798   5.568   1.232   7.249 -0.6510 -0.9329 -1.8652
   58MOL   H22544799   5.694   1.175   7.446  0.4557  1.4375 -0.2080
   58MOL   H22644800   5.580   1.246   7.555 -0.5731 -0.1625 -1.0255
   58MOL   H22744801   5.701   1.056   7.663 -1.2038  3.1912  0.5811
   58MOL   H22844802   5.643   0.947   7.539 -1.1199  0.1339 -2.0246
   58MOL   H22944803   5.453   1.104   7.733  1.6884 -0.3853  1.6353
   58MOL   H23044804   5.536   0.809   7.737  1.0114  0.2064 -0.4978
   58MOL   H23144805   5.623   0.939   7.824 -0.5961 -1.0287  1.5112
   58MOL   H23244806   5.468   0.989   0.261 -0.2405 -0.0731  0.7163
   58MOL   H23344807   5.287   0.922   0.429 -1.6257 -1.9187  0.5985
   58MOL   H23444808   5.035   0.774   0.107 -0.3021 -0.2788 -0.5406
   58MOL   H23544809   5.188   0.832   7.984 -1.8319 -0.3079  0.3831
   58MOL   C23644810   4.767   0.510   0.724  0.2110  0.5335  0.1386
   58MOL   C23744811   4.870   0.599   0.659 -0.0954  0.7577 -0.0029
   58MOL   C23844812   4.947   0.682   0.758 -1.0613  0.1431  0.4902
   58MOL   C23944813   5.046   0.785   0.698 -0.3620 -0.3297 -0.2411
   58MOL   O24044814   4.980   0.869   0.608  0.0581  0.4499 -0.6255
   58MOL   C24144815   4.846   0.757   0.853  0.5876 -0.2245 -0.1019
   58MOL   C24244816   4.753   0.661   0.928 -0.2011 -0.0776  0.0445
   58MOL   C24344817   4.672   0.584   0.818  0.0296  0.1204  0.4678
   58MOL   C24444818   4.576   0.495   0.898  0.5402  0.0721 -0.1565
   58MOL   O24544819   4.444   0.545   0.881 -0.0206 -0.2084  0.4263
   58MOL   C24644820   4.340   0.462   0.849  0.2786 -0.0829  0.1106
   58MOL   O24744821   4.346   0.343   0.811  0.1392 -0.3682  0.0160
   58MOL   C24844822   4.206   0.529   0.865 -0.5175 -0.1780  0.7857
   58MOL   C24944823   4.096   0.451   0.833  0.0788 -0.2085 -0.4491
   58MOL   C25044824   3.973   0.509   0.832  0.3185 -0.4228 -0.3025
   58MOL   C25144825   3.956   0.646   0.871  0.2425 -0.4336  0.3632
   58MOL   C25244826   3.822   0.712   0.872  0.0464  0.3215 -0.3402
   58MOL   O25344827   3.797   0.821   0.920 -0.2581 -0.5062  0.4048
   58MOL   O25444828   3.723   0.635   0.828  0.0250 -0.2461 -0.2484
   58MOL   C25544829   4.066   0.725   0.916 -0.3800 -0.0392 -0.5102
   58MOL   C25644830   4.194   0.663   0.910 -0.3542  1.0313 -0.4155
   58MOL   H25744831   4.711   0.464   0.643  1.3368  3.0653 -2.1532
   58MOL   H25844832   4.813   0.426   0.775 -0.3138  1.3295  1.9431
   58MOL   H25944833   4.931   0.529   0.602  0.4699 -0.0939  1.6067
   58MOL   H26044834   4.820   0.659   0.583  0.2276  0.9277 -0.0826
   58MOL   H26144835   4.993   0.606   0.821 -0.4661 -1.3329 -1.6585
   58MOL   H26244836   5.097   0.844   0.774 -3.1884  1.7528  0.1407
   58MOL   H26344837   5.127   0.729   0.652 -0.3790 -2.0022  1.7068
   58MOL   H26444838   4.895   0.821   0.926  1.3678  0.7730 -1.4866
   58MOL   H26544839   4.789   0.823   0.789  1.5931 -0.5829 -1.3935
   58MOL   H26644840   4.684   0.724   0.984  1.1725  0.5360  1.0821
   58MOL   H26744841   4.809   0.593   0.992 -1.0672 -0.0587  0.8381
   58MOL   H26844842   4.610   0.656   0.764 -1.0885 -1.8524 -0.9360
   58MOL   H26944843   4.595   0.392   0.869  0.7831  0.3458 -1.0011
   58MOL   H27044844   4.607   0.501   1.002  0.0900  0.4596 -0.0429
   58MOL   H27144845   4.116   0.353   0.793  0.9224  0.4175 -1.5981
   58MOL   H27244846   3.882   0.452   0.815  0.3351 -1.5053  3.0119
   58MOL   H27344847   4.046   0.828   0.939 -1.0813 -0.5970  1.4982
   58MOL   H27444848   4.280   0.723   0.937  0.0823  1.2660 -2.2298
   58MOL   C27544849   3.590   0.663   0.339  0.0537  0.8070 -0.6081
   58MOL   C27644850   3.574   0.765   0.442  0.4093  0.2369 -1.0442
   58MOL   C27744851   3.557   0.690   0.576  0.1419  0.2547  0.1693
   58MOL   C27844852   3.566   0.772   0.700 -0.1477  0.0522  0.4875
   58MOL   O27944853   3.584   0.698   0.825 -0.2352  0.2351  0.2522
   58MOL   C28044854   3.436   0.605   0.578  0.7281  0.0182  0.0171
   58MOL   C28144855   3.432   0.509   0.463  0.1037  0.3806  0.7101
   58MOL   C28244856   3.473   0.564   0.330 -0.0268  1.2282 -0.0305
   58MOL   C28344857   3.503   0.460   0.226 -0.8773  0.0127  0.5038
   58MOL   O28444858   3.438   0.497   0.103 -0.3287 -0.7239 -0.7638
   58MOL   C28544859   3.421   0.401   0.016 -0.8572  0.4120 -0.2168
   58MOL   O28644860   3.478   0.290   0.024  0.5813  0.0568 -0.0450
   58MOL   C28744861   3.313   0.423   7.953  0.3829  0.1722  0.1237
   58MOL   C28844862   3.208   0.514   7.965  0.9112 -0.7687  0.3289
   58MOL   C28944863   3.105   0.508   7.863  0.2342 -0.4569 -0.6251
   58MOL   C29044864   3.114   0.426   7.753  0.2089  0.3768 -0.3775
   58MOL   C29144865   3.013   0.436   7.644 -0.5336  0.3778  0.2098
   58MOL   O29244866   3.009   0.348   7.561 -0.3883 -0.3538 -0.2098
   58MOL   O29344867   2.918   0.532   7.659 -0.0994 -0.2811 -0.8805
   58MOL   C29444868   3.225   0.345   7.743 -0.4726  0.7149 -0.3331
   58MOL   C29544869   3.318   0.333   7.845 -0.2867 -0.1190  0.1185
   58MOL   H29644870   3.598   0.720   0.246 -1.9071  0.8531 -0.7746
   58MOL   H29744871   3.675   0.596   0.351  1.0623  1.6839 -2.6227
   58MOL   H29844872   3.663   0.829   0.441  0.3957  0.2451 -2.4953
   58MOL   H29944873   3.489   0.832   0.430  0.4125  0.2933 -0.7583
   58MOL   H30044874   3.633   0.612   0.586  0.2139  0.2430 -0.4268
   58MOL   H30144875   3.644   0.846   0.680 -1.6496  1.4600 -0.2558
   58MOL   H30244876   3.479   0.838   0.705  0.7246  1.1406  1.8734
   58MOL   H30344877   3.438   0.544   0.668 -0.5438  0.3826  0.2998
   58MOL   H30444878   3.351   0.671   0.595 -0.2267 -0.7271 -1.7363
   58MOL   H30544879   3.331   0.467   0.458 -0.3755  1.5945 -0.3198
   58MOL   H30644880   3.499   0.428   0.491  0.0588  0.6328  1.5633
   58MOL   H30744881   3.386   0.620   0.296 -0.9736 -0.1633  0.0318
   58MOL   H30844882   3.607   0.429   0.216 -0.9489 -0.0270 -0.1176
   58MOL   H30944883   3.453   0.368   0.260  0.2041 -0.8676 -0.2591
   58MOL   H31044884   3.198   0.572   0.020 -0.3955  0.9632 -0.8843
   58MOL   H31144885   3.017   0.568   7.881  0.0515 -1.6097  2.6932
   58MOL   H31244886   3.235   0.277   7.660 -0.8643 -0.0232  0.2203
   58MOL   H31344887   3.398   0.261   7.841  0.6659  1.0334 -2.7414
   58MOL   C31444888   2.306   0.471   7.697  0.3261 -0.3990  0.4269
   58MOL   C31544889   2.443   0.465   7.754  0.0127 -0.3950 -0.1321
   58MOL   C31644890   2.555   0.475   7.645 -0.3330  0.9187  0.9910
   58MOL   C31744891   2.694   0.491   7.703  0.0858 -0.1559 -1.1519
   58MOL   O31844892   2.791   0.509   7.596 -0.1185  0.2078 -0.8077
   58MOL   C31944893   2.546   0.366   7.546  0.2821  0.5604 -0.2999
   58MOL   C32044894   2.407   0.362   7.483  0.4853  0.0249 -0.1700
   58MOL   C32144895   2.295   0.352   7.593 -0.0857 -0.1967 -0.4466
   58MOL   C32244896   2.157   0.344   7.522  0.5505 -0.5132  0.7547
   58MOL   O32344897   2.049   0.354   7.616  0.6270  0.1494  0.3124
   58MOL   C32444898   2.026   0.263   7.706  0.3460  0.2032  0.6473
   58MOL   O32544899   2.111   0.177   7.735 -0.1880  0.2662 -0.1529
   58MOL   C32644900   1.899   0.277   7.784 -0.1225  0.1087 -0.1148
   58MOL   C32744901   1.796   0.362   7.739  0.2396  0.0358 -0.0713
   58MOL   C32844902   1.678   0.383   7.815  0.1852  0.6996  0.5857
   58MOL   C32944903   1.653   0.314   7.929  0.2326  0.8432 -0.1104
   58MOL   C33044904   1.527   0.329   8.011  1.0901  0.5807 -0.2595
   58MOL   O33144905   1.476   0.239   0.039  0.0396 -0.1060 -0.0440
   58MOL   O33244906   1.485   0.458   8.012  0.2195 -0.6425 -0.5152
   58MOL   C33344907   1.745   0.210   7.955 -0.1825  0.3190  0.0078
   58MOL   C33444908   1.868   0.191   7.887 -0.0551 -0.2718 -0.1633
   58MOL   H33544909   2.229   0.468   7.774 -0.0822 -2.6346 -0.0319
   58MOL   H33644910   2.297   0.568   7.649 -1.3633 -1.0153 -0.5754
   58MOL   H33744911   2.453   0.550   7.822  0.5737 -1.2477  0.8537
   58MOL   H33844912   2.450   0.369   7.803  0.2795  1.4024  3.4755
   58MOL   H33944913   2.533   0.560   7.580  0.6350 -0.1356 -0.7488
   58MOL   H34044914   2.690   0.577   7.770 -0.3109 -1.0011 -0.0663
   58MOL   H34144915   2.731   0.404   7.757 -1.0407  0.6462  0.9953
   58MOL   H34244916   2.621   0.371   7.467 -1.3553  0.8554 -1.8793
   58MOL   H34344917   2.545   0.275   7.606  0.6464  0.0728 -1.0255
   58MOL   H34444918   2.391   0.273   7.424  0.9478 -0.6191  0.6706
   58MOL   H34544919   2.406   0.446   7.414  1.0622 -1.2461 -1.7243
   58MOL   H34644920   2.313   0.255   7.639  0.1852  0.5182  0.9748
   58MOL   H34744921   2.141   0.429   7.455  0.9769 -1.4046 -0.5012
   58MOL   H34844922   2.150   0.245   7.477  1.6068 -0.8027  1.2143
   58MOL   H34944923   1.816   0.417   7.649 -1.8712 -0.2958 -0.7802
   58MOL   H35044924   1.611   0.464   7.790  0.5087  0.7060 -0.2745
   58MOL   H35144925   1.729   0.143   0.003  0.1065 -2.0008 -1.7568
   58MOL   H35244926   1.941   0.121   7.925  1.5302  0.3099 -2.0833
   58MOL   C35344927   0.904   0.657   7.995  0.1801  0.0457  0.2616
   58MOL   C35444928   1.018   0.564   7.948  0.3025  0.1752  0.2471
   58MOL   C35544929   1.149   0.588   8.026 -0.8051  0.1909 -0.6289
   58MOL   C35644930   1.252   0.485   7.980  0.4346 -0.3096 -0.2811
   58MOL   O35744931   1.349   0.474   0.044  0.4214  0.5576 -0.6223
   58MOL   C35844932   1.194   0.736   8.016  0.7229 -0.1319 -0.6519
   58MOL   C35944933   1.075   0.826   0.022  0.1832  0.3397 -0.2356
   58MOL   C36044934   0.950   0.800   7.969  0.5790  0.0717 -0.4340
   58MOL   C36144935   0.832   0.900   7.994  0.0942 -0.3874  0.2610
   58MOL   O36244936   0.877   1.024   7.943  0.4652  0.6497 -0.0952
   58MOL   C36344937   0.885   1.055   7.810  0.3511  1.3984  0.7719
   58MOL   O36444938   0.820   0.986   7.729  0.2527 -0.5716 -0.3719
   58MOL   C36544939   0.963   1.167   7.773 -0.1715 -0.5314  0.4025
   58MOL   C36644940   0.959   1.206   7.637  0.5253  1.0276 -0.0088
   58MOL   C36744941   1.027   1.328   7.591 -0.2323 -0.1200  0.0143
   58MOL   C36844942   1.101   1.400   7.685  0.1768 -0.4361  0.6583
   58MOL   C36944943   1.175   1.527   7.646 -0.6095  0.1350  0.7284
   58MOL   O37044944   1.235   1.604   7.727  0.5705  0.7059  0.1381
   58MOL   O37144945   1.171   1.552   7.514  0.2506 -0.3331 -0.2111
   58MOL   C37244946   1.104   1.352   7.818 -0.0273  0.0948  0.1043
   58MOL   C37344947   1.027   1.249   7.863  0.4494 -0.3344  1.0577
   58MOL   H37444948   0.813   0.638   7.939  0.6860 -0.5472 -0.3625
   58MOL   H37544949   0.875   0.629   0.060  1.0801  1.3798  0.9127
   58MOL   H37644950   0.986   0.460   7.958 -0.0045  0.1534 -0.9206
   58MOL   H37744951   1.040   0.574   7.842  1.7827  0.3633  0.5682
   58MOL   H37844952   1.139   0.576   0.098  1.0858  2.3271 -0.1633
   58MOL   H37944953   1.202   0.389   7.992  1.2952 -0.4938  2.1132
   58MOL   H38044954   1.287   0.496   7.877 -0.0270  2.2878 -0.1991
   58MOL   H38144955   1.286   0.750   0.036  0.2681 -0.4805  0.2037
   58MOL   H38244956   1.221   0.769   7.916  1.1543  0.1282 -0.4490
   58MOL   H38344957   1.095   0.929   8.029 -0.5818  0.7721  0.7729
   58MOL   H38444958   1.037   0.828   0.124  0.3214  1.1542 -0.1959
   58MOL   H38544959   0.987   0.808   7.867  3.7770 -1.0911  0.5611
   58MOL   H38644960   0.733   0.875   7.956 -0.1912  2.9429 -1.4197
   58MOL   H38744961   0.815   0.925   0.064 -2.7904  0.7269 -0.4300
   58MOL   H38844962   0.907   1.156   7.556  1.4127  0.1826 -0.0706
   58MOL   H38944963   1.033   1.352   7.486 -1.2269  1.5761  0.3399
   58MOL   H39044964   1.168   1.407   7.887  1.2471  0.2403 -1.1638
   58MOL   H39144965   1.023   1.225   7.968 -1.3174 -0.1442  1.0462
   58MOL   C39244966   1.428   2.000   7.241  0.0305 -1.1319  0.0825
   58MOL   C39344967   1.338   1.888   7.290 -0.1493  0.7632 -0.2921
   58MOL   C39444968   1.302   1.914   7.435 -0.0763  0.5523  0.6339
   58MOL   C39544969   1.207   1.799   7.480 -0.0333  0.3107  0.0731
   58MOL   O39644970   1.263   1.666   7.470 -0.3637 -0.2908 -0.7754
   58MOL   C39744971   1.429   1.919   7.527  0.3497 -0.6825  0.3468
   58MOL   C39844972   1.536   2.025   7.470  0.4359  0.2632  0.0994
   58MOL   C39944973   1.565   2.011   7.319 -0.3399 -0.7159 -0.1545
   58MOL   C40044974   1.653   2.122   7.254  0.4777  0.0799  0.2693
   58MOL   O40144975   1.685   2.076   7.120  0.6472  0.2788 -0.2963
   58MOL   C40244976   1.789   1.984   7.100 -0.3691  0.0483 -0.0054
   58MOL   O40344977   1.865   1.955   7.187 -0.7952 -0.9079 -0.5814
   58MOL   C40444978   1.797   1.918   6.963 -0.1969 -0.2574 -0.1869
   58MOL   C40544979   1.912   1.839   6.935 -0.4292 -0.6322 -0.1349
   58MOL   C40644980   1.921   1.778   6.808 -0.2641 -0.3273  0.2388
   58MOL   C40744981   1.822   1.787   6.710  0.0428 -0.1433 -0.2761
   58MOL   C40844982   1.842   1.712   6.579  0.0639 -0.0788  0.6738
   58MOL   O40944983   1.950   1.660   6.544  0.1273 -0.2272 -0.3234
   58MOL   O41044984   1.725   1.707   6.499  0.0880  0.1423  0.1581
   58MOL   C41144985   1.704   1.859   6.739 -0.0838  0.1765 -0.1820
   58MOL   C41244986   1.692   1.928   6.867 -0.7916  0.2843 -0.1933
   58MOL   H41344987   1.442   1.993   7.134 -0.6127 -0.4874 -0.0511
   58MOL   H41444988   1.377   2.094   7.264  0.3452 -0.5859 -1.4364
   58MOL   H41544989   1.250   1.906   7.228  0.1548  1.0943 -0.6211
   58MOL   H41644990   1.380   1.789   7.271 -2.3078  0.1695 -2.2352
   58MOL   H41744991   1.249   2.009   7.432  0.6990  1.0162  1.5790
   58MOL   H41844992   1.169   1.806   7.582 -1.6548  0.9223 -0.5735
   58MOL   H41944993   1.120   1.810   7.416  0.9491  3.4491 -0.8242
   58MOL   H42044994   1.391   1.956   7.623 -2.8416  0.0613 -1.1405
   58MOL   H42144995   1.472   1.821   7.545  1.2628 -0.0909  1.5222
   58MOL   H42244996   1.631   2.005   7.521 -0.0267  0.9700  1.2667
   58MOL   H42344997   1.500   2.128   7.477  1.1848  0.5406 -0.0547
   58MOL   H42444998   1.617   1.916   7.310  2.7806  0.9359  0.0423
   58MOL   H42544999   1.597   2.214   7.240  1.9682  1.2441  1.7589
   58MOL   H42645000   1.744   2.138   7.311  1.0106 -0.8019 -0.3161
   58MOL   H42745001   1.989   1.816   7.007 -0.4580 -1.2606 -0.3012
   58MOL   H42845002   2.008   1.717   6.786 -1.1539 -1.6429  0.3440
   58MOL   H42945003   1.622   1.851   6.669 -0.6829  0.8355  0.4361
   58MOL   H43045004   1.596   1.967   6.898 -2.6118 -1.7627 -2.9979
   58MOL   C43145005   1.584   1.433   6.004  0.2574  0.1828 -0.1005
   58MOL   C43245006   1.588   1.532   6.117  0.2984 -0.1824 -0.6549
   58MOL   C43345007   1.719   1.616   6.134  0.1001  0.0166  0.6516
   58MOL   C43445008   1.719   1.709   6.262  0.6864  0.4725 -1.1874
   58MOL   O43545009   1.742   1.625   6.383  0.4300 -0.0183  0.1332
   58MOL   C43645010   1.839   1.528   6.139 -0.5794  0.5055  0.4446
   58MOL   C43745011   1.838   1.415   6.026  0.6950  0.1570 -0.0549
   58MOL   C43845012   1.700   1.337   6.016  0.1446 -0.3086  0.0917
   58MOL   C43945013   1.689   1.231   5.918  0.3030  0.0759 -0.0358
   58MOL   O44045014   1.568   1.160   5.912  0.0884  0.2062 -0.0990
   58MOL   C44145015   1.551   1.060   6.004 -0.2527 -0.0890  0.1847
   58MOL   O44245016   1.623   1.057   6.104 -0.7208 -0.7143  0.2108
   58MOL   C44345017   1.462   0.945   5.954  0.0381 -0.2155 -0.4082
   58MOL   C44445018   1.401   0.943   5.822  0.1838  0.0973  0.2892
   58MOL   C44545019   1.311   0.845   5.779  0.3761  1.4587 -0.3792
   58MOL   C44645020   1.264   0.749   5.871  0.2751  1.4491  0.3376
   58MOL   C44745021   1.174   0.643   5.831  0.1722  0.1648 -0.2732
   58MOL   O44845022   1.138   0.566   5.916 -0.2390  0.2898  0.4016
   58MOL   O44945023   1.168   0.616   5.695  0.3541 -0.1615  0.1848
   58MOL   C45045024   1.318   0.749   6.009  0.1847  0.8692 -0.0463
   58MOL   C45145025   1.424   0.837   6.035  0.5164 -0.2759  0.1763
   58MOL   H45245026   1.499   1.366   6.008  1.5161 -1.4578 -0.4324
   58MOL   H45345027   1.575   1.488   5.910 -1.7126  1.4656  0.7873
   58MOL   H45445028   1.500   1.596   6.117 -0.1843 -0.8416 -0.6170
   58MOL   H45545029   1.581   1.470   6.207 -1.6479  0.8871 -0.0339
   58MOL   H45645030   1.721   1.681   6.047 -1.0165 -0.8284 -0.0163
   58MOL   H45745031   1.791   1.790   6.252 -0.0311  0.9860 -2.2075
   58MOL   H45845032   1.622   1.758   6.269  0.0591 -0.8516 -0.2278
   58MOL   H45945033   1.931   1.585   6.126 -2.1359  2.3942 -3.0661
   58MOL   H46045034   1.853   1.475   6.233 -1.1490 -0.2241  0.1317
   58MOL   H46145035   1.927   1.354   6.044  0.5823  0.1137  0.3585
   58MOL   H46245036   1.851   1.464   5.930 -1.7978  0.7710 -0.1162
   58MOL   H46345037   1.697   1.284   6.111  4.4005 -1.3575 -0.2291
   58MOL   H46445038   1.708   1.279   5.821 -2.0899  1.9244  0.3375
   58MOL   H46545039   1.773   1.165   5.937 -0.8129 -0.5895  2.7630
   58MOL   H46645040   1.434   1.008   5.741  0.1658 -1.4776 -1.0091
   58MOL   H46745041   1.281   0.850   5.676 -0.5782 -2.6291 -0.3780
   58MOL   H46845042   1.300   0.685   6.093  3.2258 -1.0582 -0.7833
   58MOL   H46945043   1.456   0.842   6.138 -1.4479 -0.5134  0.8214
   58MOL   C47045044   1.637   0.380   5.677  0.7627  0.2254  1.0205
   58MOL   C47145045   1.512   0.387   5.592  0.0020 -0.6969  0.4852
   58MOL   C47245046   1.392   0.431   5.685 -0.1221  0.2220 -0.2468
   58MOL   C47345047   1.265   0.439   5.593  0.6011  0.1902 -0.0424
   58MOL   O47445048   1.145   0.478   5.656  0.4005 -0.0043 -0.2636
   58MOL   C47545049   1.378   0.332   5.801 -0.1169  0.0506 -0.6866
   58MOL   C47645050   1.508   0.320   5.883 -0.6818  0.2684  0.2433
   58MOL   C47745051   1.629   0.279   5.792  0.7223  0.0566 -0.7025
   58MOL   C47845052   1.763   0.264   5.868  0.3887 -0.0220 -0.3846
   58MOL   O47945053   1.802   0.397   5.906 -0.4413 -0.1215 -0.0914
   58MOL   C48045054   1.926   0.428   5.940  0.0471  0.2355  0.2163
   58MOL   O48145055   2.010   0.337   5.946  0.1476 -0.4622 -0.1528
   58MOL   C48245056   1.957   0.569   5.982  0.2057  0.9579  0.4795
   58MOL   C48345057   1.864   0.673   5.962 -0.0060  0.1572 -0.8595
   58MOL   C48445058   1.894   0.804   5.998  0.9702 -0.0665 -0.2476
   58MOL   C48545059   2.022   0.835   6.048 -0.4368 -0.2927 -0.1173
   58MOL   C48645060   2.057   0.971   6.091 -0.9541 -0.0567 -0.0049
   58MOL   O48745061   1.977   1.069   6.086  0.9030  0.1090  0.0373
   58MOL   O48845062   2.186   0.985   6.130 -0.2447  0.1684 -0.0573
   58MOL   C48945063   2.119   0.730   6.061  0.5179 -0.4923  0.0061
   58MOL   C49045064   2.087   0.598   6.025  0.0418  0.2915  0.2476
   58MOL   H49145065   1.715   0.342   5.611 -0.3441  0.8007 -0.6388
   58MOL   H49245066   1.655   0.484   5.704 -1.6324  0.6121  1.2230
   58MOL   H49345067   1.536   0.457   5.511 -1.4083  1.3987  1.8577
   58MOL   H49445068   1.493   0.290   5.544  0.0969 -0.1499 -0.6853
   58MOL   H49545069   1.411   0.529   5.726  1.9479  0.0518 -0.7597
   58MOL   H49645070   1.290   0.493   5.502 -0.7830 -2.5379 -2.1168
   58MOL   H49745071   1.240   0.336   5.566 -2.2211  0.6800  0.6113
   58MOL   H49845072   1.290   0.341   5.865 -0.3438 -0.1710 -0.9649
   58MOL   H49945073   1.376   0.237   5.748 -1.1544 -0.0388 -0.4984
   58MOL   H50045074   1.485   0.249   5.962  1.8101  1.1139  1.7783
   58MOL   H50145075   1.530   0.413   5.934 -0.0999  0.1709  0.1673
   58MOL   H50245076   1.605   0.181   5.753 -1.4182  0.8074 -1.3092
   58MOL   H50345077   1.742   0.200   5.954 -0.8900  1.7263  0.6393
   58MOL   H50445078   1.841   0.213   5.812  0.8123  0.5264 -0.2940
   58MOL   H50545079   1.764   0.650   5.928 -1.0401  0.9845  1.4925
   58MOL   H50645080   1.820   0.882   5.993  0.9316 -0.1946 -1.8483
   58MOL   H50745081   2.212   0.748   6.114  0.0468 -0.4687  0.8457
   58MOL   H50845082   2.166   0.525   6.041  1.5427  1.8165 -0.1159
   58MOL   C50945083   2.092   1.331   6.628 -0.7459  0.0674  0.8580
   58MOL   C51045084   2.185   1.230   6.552 -0.2289 -0.4710  0.2931
   58MOL   C51145085   2.143   1.226   6.400 -0.3701 -0.4186  0.0646
   58MOL   C51245086   2.222   1.106   6.329 -0.0377 -0.2150 -0.2758
   58MOL   O51345087   2.229   1.123   6.187  0.5297  0.1620 -0.5407
   58MOL   C51445088   1.993   1.204   6.384 -0.7908 -0.4017 -0.7144
   58MOL   C51545089   1.913   1.311   6.455 -0.7733 -0.4809 -0.4643
   58MOL   C51645090   1.944   1.300   6.608 -0.1702 -0.4040 -0.9093
   58MOL   C51745091   1.853   1.388   6.703 -0.1819 -0.4313  0.2734
   58MOL   O51845092   1.859   1.338   6.835 -0.4126 -0.2217 -0.0869
   58MOL   C51945093   1.785   1.241   6.883  0.4341  0.5754  1.0677
   58MOL   O52045094   1.706   1.170   6.814 -0.3534 -0.9349  0.6717
   58MOL   C52145095   1.799   1.220   7.034  0.5512 -0.0221  0.1481
   58MOL   C52245096   1.888   1.300   7.102  0.7413  0.3079  1.3591
   58MOL   C52345097   1.910   1.283   7.237 -0.2658  0.3860  0.1805
   58MOL   C52445098   1.847   1.179   7.311 -0.5081  0.3189 -0.2223
   58MOL   C52545099   1.867   1.170   7.458  0.2643 -0.2783 -0.7055
   58MOL   O52645100   1.848   1.267   7.526 -0.1104  0.1501  0.0823
   58MOL   O52745101   1.891   1.048   7.502  0.4825 -0.3162 -0.2127
   58MOL   C52845102   1.753   1.103   7.240  0.3094 -0.1920 -0.8384
   58MOL   C52945103   1.732   1.116   7.097  0.4727 -0.1251 -0.2417
   58MOL   H53045104   2.112   1.322   6.735  1.5955  2.5280  0.7068
   58MOL   H53145105   2.111   1.432   6.591 -1.4974  0.4797  1.5749
   58MOL   H53245106   2.290   1.259   6.559  0.3628 -2.8355  1.9910
   58MOL   H53345107   2.173   1.128   6.588 -2.3232 -0.5305 -0.4994
   58MOL   H53445108   2.157   1.320   6.348 -0.4956 -0.2171  0.3929
   58MOL   H53545109   2.328   1.123   6.350 -0.0510  0.4429 -0.7486
   58MOL   H53645110   2.200   1.003   6.358  0.7983 -0.3903 -0.2517
   58MOL   H53745111   1.958   1.201   6.281 -2.7765 -0.0463 -0.0612
   58MOL   H53845112   1.964   1.107   6.425  1.3591 -0.4050  0.8972
   58MOL   H53945113   1.809   1.312   6.422 -0.1124  1.0403 -2.6383
   58MOL   H54045114   1.944   1.407   6.414  1.1099 -1.1231 -0.5890
   58MOL   H54145115   1.929   1.195   6.632 -0.7704 -0.2042 -0.4024
   58MOL   H54245116   1.900   1.486   6.712  0.0462 -0.2667 -2.3600
   58MOL   H54345117   1.752   1.403   6.665  0.5700 -0.3444 -1.7463
   58MOL   H54445118   1.955   1.368   7.051 -0.2853 -0.7204 -1.4155
   58MOL   H54545119   1.972   1.347   7.298  2.2430  0.0508 -1.9501
   58MOL   H54645120   1.712   1.023   7.300 -0.7846  0.5583 -0.5696
   58MOL   H54745121   1.658   1.054   7.048  0.2650  0.9268 -1.2752
   58MOL   C54845122   1.968   0.758   7.999 -0.0494 -0.4077  0.4031
   58MOL   C54945123   1.941   0.805   7.852 -0.5781  0.8749  0.1452
   58MOL   C55045124   1.821   0.899   7.840  0.0408 -0.0439 -0.1765
   58MOL   C55145125   1.803   0.937   7.689 -0.1438  0.3618  0.2289
   58MOL   O55245126   1.893   1.038   7.646  0.0880  0.1030 -0.2784
   58MOL   C55345127   1.698   0.833   7.891  0.3845  0.1178 -0.3634
   58MOL   C55445128   1.718   0.796   0.004  0.3781  0.1299 -0.0090
   58MOL   C55545129   1.839   0.705   0.029  0.5165 -0.8064  0.5991
   58MOL   C55645130   1.865   0.672   0.174  0.1584  0.5227 -0.3732
   58MOL   O55745131   1.956   0.563   0.184 -0.1878 -0.6048  0.5632
   58MOL   C55845132   1.915   0.428   0.182  0.0826 -0.5011 -0.2034
   58MOL   O55945133   1.802   0.395   0.212  0.0357 -0.5102  0.6065
   58MOL   C56045134   2.019   0.326   0.159  0.0948 -1.2255 -0.6502
   58MOL   C56145135   1.986   0.195   0.171 -0.0080  0.4484  0.0253
   58MOL   C56245136   2.073   0.090   0.131 -0.2186 -0.3691 -0.1955
   58MOL   C56345137   2.201   0.127   0.080  0.1765 -0.2972  0.0460
   58MOL   C56445138   2.284   0.029   0.022 -0.0287 -0.2962 -0.3740
   58MOL   O56545139   2.390   0.059   8.004  0.4938  0.0706  0.1359
   58MOL   O56645140   2.233   7.935   0.028 -0.7441  0.1012  0.4500
   58MOL   C56745141   2.240   0.262   0.082 -0.1507 -0.4399 -0.0040
   58MOL   C56845142   2.146   0.364   0.116  0.0421  0.4205 -0.7331
   58MOL   H56945143   2.049   0.685   8.007 -2.5877 -3.6825 -1.8515
   58MOL   H57045144   2.006   0.846   0.014 -2.4170  0.4743  0.7169
   58MOL   H57145145   2.028   0.853   7.809 -0.1582 -0.7973 -0.9192
   58MOL   H57245146   1.924   0.713   7.796  0.5727  1.2075 -0.7396
   58MOL   H57345147   1.828   0.989   7.901  0.8877  0.9523 -1.7033
   58MOL   H57445148   1.801   0.849   7.624  0.5500 -0.6388  1.5410
   58MOL   H57545149   1.704   0.977   7.668 -0.8862 -1.8987 -0.7793
   58MOL   H57645150   1.616   0.903   7.874  2.2565  2.4387 -0.0433
   58MOL   H57745151   1.666   0.746   7.834  0.9158 -0.2056 -0.1710
   58MOL   H57845152   1.627   0.742   0.029  0.9310  0.6801  3.3257
   58MOL   H57945153   1.722   0.894   0.050  1.4277 -0.9295  2.2266
   58MOL   H58045154   1.818   0.612   8.011  0.0403 -1.0824  1.2534
   58MOL   H58145155   1.919   0.748   0.229  1.9695 -0.8560 -0.2022
   58MOL   H58245156   1.778   0.639   0.231 -0.1714  0.4982 -0.8884
   58MOL   H58345157   1.890   0.168   0.214  0.9787 -0.8601  1.4508
   58MOL   H58445158   2.031   8.026   0.131 -0.1318 -0.4139 -1.0833
   58MOL   H58545159   2.331   0.298   0.037 -1.0182  0.3715 -1.1317
   58MOL   H58645160   2.186   0.464   0.109 -0.7333  0.9952  2.4331
   58MOL   C58745161   2.426   7.408   7.918 -0.4467  0.3315  0.0896
   58MOL   C58845162   2.360   7.534   7.990 -0.2188 -0.3170 -0.2252
   58MOL   C58945163   2.464   7.636   8.017 -0.2124 -0.1825 -0.2168
   58MOL   C59045164   2.407   7.763   0.050  0.7203 -0.3827 -0.2355
   58MOL   O59145165   2.321   7.834   7.992  0.0812 -0.1518 -0.0998
   58MOL   C59245166   2.589   7.587   0.059  0.1943  0.9203 -0.0150
   58MOL   C59345167   2.648   7.471   8.017  0.6289 -0.0855 -0.0171
   58MOL   C59445168   2.544   7.352   7.995 -0.2154  0.5103 -0.3144
   58MOL   C59545169   2.596   7.222   7.927 -0.0302 -0.5402  0.5721
   58MOL   O59645170   2.642   7.256   7.793 -0.5174  0.3618 -0.0685
   58MOL   C59745171   2.595   7.197   7.694 -0.2634  0.0077 -0.5291
   58MOL   O59845172   2.512   7.103   7.699  0.3131  0.6289 -0.8021
   58MOL   C59945173   2.652   7.260   7.568 -0.3925  1.4738  0.6856
   58MOL   C60045174   2.746   7.368   7.578  0.0635 -0.4939  0.2669
   58MOL   C60145175   2.791   7.428   7.458 -0.1757 -0.5900  0.6023
   58MOL   C60245176   2.754   7.372   7.330  0.5054 -0.2439 -0.0264
   58MOL   C60345177   2.808   7.436   7.207 -0.3346 -0.1586  0.3014
   58MOL   O60445178   2.849   7.554   7.213 -0.2773  0.2429  0.1463
   58MOL   O60545179   2.808   7.361   7.096 -0.2399 -0.0639  0.4876
   58MOL   C60645180   2.664   7.266   7.323  0.0772 -0.2861  0.3551
   58MOL   C60745181   2.617   7.204   7.442  0.0584 -0.6900 -0.1069
   58MOL   H60845182   2.363   7.320   7.914  1.5907 -1.0978 -1.6874
   58MOL   H60945183   2.463   7.442   7.821  2.8238 -0.0619  1.1451
   58MOL   H61045184   2.297   7.576   7.912 -0.1781  0.7138  0.2951
   58MOL   H61145185   2.298   7.520   0.043 -1.7407  0.4440 -1.1643
   58MOL   H61245186   2.515   7.669   7.927  0.5381 -1.2816 -0.1960
   58MOL   H61345187   2.340   7.727   0.128  0.3213  1.2678  0.1907
   58MOL   H61445188   2.482   7.825   0.098 -0.6741 -0.1732  1.7360
   58MOL   H61545189   2.661   7.666   0.079  0.3019  0.7439  0.2939
   58MOL   H61645190   2.558   7.545   0.155 -0.6506 -2.5471 -1.7176
   58MOL   H61745191   2.730   7.430   0.041 -0.0918  1.3844  2.0735
   58MOL   H61845192   2.690   7.503   7.922 -1.2517  1.1760 -0.4643
   58MOL   H61945193   2.522   7.327   0.063 -0.5200 -1.0391 -0.7438
   58MOL   H62045194   2.679   7.178   7.983 -1.9867 -2.0794  2.3179
   58MOL   H62145195   2.515   7.149   7.930 -0.4410 -0.3987 -3.7414
   58MOL   H62245196   2.779   7.410   7.671 -1.2961  0.5095  0.3198
   58MOL   H62345197   2.859   7.511   7.450 -1.6978  0.6571  0.3015
   58MOL   H62445198   2.640   7.229   7.224  3.9187  1.3970 -1.3183
   58MOL   H62545199   2.551   7.119   7.443  1.2354 -1.6893 -2.5603
   58MOL   C62645200   2.977   7.854   6.877 -0.5660  0.3772  0.2079
   58MOL   C62745201   2.925   7.721   6.942 -0.5715 -0.0474  0.6006
   58MOL   C62845202   2.865   7.626   6.836  0.1960  0.1251  0.4351
   58MOL   C62945203   2.799   7.495   6.889  0.2363  0.2508  0.0226
   58MOL   O63045204   2.885   7.424   6.975  0.4428 -0.2763 -0.1923
   58MOL   C63145205   2.772   7.691   6.733 -0.2702  0.0367 -0.9651
   58MOL   C63245206   2.816   7.834   6.686 -0.0939 -0.2627 -0.0342
   58MOL   C63345207   2.861   7.925   6.801 -0.8583 -0.3968 -0.3366
   58MOL   C63445208   2.911   0.027   6.752 -0.0885 -0.1948  0.4035
   58MOL   O63545209   2.802   0.118   6.708  0.1186  0.2817  0.4779
   58MOL   C63645210   2.828   0.211   6.615  0.5488  0.1495  0.1223
   58MOL   O63745211   2.944   0.237   6.585  0.1988 -0.1611  0.4299
   58MOL   C63845212   2.704   0.274   6.561 -0.6711  0.3003 -0.1053
   58MOL   C63945213   2.579   0.251   6.616  0.0624  0.1290 -0.1399
   58MOL   C64045214   2.465   0.323   6.573 -0.1305 -1.0249 -0.1660
   58MOL   C64145215   2.476   0.418   6.466  0.2656  0.2134  0.3777
   58MOL   C64245216   2.355   0.488   6.411  0.9885 -0.6244  0.2117
   58MOL   O64345217   2.360   0.577   6.325  0.0643  0.1511  0.2845
   58MOL   O64445218   2.242   0.455   6.468 -0.2154  0.1032  0.2975
   58MOL   C64545219   2.602   0.435   6.404 -0.3086 -0.0862  0.0691
   58MOL   C64645220   2.713   0.357   6.447  0.2544 -0.2142 -0.0766
   58MOL   H64745221   3.015   7.912   6.961 -0.3554 -0.2371  0.5406
   58MOL   H64845222   3.063   7.824   6.817 -1.0204  2.2810 -1.4414
   58MOL   H64945223   2.999   7.673   7.006  1.2328  2.3622  0.3993
   58MOL   H65045224   2.853   7.752   7.018  0.7678  1.4618  1.2881
   58MOL   H65145225   2.949   7.598   6.772  1.4799  1.7069  1.3958
   58MOL   H65245226   2.710   7.521   6.946 -0.5695  0.4330 -1.2992
   58MOL   H65345227   2.783   7.429   6.803  1.9077  1.5453 -1.3094
   58MOL   H65445228   2.759   7.634   6.641 -0.2626 -1.6936  0.0813
   58MOL   H65545229   2.672   7.703   6.774  0.5358  2.7524  0.2920
   58MOL   H65645230   2.727   7.880   6.641 -1.5574  0.8826  3.8447
   58MOL   H65745231   2.887   7.844   6.604  1.5979 -0.8061  1.3306
   58MOL   H65845232   2.779   7.932   6.872 -0.6007 -1.8724  0.1107
   58MOL   H65945233   2.980   0.080   6.817 -1.0337  0.3699  0.9635
   58MOL   H66045234   2.963   8.024   6.664 -1.8520 -0.5176 -0.5335
   58MOL   H66145235   2.564   0.185   6.699  2.2173  0.1045  0.2719
   58MOL   H66245236   2.370   0.314   6.622  0.9985 -1.0640  2.0695
   58MOL   H66345237   2.614   0.498   6.318  0.9562 -1.9198 -1.1282
   58MOL   H66445238   2.806   0.374   6.394 -1.0623  0.8966 -2.0947
   58MOL   C66545239   1.800   0.837   6.401 -0.7619 -0.3798  0.5482
   58MOL   C66645240   1.949   0.794   6.404  0.6944 -0.8470  0.5389
   58MOL   C66745241   1.975   0.704   6.529 -0.7788  0.3081  0.1129
   58MOL   C66845242   2.119   0.649   6.520 -0.6456  0.7496  0.2317
   58MOL   O66945243   2.121   0.537   6.430 -0.0840 -0.2259  0.0864
   58MOL   C67045244   1.939   0.782   6.661  0.0356  0.1242 -0.6311
   58MOL   C67145245   1.794   0.831   6.659  0.0043  0.6283  0.4087
   58MOL   C67245246   1.762   0.918   6.534  0.0004 -0.8790 -0.0026
   58MOL   C67345247   1.614   0.964   6.520  1.2629  0.5287  0.2462
   58MOL   O67445248   1.529   0.851   6.547 -0.1506  0.4837 -0.3080
   58MOL   C67545249   1.449   0.851   6.653  0.5271  0.3514  0.6681
   58MOL   O67645250   1.421   0.945   6.729  0.0059  0.6829  0.3034
   58MOL   C67745251   1.390   0.714   6.676 -0.1249 -0.0982  0.2251
   58MOL   C67845252   1.276   0.692   6.751 -0.8183  0.0355 -0.5343
   58MOL   C67945253   1.217   0.569   6.766 -0.0924 -0.0687 -0.5188
   58MOL   C68045254   1.264   0.457   6.696  0.5752  0.3882  1.0553
   58MOL   C68145255   1.187   0.329   6.706  0.6677 -0.8852 -0.1092
   58MOL   O68245256   1.072   0.316   6.748 -0.0361 -0.6326  0.5517
   58MOL   O68345257   1.264   0.214   6.672  0.1983  0.0370  0.3869
   58MOL   C68445258   1.382   0.471   6.619  0.1274  0.3437 -0.0619
   58MOL   C68545259   1.444   0.593   6.614 -0.4368 -0.4757 -0.0630
   58MOL   H68645260   1.773   0.903   6.319 -0.5182  0.6991  1.3247
   58MOL   H68745261   1.748   0.741   6.399  1.4801 -1.6562  1.4657
   58MOL   H68845262   1.979   0.739   6.315  0.6297  2.6182 -1.6973
   58MOL   H68945263   2.008   0.885   6.404  0.3929 -0.6409 -1.2627
   58MOL   H69045264   1.904   0.622   6.521 -0.8339  0.5217 -1.8105
   58MOL   H69145265   2.185   0.730   6.487 -2.3617  1.1095 -2.4734
   58MOL   H69245266   2.150   0.614   6.618 -1.9899 -0.1156  0.3492
   58MOL   H69345267   1.958   0.722   6.750 -1.5350 -0.2309 -0.5120
   58MOL   H69445268   2.007   0.866   6.674  0.3819  0.1191 -2.3146
   58MOL   H69545269   1.792   0.884   6.754  2.7115 -1.1530  1.5250
   58MOL   H69645270   1.730   0.743   6.670  3.1115 -1.6658  1.0319
   58MOL   H69745271   1.818   1.011   6.535  1.8743 -1.9530 -1.5223
   58MOL   H69845272   1.604   1.039   6.598 -0.2421  0.3694  0.2301
   58MOL   H69945273   1.610   1.015   6.423  1.4353 -0.2903 -0.1940
   58MOL   H70045274   1.228   0.780   6.793  1.8759  2.0671 -1.5760
   58MOL   H70145275   1.124   0.572   6.821  1.6276  1.6677  2.4098
   58MOL   H70245276   1.431   0.395   6.561 -2.6756 -2.2174  0.7942
   58MOL   H70345277   1.525   0.606   6.543  0.9656 -1.9218  1.2190
   58MOL   C70445278   0.846   7.874   6.846  0.5006 -0.9635  0.2465
   58MOL   C70545279   0.951   7.988   6.804  0.2865 -0.5187  0.5821
   58MOL   C70645280   1.094   7.952   6.833  0.3110 -0.3567  0.0697
   58MOL   C70745281   1.201   0.034   6.815 -0.6909  0.0374 -0.4368
   58MOL   O70845282   1.188   0.082   6.684  0.0685 -0.3014 -0.2791
   58MOL   C70945283   1.105   7.883   6.974  0.1965  0.3660 -0.4240
   58MOL   C71045284   1.009   7.764   6.990 -0.7094 -0.1101 -0.9721
   58MOL   C71145285   0.864   7.811   6.981 -0.2390 -0.5859  0.0707
   58MOL   C71245286   0.763   7.708   7.020 -0.2643 -0.4606  0.4126
   58MOL   O71345287   0.637   7.775   7.043 -0.3986 -0.0923  0.8082
   58MOL   C71445288   0.527   7.710   6.996  0.5333  0.0738  0.8729
   58MOL   O71545289   0.521   7.598   6.940  0.3287  0.2086 -0.1759
   58MOL   C71645290   0.399   7.800   7.013 -0.3866  0.1263  0.9446
   58MOL   C71745291   0.409   7.933   7.061  0.1187 -0.1764  0.3633
   58MOL   C71845292   0.295   8.016   7.073 -0.0777  0.3046  0.6685
   58MOL   C71945293   0.171   7.958   7.041 -0.3099 -0.0448  0.6442
   58MOL   C72045294   0.060   0.025   7.038 -0.4006  0.9809  0.5666
   58MOL   O72145295   0.073   0.147   7.028  0.2462  0.1940 -0.1983
   58MOL   O72245296   7.969   8.005   7.048 -0.5416  0.0696 -0.6083
   58MOL   C72345297   0.159   7.823   7.005  0.5774  0.7848 -0.4451
   58MOL   C72445298   0.274   7.746   6.982 -0.5275 -0.6394 -0.0240
   58MOL   H72545299   0.743   7.910   6.846  0.4554 -1.0631  1.1982
   58MOL   H72645300   0.848   7.803   6.764 -0.4726 -0.3419 -0.3348
   58MOL   H72745301   0.948   8.034   6.705  0.1295 -0.8817  0.4146
   58MOL   H72845302   0.914   0.032   6.867 -1.0607 -2.5232  2.3861
   58MOL   H72945303   1.119   7.875   6.760 -0.6540  0.3134 -0.9973
   58MOL   H73045304   1.168   0.119   6.874 -0.9969  0.3643 -1.0782
   58MOL   H73145305   1.305   0.012   6.841 -0.7432 -1.3669 -1.3412
   58MOL   H73245306   1.207   7.864   7.008  0.5840  1.5895 -0.8481
   58MOL   H73345307   1.083   7.956   7.052  2.4427  0.4622  0.1517
   58MOL   H73445308   1.026   7.706   7.081  2.7357 -1.9261 -2.6993
   58MOL   H73545309   1.030   7.696   6.907 -1.7175 -0.9075 -0.5888
   58MOL   H73645310   0.851   7.894   7.050 -1.4372 -0.7786  0.0922
   58MOL   H73745311   0.766   7.622   6.954  0.3463  0.0370 -0.2218
   58MOL   H73845312   0.792   7.665   7.116  2.7784 -0.7319 -0.5742
   58MOL   H73945313   0.511   7.967   7.076  0.0534 -0.0378  0.5047
   58MOL   H74045314   0.304   0.085   7.100 -0.4949  1.2148 -2.4540
   58MOL   H74145315   0.066   7.777   6.975  2.2454 -1.1986 -2.7911
   58MOL   H74245316   0.269   7.647   6.941  1.3302 -0.2707 -1.1982
   58MOL   C74345317   7.811   0.471   7.114 -0.4565 -0.7971  0.1925
   58MOL   C74445318   7.863   0.333   7.113  0.3222 -0.1102 -0.0281
   58MOL   C74545319   7.762   0.242   7.181  0.4388  0.0761  0.3687
   58MOL   C74645320   7.809   0.095   7.181  0.4878  0.1803 -0.1062
   58MOL   O74745321   7.857   0.074   7.049  0.0552  0.2540 -0.2240
   58MOL   C74845322   7.748   0.293   7.329 -0.5670 -0.5538 -0.0598
   58MOL   C74945323   7.698   0.435   7.334  0.2875  0.3453  0.2023
   58MOL   C75045324   7.793   0.518   7.255 -0.9734  0.3358 -0.1250
   58MOL   C75145325   7.760   0.668   7.263 -0.1085 -0.0875 -0.4721
   58MOL   O75245326   7.628   0.685   7.199  0.1631 -0.1145  0.2206
   58MOL   C75345327   7.571   0.806   7.226 -0.1505  1.5827  0.4994
   58MOL   O75445328   7.618   0.886   7.300  0.1515 -0.1929 -0.1019
   58MOL   C75545329   7.440   0.836   7.159  0.4670  0.1743 -0.0563
   58MOL   C75645330   7.389   0.748   7.058 -0.6303  0.0667  0.5053
   58MOL   C75745331   7.262   0.775   7.006 -0.8569  0.0976 -0.6509
   58MOL   C75845332   7.183   0.887   7.051 -0.1449 -0.6657  0.5595
   58MOL   C75945333   7.060   0.926   6.979  0.1692  0.4766 -0.8662
   58MOL   O76045334   6.972   1.004   7.024 -0.3485  0.3399  0.2787
   58MOL   O76145335   7.038   0.849   6.866  0.1914 -0.0394 -0.7072
   58MOL   C76245336   7.228   0.966   7.163  0.1480  0.1066 -0.4623
   58MOL   C76345337   7.353   0.938   7.221 -0.1604  0.1876  0.2681
   58MOL   H76445338   7.883   0.537   7.066 -0.0031 -0.1294  1.7551
   58MOL   H76545339   7.717   0.477   7.058 -0.2353  1.8702  0.0759
   58MOL   H76645340   7.899   0.304   7.014 -1.7312 -0.7304 -0.6156
   58MOL   H76745341   7.952   0.337   7.176  0.4938 -1.4719 -0.1808
   58MOL   H76845342   7.667   0.242   7.129  0.6864  2.1217 -0.1257
   58MOL   H76945343   7.882   0.067   7.256 -0.5348  0.0306  0.8526
   58MOL   H77045344   7.724   0.030   7.201 -1.1181  2.4496  0.7345
   58MOL   H77145345   7.683   0.227   7.386 -1.5060  0.0319 -0.4358
   58MOL   H77245346   7.847   0.287   7.374 -0.6245  0.0853  0.1593
   58MOL   H77345347   7.698   0.464   7.440  2.1206 -0.9842  0.5959
   58MOL   H77445348   7.594   0.442   7.302 -0.2577 -2.1868  1.2282
   58MOL   H77545349   7.889   0.506   7.305 -1.0250 -0.7579 -0.2676
   58MOL   H77645350   7.750   0.696   7.368 -1.4913 -2.8970  0.2055
   58MOL   H77745351   7.833   0.727   7.208 -0.7999  1.7884  0.6078
   58MOL   H77845352   7.440   0.660   7.022  1.4461  0.9160  1.3465
   58MOL   H77945353   7.225   0.698   6.939 -1.2039  0.3370 -0.7379
   58MOL   H78045354   7.159   1.033   7.211  0.1842 -0.6509  0.6471
   58MOL   H78145355   7.374   0.990   7.313  0.0637 -1.2715  1.0529
   58MOL   H78245356   6.950   0.860   6.835  1.2840  1.3454 -3.5462
   59MOL     C145357   4.096   1.430   1.563 -0.1047  0.1618  0.4146
   59MOL     C245358   4.090   1.277   1.603  0.1542 -0.0549 -0.7786
   59MOL     C345359   4.050   1.169   1.499  0.0583 -0.1177 -0.0778
   59MOL     C445360   4.048   1.024   1.556  0.8890 -0.0719  0.0322
   59MOL     O545361   4.010   0.938   1.455  0.0746  0.1991 -0.1249
   59MOL     C645362   3.920   1.217   1.419 -0.4438 -0.0837  0.0197
   59MOL     C745363   3.931   1.367   1.375 -0.1352  0.1616  0.5219
   59MOL     C845364   3.954   1.467   1.493  0.4907 -0.2408  0.0753
   59MOL     C945365   3.948   1.619   1.439  0.0873 -0.3344 -0.4266
   59MOL    O1045366   4.064   1.643   1.361 -0.2080 -0.4909 -0.1722
   59MOL    C1145367   4.108   1.767   1.334 -0.3227  0.0923 -0.2908
   59MOL    O1245368   4.075   1.869   1.394  0.5387 -0.9834  0.0176
   59MOL    C1345369   4.224   1.754   1.234 -0.3336 -0.4679  0.3274
   59MOL    C1445370   4.252   1.638   1.161  0.1276  0.4086  0.9630
   59MOL    C1545371   4.349   1.644   1.054 -0.0247  0.4814 -0.1816
   59MOL    C1645372   4.429   1.762   1.034  0.3710 -0.8846  0.4757
   59MOL    C1745373   4.543   1.758   0.933 -0.4269  0.2213  0.3966
   59MOL    O1845374   4.555   1.667   0.847 -0.7191 -0.5243  0.0506
   59MOL    O1945375   4.625   1.861   0.958  0.3767 -0.8431  0.0592
   59MOL    C2045376   4.398   1.875   1.117 -0.4713 -0.2066 -0.1784
   59MOL    C2145377   4.294   1.877   1.203 -0.0898  0.7352 -0.6814
   59MOL    H2245378   4.127   1.490   1.649  4.2165  0.4431 -1.2224
   59MOL    H2345379   4.178   1.446   1.494  0.4801 -2.4120  0.4429
   59MOL    H2445380   4.188   1.255   1.647 -1.2278  0.3453  2.6161
   59MOL    H2545381   4.032   1.266   1.695  0.1587  0.6557 -0.6911
   59MOL    H2645382   4.126   1.174   1.421 -0.0723 -0.3687 -0.2245
   59MOL    H2745383   4.147   0.995   1.591  0.8435 -0.4262 -0.1286
   59MOL    H2845384   3.985   1.015   1.644  1.9415 -1.2714  0.6783
   59MOL    H2945385   3.898   1.158   1.331  0.1963  2.2143 -1.7431
   59MOL    H3045386   3.837   1.211   1.489 -1.1945  2.5754 -0.5766
   59MOL    H3145387   3.841   1.396   1.320  0.3536  1.9163  0.6334
   59MOL    H3245388   4.008   1.385   1.300 -1.2965 -0.4016 -0.8222
   59MOL    H3345389   3.881   1.461   1.573  0.2091  0.7991 -0.0982
   59MOL    H3445390   3.862   1.640   1.375  0.3624  0.6847 -0.4722
   59MOL    H3545391   3.965   1.686   1.524 -0.8588  0.9119 -1.1991
   59MOL    H3645392   4.205   1.541   1.168 -0.4139  0.5592 -0.4648
   59MOL    H3745393   4.366   1.560   0.989 -0.1579  1.3813 -1.3952
   59MOL    H3845394   4.450   1.968   1.099 -0.5534 -0.5682 -2.4626
   59MOL    H3945395   4.264   1.965   1.259  1.8590  0.3899  1.0009
   59MOL    H4045396   4.078   0.934   1.389 -0.3358 -0.8909 -0.4857
   59MOL    C4145397   5.217   1.889   1.076 -0.0644  0.1794  0.7432
   59MOL    C4245398   5.082   1.829   1.076 -0.5417 -0.2164 -0.5459
   59MOL    C4345399   4.988   1.875   0.963 -1.1145  0.3900 -0.6524
   59MOL    C4445400   4.848   1.806   0.984  0.0306  0.4860 -0.2090
   59MOL    O4545401   4.752   1.852   0.889 -0.0626 -0.0821  0.5936
   59MOL    C4645402   4.979   2.024   0.968  0.3218  0.3433 -0.5367
   59MOL    C4745403   5.117   2.088   0.957 -0.8780  0.3944 -0.2237
   59MOL    C4845404   5.203   2.047   1.083  0.1801  0.1157 -0.0163
   59MOL    C4945405   5.348   2.121   1.083  0.0964 -0.1288  0.0341
   59MOL    O5045406   5.427   2.074   0.972  0.4887  0.1908 -0.3579
   59MOL    C5145407   5.556   2.071   0.993  0.6088 -0.4802  0.5495
   59MOL    O5245408   5.615   2.101   1.096 -0.0237  0.1630 -0.0884
   59MOL    C5345409   5.635   2.018   0.871 -0.6071  0.2747  0.1895
   59MOL    C5445410   5.566   1.951   0.769 -0.3686 -0.2342  0.5270
   59MOL    C5545411   5.633   1.901   0.653 -0.0913  0.0706 -0.1949
   59MOL    C5645412   5.774   1.927   0.641 -0.6330  0.0903 -0.4813
   59MOL    C5745413   5.854   1.885   0.527  0.1347 -0.5729  0.2966
   59MOL    O5845414   5.981   1.880   0.532 -0.1096  0.5884  0.7765
   59MOL    O5945415   5.778   1.851   0.411 -0.9552  0.3004  0.1347
   59MOL    C6045416   5.846   1.991   0.743  0.4400 -0.3228  0.3981
   59MOL    C6145417   5.774   2.031   0.858 -0.0879 -0.2576  0.3999
   59MOL    H6245418   5.271   1.847   1.161  0.4711 -1.3433 -0.3177
   59MOL    H6345419   5.274   1.862   0.987 -1.1920 -1.2421  0.4258
   59MOL    H6445420   5.088   1.721   1.070  1.8147 -0.2247  1.0706
   59MOL    H6545421   5.019   1.843   1.164 -1.0268 -3.9115 -0.2602
   59MOL    H6645422   5.031   1.841   0.868 -0.8903  0.4534 -0.5735
   59MOL    H6745423   4.858   1.697   0.982 -0.5223  0.4217  0.6694
   59MOL    H6845424   4.817   1.818   1.087 -0.7382  0.1486 -0.3991
   59MOL    H6945425   4.932   2.068   0.880 -0.1941  0.5864 -0.1393
   59MOL    H7045426   4.920   2.074   1.045 -0.5747 -1.4098 -0.0630
   59MOL    H7145427   5.106   2.196   0.946 -2.5047  0.1210 -1.7425
   59MOL    H7245428   5.162   2.063   0.861 -1.1241  3.6306 -1.2626
   59MOL    H7345429   5.147   2.062   1.175 -0.4206 -1.3478 -0.1338
   59MOL    H7445430   5.344   2.230   1.082  2.6078 -0.0030 -0.9251
   59MOL    H7545431   5.383   2.094   1.183  2.8238 -1.0743 -1.1174
   59MOL    H7645432   5.459   1.940   0.766 -0.2870 -1.1687  1.1002
   59MOL    H7745433   5.575   1.868   0.568 -0.7425 -0.4444  0.4411
   59MOL    H7845434   5.951   2.015   0.734  0.5721 -0.5816  1.2204
   59MOL    H7945435   5.830   2.076   0.939 -0.4676 -1.4895  1.3745
   59MOL    C8045436   6.070   1.917   7.891  0.2260  0.2239  0.1959
   59MOL    C8145437   6.004   1.966   8.022  0.1214 -0.7020 -0.8061
   59MOL    C8245438   5.971   1.849   0.083  0.0062 -0.1984 -0.3321
   59MOL    C8345439   5.884   1.897   0.205  0.2661  0.2222  0.0295
   59MOL    O8445440   5.871   1.797   0.301  0.4426  0.0221 -0.2254
   59MOL    C8545441   5.900   1.743   0.006 -0.2688 -0.5923  0.4635
   59MOL    C8645442   5.961   1.702   7.904  0.0001 -0.0928 -0.4065
   59MOL    C8745443   5.987   1.818   7.815 -0.3536  0.3077 -0.4696
   59MOL    C8845444   6.060   1.784   7.681 -0.2470 -0.0900  0.0413
   59MOL    O8945445   6.046   1.883   7.588 -0.1662 -0.6071  0.1235
   59MOL    C9045446   5.931   1.894   7.514  0.4178 -0.6064  0.3121
   59MOL    O9145447   5.841   1.815   7.534  0.3129 -0.2437 -0.3924
   59MOL    C9245448   5.931   2.000   7.410 -0.2107  0.0809 -0.0277
   59MOL    C9345449   5.811   2.010   7.333 -0.3791 -0.2607  0.0477
   59MOL    C9445450   5.809   2.116   7.239 -0.2467  0.0123 -0.1494
   59MOL    C9545451   5.922   2.194   7.206 -0.5081  0.8689  0.0292
   59MOL    C9645452   5.915   2.291   7.093  0.0574 -0.0100  0.6756
   59MOL    O9745453   5.812   2.321   7.035 -0.1133  0.2648 -0.3716
   59MOL    O9845454   6.038   2.340   7.059  0.2765 -0.5302  0.2417
   59MOL    C9945455   6.046   2.170   7.272  0.1655  0.1183  0.4190
   59MOL   C10045456   6.045   2.078   7.377  0.7199 -0.2810 -0.6650
   59MOL   H10145457   6.089   1.997   7.820  1.7968 -0.3384 -0.0272
   59MOL   H10245458   6.169   1.877   7.913  0.2785  0.3737  0.2285
   59MOL   H10345459   6.075   2.037   0.031  0.2297  0.1453 -2.3050
   59MOL   H10445460   5.911   2.018   7.999 -1.0229 -1.8274  1.1552
   59MOL   H10545461   6.065   1.813   0.127 -0.6689 -2.9764 -1.0717
   59MOL   H10645462   5.931   1.979   0.258  1.2510  0.0715 -0.5837
   59MOL   H10745463   5.790   1.933   0.163  0.5196 -0.1765 -0.8974
   59MOL   H10845464   5.918   1.649   0.059  1.3971  0.9676  2.7695
   59MOL   H10945465   5.793   1.766   8.033  0.0642  0.8453  0.0130
   59MOL   H11045466   5.891   1.638   7.850  2.8218 -3.7550  0.0843
   59MOL   H11145467   6.052   1.644   7.915  0.0731  0.3632  1.6113
   59MOL   H11245468   5.888   1.860   7.796 -1.0139 -0.2945  1.4934
   59MOL   H11345469   6.164   1.772   7.711 -0.4878 -3.0216 -0.1403
   59MOL   H11445470   6.029   1.686   7.644 -0.1732 -0.8987  2.0867
   59MOL   H11545471   5.723   1.952   7.358  0.1324 -1.5303 -1.0304
   59MOL   H11645472   5.719   2.125   7.180 -0.0910 -2.3520 -0.7766
   59MOL   H11745473   6.137   2.221   7.243 -0.4407  0.5369 -0.7875
   59MOL   H11845474   6.138   2.061   7.430  0.0795 -1.8199 -0.0323
   59MOL   C11945475   6.005   2.935   7.128  0.0455  0.1098 -0.6393
   59MOL   C12045476   5.972   2.783   7.111  0.1840 -0.4470 -0.4255
   59MOL   C12145477   6.100   2.705   7.136 -0.3256 -0.4101 -0.6379
   59MOL   C12245478   6.065   2.557   7.144 -0.1449  0.3515 -0.2727
   59MOL   O12345479   6.046   2.486   7.019  0.2233 -0.0497 -0.2296
   59MOL   C12445480   6.210   2.737   7.027  0.3956  0.1404 -0.3826
   59MOL   C12545481   6.243   2.893   7.033  0.2141 -0.4354 -0.2302
   59MOL   C12645482   6.109   2.975   7.024  0.2166 -0.0401 -0.5484
   59MOL   C12745483   6.125   3.125   7.022  0.1487 -0.5543  1.1236
   59MOL   O12845484   6.209   3.170   7.131 -0.1920 -0.2796 -0.2609
   59MOL   C12945485   6.271   3.290   7.114 -0.3018  0.8784 -0.2154
   59MOL   O13045486   6.255   3.356   7.012  0.0164 -0.5443 -0.1461
   59MOL   C13145487   6.350   3.332   7.237  0.6070 -0.1921 -1.1544
   59MOL   C13245488   6.371   3.241   7.347  0.2775 -0.0122  0.0197
   59MOL   C13345489   6.446   3.280   7.464 -0.2698  0.0762  0.5892
   59MOL   C13445490   6.490   3.414   7.478  1.2486  0.1167 -0.2862
   59MOL   C13545491   6.554   3.460   7.604  0.4916 -0.2537 -0.2971
   59MOL   O13645492   6.606   3.573   7.608 -0.0807  0.0102  0.6347
   59MOL   O13745493   6.539   3.385   7.709 -0.3042  0.5396 -0.5696
   59MOL   C13845494   6.467   3.504   7.373 -0.1733 -0.2130 -1.0141
   59MOL   C13945495   6.392   3.464   7.256  0.5870 -0.4746 -0.8445
   59MOL   H14045496   5.913   2.991   7.115 -0.0892  0.3359  1.1797
   59MOL   H14145497   6.043   2.956   7.228  2.8542 -0.0465 -1.6275
   59MOL   H14245498   5.894   2.759   7.183  0.1474  0.9429  0.0193
   59MOL   H14345499   5.928   2.759   7.014  0.8299  0.5129 -0.9692
   59MOL   H14445500   6.127   2.743   7.234 -0.7285  0.5585 -0.8907
   59MOL   H14545501   6.149   2.513   7.197 -0.7021 -2.2212 -1.4768
   59MOL   H14645502   5.972   2.551   7.199 -0.4104 -0.8352 -0.8539
   59MOL   H14745503   6.299   2.675   7.038  0.1996 -0.1282 -0.3249
   59MOL   H14845504   6.163   2.715   6.931 -0.8471 -0.3571  0.3442
   59MOL   H14945505   6.310   2.931   6.956 -0.1052  0.5509 -0.0221
   59MOL   H15045506   6.294   2.904   7.129  1.4465 -0.0275 -0.9263
   59MOL   H15145507   6.056   2.943   6.934 -2.7964  2.6004  0.1994
   59MOL   H15245508   6.168   3.158   6.927 -0.0150 -1.7616  0.6279
   59MOL   H15345509   6.027   3.173   7.022  0.0834 -0.6853  1.8114
   59MOL   H15445510   6.328   3.143   7.340 -2.5637  1.1897 -0.1216
   59MOL   H15545511   6.471   3.217   7.548  1.7179 -1.6875 -1.2563
   59MOL   H15645512   6.499   3.607   7.383  0.1723 -0.4283  0.2044
   59MOL   H15745513   6.372   3.537   7.179 -0.6347 -1.1382 -1.1583
   59MOL   C15845514   6.709   3.107   0.127  0.4524  0.6074  0.9030
   59MOL   C15945515   6.749   3.224   0.040  0.5925 -0.4753 -0.0897
   59MOL   C16045516   6.661   3.246   7.950 -0.2496  0.9280 -0.3380
   59MOL   C16145517   6.706   3.374   7.876  0.7101  0.5779 -0.2459
   59MOL   O16245518   6.591   3.449   7.841 -0.7690  0.1596 -0.4822
   59MOL   C16345519   6.669   3.119   7.865 -0.2781 -0.8789 -0.9754
   59MOL   C16445520   6.639   2.996   7.953  0.8535  0.5485 -0.0763
   59MOL   C16545521   6.722   2.982   0.042  0.3335 -0.0429 -0.3645
   59MOL   C16645522   6.673   2.863   0.125 -0.0834 -0.3612 -0.1173
   59MOL   O16745523   6.715   2.745   0.060  0.0613 -0.1066 -0.1619
   59MOL   C16845524   6.676   2.620   0.107  0.3142  0.5283  0.1668
   59MOL   O16945525   6.618   2.597   0.211  0.0833  0.0179  0.6202
   59MOL   C17045526   6.740   2.516   0.023  0.3463  0.2219 -0.0952
   59MOL   C17145527   6.812   2.544   7.940 -0.2282  0.2999  0.9172
   59MOL   C17245528   6.869   2.441   7.860 -0.3930  0.2103  0.0652
   59MOL   C17345529   6.866   2.312   7.910 -0.0043  0.2389 -1.0016
   59MOL   C17445530   6.940   2.204   7.829 -0.3073 -0.0809  0.2430
   59MOL   O17545531   6.984   2.227   7.716  0.1767 -0.4701  0.4448
   59MOL   O17645532   6.928   2.081   7.881  0.2156  1.0825 -0.9094
   59MOL   C17745533   6.808   2.284   8.035 -0.5492 -0.1602 -0.0436
   59MOL   C17845534   6.732   2.381   0.067  0.1988 -0.2577 -0.2323
   59MOL   H17945535   6.767   3.102   0.219  0.7204  1.2377  0.7762
   59MOL   H18045536   6.605   3.110   0.158 -0.0457 -2.2963 -0.2634
   59MOL   H18145537   6.742   3.317   0.095 -0.3407 -0.3643 -0.3803
   59MOL   H18245538   6.851   3.214   0.001 -0.2549 -0.0692 -2.4947
   59MOL   H18345539   6.561   3.268   7.988 -0.9509  1.7413 -2.5349
   59MOL   H18445540   6.775   3.428   7.941  2.1680  0.1370 -1.3940
   59MOL   H18545541   6.758   3.353   7.782 -0.5630  2.5084 -1.4341
   59MOL   H18645542   6.605   3.117   7.777  1.1095  0.5917 -2.0494
   59MOL   H18745543   6.764   3.119   7.813  1.5173  3.7411  1.9544
   59MOL   H18845544   6.672   2.908   7.898  0.1569  0.0703  0.2612
   59MOL   H18945545   6.531   2.984   7.964  0.5283  1.3870 -2.1388
   59MOL   H19045546   6.824   2.964   0.010  0.0932 -0.3384 -0.9767
   59MOL   H19145547   6.724   2.873   0.221 -0.3672  1.7604 -0.1686
   59MOL   H19245548   6.568   2.868   0.156 -0.5252  2.0135 -1.9294
   59MOL   H19345549   6.827   2.648   7.915 -1.0194  0.0021 -0.8923
   59MOL   H19445550   6.914   2.472   7.767 -0.0228  0.5532  0.3559
   59MOL   H19545551   6.811   2.184   0.039 -0.3989  1.0389  3.1043
   59MOL   H19645552   6.683   2.353   0.158  0.0811  1.5897  0.2787
   59MOL   C19745553   7.271   1.656   7.647  0.1080 -0.7028 -0.0837
   59MOL   C19845554   7.170   1.753   7.714  0.5084  0.6859 -0.5951
   59MOL   C19945555   7.226   1.886   7.770  0.0559 -0.1040  0.4366
   59MOL   C20045556   7.125   1.948   7.867 -0.8108  0.1733  0.1154
   59MOL   O20145557   7.004   1.972   7.799  0.3792  0.5261  0.8381
   59MOL   C20245558   7.363   1.861   7.848 -0.4211  0.0752 -0.0859
   59MOL   C20345559   7.460   1.764   7.781 -0.2267 -0.1854  0.3631
   59MOL   C20445560   7.395   1.628   7.744  0.7207  0.1915 -0.3645
   59MOL   C20545561   7.492   1.524   7.679 -0.3295  0.5812 -1.0420
   59MOL   O20645562   7.573   1.575   7.580  0.0620 -0.1618 -0.4651
   59MOL   C20745563   7.712   1.568   7.595  0.1370  0.4532 -0.4235
   59MOL   O20845564   7.768   1.526   7.695 -0.0297 -0.5063  0.6026
   59MOL   C20945565   7.790   1.622   7.482  1.1895  0.0005  0.1343
   59MOL   C21045566   7.931   1.609   7.483 -0.0529 -0.2829 -0.3208
   59MOL   C21145567   8.015   1.651   7.371 -0.6583  0.9095  0.0695
   59MOL   C21245568   7.949   1.703   7.258 -0.1436  0.9787  0.1300
   59MOL   C21345569   0.004   1.731   7.133  0.2845  0.2577 -0.4907
   59MOL   O21445570   8.000   1.787   7.033 -0.8621 -0.1602  0.5946
   59MOL   O21545571   0.119   1.663   7.133 -0.2586 -0.5503 -0.0712
   59MOL   C21645572   7.813   1.717   7.256  0.8753 -0.1250 -1.8103
   59MOL   C21745573   7.731   1.672   7.364  1.0582  1.2622 -0.3604
   59MOL   H21845574   7.214   1.564   7.633 -2.2051  0.7326 -0.4073
   59MOL   H21945575   7.305   1.680   7.546 -0.9586 -0.7145 -0.4580
   59MOL   H22045576   7.085   1.772   7.649  0.2741  1.2702 -0.1166
   59MOL   H22145577   7.122   1.701   7.797 -0.3012  0.1300 -1.4089
   59MOL   H22245578   7.244   1.950   7.684 -0.4266  1.4599  1.4770
   59MOL   H22345579   7.102   1.873   7.943 -1.8991  2.9017  2.5914
   59MOL   H22445580   7.158   2.041   7.914 -0.4133  0.8325 -1.4526
   59MOL   H22545581   7.425   1.947   7.872 -0.2326 -0.2018  0.4380
   59MOL   H22645582   7.337   1.815   7.944 -1.5742  2.1228  0.6013
   59MOL   H22745583   7.542   1.751   7.851  0.6242  2.6311 -0.0523
   59MOL   H22845584   7.505   1.817   7.697  2.2271 -0.7886  1.2597
   59MOL   H22945585   7.361   1.578   7.835  2.4604  1.5702  1.0884
   59MOL   H23045586   7.546   1.486   7.767 -0.6348 -0.1101 -1.1509
   59MOL   H23145587   7.434   1.440   7.641 -0.9645  0.3708  0.3354
   59MOL   H23245588   7.976   1.566   7.571 -0.1165  1.1353  0.4170
   59MOL   H23345589   0.088   1.645   7.373 -0.7213 -2.0288 -1.3475
   59MOL   H23445590   7.754   1.752   7.172  0.5879 -0.7638 -1.8771
   59MOL   H23545591   7.624   1.681   7.369  0.8512 -0.8287 -0.2410
   59MOL   C23645592   0.096   1.585   6.568 -0.1087  0.6673 -0.3762
   59MOL   C23745593   0.082   1.604   6.718  0.0008 -0.6262  0.6957
   59MOL   C23845594   0.147   1.489   6.796 -0.1686 -0.5833  0.6395
   59MOL   C23945595   0.112   1.521   6.941 -0.2237  0.2416  0.5611
   59MOL   O24045596   0.176   1.640   6.991 -0.4254 -0.2627 -0.1408
   59MOL   C24145597   0.093   1.353   6.752 -0.3202  0.4919 -0.2982
   59MOL   C24245598   0.089   1.328   6.604 -0.3632 -0.0107 -0.6098
   59MOL   C24345599   0.028   1.448   6.526 -0.1878  0.5167 -0.7767
   59MOL   C24445600   0.036   1.437   6.370  0.1753  0.1643 -0.2531
   59MOL   O24545601   7.980   1.351   6.302  0.0023  0.6353 -0.4019
   59MOL   C24645602   8.007   1.325   6.173  0.0489  0.0957  0.6460
   59MOL   O24745603   0.051   1.388   6.110 -0.1267  0.2648 -0.3703
   59MOL   C24845604   7.907   1.232   6.107  0.2708  0.1748  0.3292
   59MOL   C24945605   7.787   1.196   6.172  0.1872 -0.3403 -0.6097
   59MOL   C25045606   7.688   1.119   6.106  0.4082 -0.0238  0.6983
   59MOL   C25145607   7.710   1.056   5.981  0.2477 -0.3645 -0.1673
   59MOL   C25245608   7.603   0.972   5.917 -0.7749  0.0414  0.0386
   59MOL   O25345609   7.500   0.949   5.976 -0.4167  0.0241 -0.4221
   59MOL   O25445610   7.640   0.944   5.786  0.5752  0.1047  0.1066
   59MOL   C25545611   7.834   1.099   5.915  0.5369  0.1113 -0.2862
   59MOL   C25645612   7.931   1.174   5.982  0.3704 -0.2803  0.8990
   59MOL   H25745613   0.045   1.669   6.521 -1.3114  1.6159  2.5026
   59MOL   H25845614   0.202   1.599   6.546  0.1212 -0.8522 -0.3139
   59MOL   H25945615   0.138   1.693   6.747  1.6809 -0.9656 -1.3686
   59MOL   H26045616   8.014   1.621   6.744 -0.5160 -1.2371 -0.8949
   59MOL   H26145617   0.254   1.484   6.779 -0.2298  0.3612 -0.0636
   59MOL   H26245618   0.005   1.524   6.965 -0.2860 -0.1560  0.3298
   59MOL   H26345619   0.153   1.447   7.009  3.3844  2.2654  0.7067
   59MOL   H26445620   0.139   1.268   6.802 -1.8058 -0.9016 -1.2381
   59MOL   H26545621   8.025   1.360   6.785 -0.8161 -1.8397 -1.2255
   59MOL   H26645622   0.039   1.235   6.576  1.0004 -1.4672  1.6160
   59MOL   H26745623   0.195   1.318   6.579  0.2031 -0.2789  1.8100
   59MOL   H26845624   7.961   1.454   6.563 -0.2371  0.4862 -0.9059
   59MOL   H26945625   0.003   1.534   6.334 -1.7009 -0.7938 -1.1313
   59MOL   H27045626   0.142   1.416   6.356  0.0254 -1.9376  1.4234
   59MOL   H27145627   7.762   1.233   6.270 -0.5530  0.2471 -1.0093
   59MOL   H27245628   7.599   1.080   6.154 -0.0473 -0.5854 -0.5462
   59MOL   H27345629   7.858   1.075   5.813  0.5046 -0.9447 -0.0496
   59MOL   H27445630   8.022   1.198   5.929 -0.9190  1.0730 -0.7486
   59MOL   C27545631   7.190   0.595   5.698 -0.4770  0.1328 -0.0917
   59MOL   C27645632   7.315   0.665   5.757 -0.5984  0.0053  0.4590
   59MOL   C27745633   7.437   0.665   5.661  0.2018 -0.2848 -0.5428
   59MOL   C27845634   7.556   0.736   5.718 -0.9330  0.2086 -0.1791
   59MOL   O27945635   7.531   0.877   5.709 -0.1408 -0.6553  0.2020
   59MOL   C28045636   7.466   0.514   5.635 -0.2465  0.5156  0.0499
   59MOL   C28145637   7.354   0.434   5.565  0.1521 -0.1272 -0.0118
   59MOL   C28245638   7.223   0.451   5.647  0.1092  0.2593 -0.5740
   59MOL   C28345639   7.101   0.376   5.578  0.3452  0.1130 -0.0413
   59MOL   O28445640   7.063   0.448   5.464  0.3816  0.0024  0.1754
   59MOL   C28545641   6.979   0.385   5.389  0.2410 -0.2925  0.3862
   59MOL   O28645642   6.947   0.264   5.412 -0.7494 -0.2966 -0.3323
   59MOL   C28745643   6.945   0.466   5.266  0.3479  0.0802 -0.1370
   59MOL   C28845644   6.987   0.601   5.260 -0.4123  0.4312 -0.5444
   59MOL   C28945645   6.951   0.682   5.151 -0.5219 -0.0010 -0.1592
   59MOL   C29045646   6.865   0.631   5.053  0.6982 -0.4785  0.2079
   59MOL   C29145647   6.829   0.700   4.930  0.4488 -0.4497 -0.2154
   59MOL   O29245648   6.744   0.657   4.852 -0.0959 -0.3347 -0.0233
   59MOL   O29345649   6.878   0.828   4.913 -0.1486  0.8865 -0.2037
   59MOL   C29445650   6.816   0.493   5.064  0.2153  0.3564 -0.1290
   59MOL   C29545651   6.863   0.410   5.165 -0.1921 -0.3793 -0.1967
   59MOL   H29645652   7.110   0.584   5.770  0.4275  0.8573  1.0332
   59MOL   H29745653   7.159   0.656   5.612  1.4686  1.2066 -0.0583
   59MOL   H29845654   7.291   0.770   5.774  2.6671  1.4919 -3.1906
   59MOL   H29945655   7.331   0.621   5.855 -1.6393 -1.5812 -0.0606
   59MOL   H30045656   7.411   0.708   5.565 -0.6501  2.0010  0.6690
   59MOL   H30145657   7.565   0.700   5.820  0.8436 -1.7013 -0.9802
   59MOL   H30245658   7.652   0.721   5.669 -0.5186 -0.1086  0.7383
   59MOL   H30345659   7.555   0.495   5.575 -1.9026 -2.7784 -1.4848
   59MOL   H30445660   7.487   0.463   5.729  0.4363  0.3836 -0.1677
   59MOL   H30545661   7.379   0.328   5.571  3.7052  0.5198 -1.7517
   59MOL   H30645662   7.344   0.467   5.462  0.1772 -1.2740 -0.3848
   59MOL   H30745663   7.239   0.406   5.745  1.8671 -2.6517 -2.1132
   59MOL   H30845664   7.138   0.274   5.565  0.3737  0.3660 -2.2509
   59MOL   H30945665   7.013   0.360   5.639  0.4428  0.5441  0.2172
   59MOL   H31045666   7.050   0.647   5.334  2.4247 -1.8922 -1.4360
   59MOL   H31145667   6.984   0.783   5.135 -2.3173  0.6083 -0.0647
   59MOL   H31245668   6.755   0.457   4.983  0.4096 -2.0036  0.7290
   59MOL   H31345669   6.844   0.304   5.165 -1.7887 -0.1121 -2.2962
   59MOL   C31445670   6.392   1.145   4.931 -0.0562 -0.4997 -0.1245
   59MOL   C31545671   6.515   1.044   4.936  0.0523 -0.7882  0.9206
   59MOL   C31645672   6.646   1.112   4.978  0.1623  0.1816 -0.3190
   59MOL   C31745673   6.756   1.010   4.992  0.4267 -0.6928 -0.3918
   59MOL   O31845674   6.773   0.929   4.877  0.6159  0.0749  0.5474
   59MOL   C31945675   6.677   1.225   4.890  0.4627 -0.2146 -0.3970
   59MOL   C32045676   6.558   1.335   4.889  0.2331 -0.4425  0.3616
   59MOL   C32145677   6.428   1.272   4.845 -0.2978 -0.3032  0.3534
   59MOL   C32245678   6.314   1.368   4.860 -0.4351 -0.5610 -0.0414
   59MOL   O32345679   6.193   1.307   4.823 -0.6422  0.0256  0.3525
   59MOL   C32445680   6.089   1.391   4.810  0.0635 -0.4336 -0.1370
   59MOL   O32545681   6.090   1.508   4.849  0.0532  0.0910 -0.0432
   59MOL   C32645682   5.969   1.323   4.751  0.0966  0.3248  0.0866
   59MOL   C32745683   5.982   1.198   4.694  0.1019  1.1615  0.0601
   59MOL   C32845684   5.873   1.131   4.642  0.4668  0.1328 -0.0574
   59MOL   C32945685   5.743   1.180   4.663 -0.3072 -0.4790 -0.1900
   59MOL   C33045686   5.620   1.107   4.617  0.3735 -0.1017 -0.3778
   59MOL   O33145687   5.509   1.148   4.635  0.0751 -0.3247 -0.0139
   59MOL   O33245688   5.648   0.988   4.573  0.7529  0.2014 -0.6820
   59MOL   C33345689   5.727   1.303   4.735  0.1146 -0.4063  0.7327
   59MOL   C33445690   5.839   1.372   4.782 -0.5275 -0.9125 -0.1704
   59MOL   H33545691   6.299   1.094   4.904 -0.7997  0.4181  0.6676
   59MOL   H33645692   6.372   1.177   5.033  3.1515 -1.0247  0.7186
   59MOL   H33745693   6.482   0.963   5.002 -2.3208 -0.5568  0.0461
   59MOL   H33845694   6.524   0.992   4.840 -2.1615  0.1568  0.1788
   59MOL   H33945695   6.625   1.156   5.075  2.0360  0.9333 -0.2368
   59MOL   H34045696   6.848   1.060   5.020 -1.3361  1.3784  1.8712
   59MOL   H34145697   6.738   0.951   5.082  2.0089 -0.9891 -0.2563
   59MOL   H34245698   6.761   1.279   4.933  0.5713 -0.1095 -0.7392
   59MOL   H34345699   6.713   1.187   4.794  1.6218 -0.9362  0.3126
   59MOL   H34445700   6.598   1.414   4.826  1.3139 -0.5483  0.9049
   59MOL   H34545701   6.542   1.381   4.987 -1.1842  0.9324 -0.4988
   59MOL   H34645702   6.437   1.244   4.740  6.0595  1.9041  0.0921
   59MOL   H34745703   6.300   1.403   4.962  0.6366  1.6189 -0.5954
   59MOL   H34845704   6.335   1.455   4.796 -1.6338  0.3640  0.8096
   59MOL   H34945705   6.077   1.153   4.669 -0.9870 -1.4287  0.4355
   59MOL   H35045706   5.882   1.042   4.581 -1.2153 -0.3530  0.3885
   59MOL   H35145707   5.628   1.336   4.764  0.4514 -0.0160  1.4598
   59MOL   H35245708   5.837   1.459   4.847  2.1790 -1.0651  0.1500
   59MOL   C35345709   5.332   0.462   4.666 -0.1574 -1.3585  0.4287
   59MOL   C35445710   5.422   0.582   4.700 -0.1558 -0.8485  0.2029
   59MOL   C35545711   5.429   0.691   4.587 -0.3818  0.9239  0.8227
   59MOL   C35645712   5.520   0.804   4.630 -0.9271  0.9469  0.1389
   59MOL   O35745713   5.528   0.908   4.540 -0.4740  0.0926  0.2634
   59MOL   C35845714   5.474   0.619   4.458  0.2922 -0.0698  0.2673
   59MOL   C35945715   5.381   0.500   4.416 -0.4400 -0.6918  0.0249
   59MOL   C36045716   5.375   0.393   4.528 -0.1189 -0.0510 -0.4581
   59MOL   C36145717   5.288   0.274   4.486  0.5010  0.2954  0.8204
   59MOL   O36245718   5.295   0.178   4.587 -0.3483 -0.2769  0.5051
   59MOL   C36345719   5.363   0.062   4.573  0.4692  0.1886 -0.5458
   59MOL   O36445720   5.403   0.027   4.468  0.0462 -0.2045  0.1259
   59MOL   C36545721   5.390   8.025   4.700 -0.0365 -0.7115  0.3021
   59MOL   C36645722   5.454   7.896   4.683  0.2644 -0.2540 -0.7385
   59MOL   C36745723   5.496   7.823   4.792  0.1547  0.5684 -0.7913
   59MOL   C36845724   5.464   7.861   4.925 -0.1344 -0.0321 -0.0045
   59MOL   C36945725   5.506   7.772   5.033  0.0291 -0.0711  0.2625
   59MOL   O37045726   5.588   7.675   5.020  0.3397 -0.2160  0.0947
   59MOL   O37145727   5.456   7.806   5.147  0.5868 -0.1503 -0.1721
   59MOL   C37245728   5.395   7.988   4.942 -0.1360 -0.9438  0.2237
   59MOL   C37345729   5.355   0.037   4.832  0.6154  0.4253  0.4529
   59MOL   H37445730   5.354   0.402   4.753 -0.3573 -0.4332  1.1278
   59MOL   H37545731   5.227   0.489   4.675  0.0513 -0.3497  0.0152
   59MOL   H37645732   5.397   0.630   4.795  1.3418  0.0555  0.1592
   59MOL   H37745733   5.523   0.545   4.718  0.0942  0.8970  2.6719
   59MOL   H37845734   5.330   0.734   4.572  0.2965  2.1225 -0.2877
   59MOL   H37945735   5.501   0.828   4.735 -0.8243 -0.6743  0.5447
   59MOL   H38045736   5.620   0.760   4.634 -0.4793  1.9169 -0.1540
   59MOL   H38145737   5.483   0.689   4.375  1.2971  0.4423  0.7877
   59MOL   H38245738   5.574   0.576   4.458 -0.6110 -2.2791 -2.1658
   59MOL   H38345739   5.420   0.451   4.327 -1.5844 -3.8859  1.2120
   59MOL   H38445740   5.282   0.540   4.396  0.3591  0.9101 -0.8001
   59MOL   H38545741   5.475   0.351   4.542  0.0255  0.2364 -0.6244
   59MOL   H38645742   5.187   0.300   4.457  0.3951  0.0856  1.0034
   59MOL   H38745743   5.326   0.237   4.391  1.1732  2.9567  0.0195
   59MOL   H38845744   5.472   7.860   4.583 -2.2329  1.9289 -2.0441
   59MOL   H38945745   5.539   7.724   4.786 -0.9280 -0.0569  1.1124
   59MOL   H39045746   5.385   8.020   5.045  2.2865 -1.9465  0.8086
   59MOL   H39145747   5.309   0.133   4.851 -1.5830 -1.0091  2.5856
   59MOL   C39245748   5.155   7.493   5.520  0.4641 -0.7233 -0.4974
   59MOL   C39345749   5.296   7.491   5.454 -0.3048  0.3469 -1.5193
   59MOL   C39445750   5.318   7.620   5.372 -0.2929 -0.0499  0.0525
   59MOL   C39545751   5.460   7.611   5.301  0.4856  0.3683  0.2599
   59MOL   O39645752   5.521   7.739   5.270 -0.1279 -0.2271  0.0597
   59MOL   C39745753   5.197   7.632   5.269 -0.2370  0.8891  0.4264
   59MOL   C39845754   5.068   7.628   5.336 -0.6389 -0.3660  0.2532
   59MOL   C39945755   5.042   7.503   5.422  0.1506  0.4714  0.0989
   59MOL   C40045756   4.905   7.495   5.488 -0.1993 -0.8550  0.2539
   59MOL   O40145757   4.811   7.492   5.388 -0.7572 -0.3556  0.4218
   59MOL   C40245758   4.745   7.598   5.349 -0.0187  0.2970 -0.5690
   59MOL   O40345759   4.746   7.703   5.410  0.2867 -0.3738  0.1419
   59MOL   C40445760   4.671   7.564   5.221  0.4919  0.5573 -0.2432
   59MOL   C40545761   4.722   7.472   5.134  0.4409  0.5577  0.6247
   59MOL   C40645762   4.654   7.450   5.009  0.3402  0.3836 -0.3762
   59MOL   C40745763   4.547   7.532   4.972  0.1252  0.8650  0.1482
   59MOL   C40845764   4.494   7.518   4.836 -0.2462  0.6838 -0.7817
   59MOL   O40945765   4.401   7.578   4.794  0.2520 -0.2561 -0.1043
   59MOL   O41045766   4.574   7.445   4.752 -0.5212 -0.1279  0.0529
   59MOL   C41145767   4.489   7.619   5.062  0.2753  0.1568  0.1822
   59MOL   C41245768   4.557   7.642   5.187 -0.1586 -0.0082  0.1467
   59MOL   H41345769   5.146   7.411   5.591 -0.5871  2.0245  2.6662
   59MOL   H41445770   5.150   7.583   5.580  2.0265 -1.7589  1.2274
   59MOL   H41545771   5.376   7.484   5.527 -2.1757  0.5015  0.6219
   59MOL   H41645772   5.303   7.399   5.396 -0.0178 -0.3393 -0.4281
   59MOL   H41745773   5.319   7.695   5.451 -3.1997 -1.4950  1.5548
   59MOL   H41845774   5.528   7.557   5.367 -0.9818 -3.0447 -0.8849
   59MOL   H41945775   5.439   7.548   5.214 -1.0129  1.4792 -0.2104
   59MOL   H42045776   5.207   7.733   5.230  2.7152  0.1734 -0.8510
   59MOL   H42145777   5.208   7.552   5.196 -0.0752 -0.4032  1.8306
   59MOL   H42245778   4.991   7.636   5.259  0.6531  0.2087 -1.0095
   59MOL   H42345779   5.059   7.711   5.405 -0.8419  1.5394 -1.9929
   59MOL   H42445780   5.061   7.422   5.352 -1.3339  0.4404 -0.2996
   59MOL   H42545781   4.882   7.407   5.549 -0.2834 -0.0543  1.4041
   59MOL   H42645782   4.889   7.582   5.552 -0.2251  0.8079 -1.9790
   59MOL   H42745783   4.810   7.419   5.168  0.8944  1.9440  1.6203
   59MOL   H42845784   4.697   7.376   4.943 -1.3125  0.0398 -1.0929
   59MOL   H42945785   4.408   7.686   5.038 -1.3140 -1.0215  2.0829
   59MOL   H43045786   4.517   7.713   5.256 -1.8685  0.1189 -0.9446
   59MOL   C43145787   4.557   7.314   4.188 -0.3043 -0.4541 -0.1950
   59MOL   C43245788   4.589   7.334   4.332 -0.2573  0.5674  0.1662
   59MOL   C43345789   4.556   7.477   4.373  0.1920  0.4737  0.0417
   59MOL   C43445790   4.582   7.508   4.524 -0.1180  0.3400 -0.5887
   59MOL   O43545791   4.525   7.419   4.612 -0.5063 -0.0963  0.0661
   59MOL   C43645792   4.623   7.586   4.287  0.6795 -0.0554 -0.2186
   59MOL   C43745793   4.613   7.560   4.140  0.3539  0.1037 -0.1074
   59MOL   C43845794   4.642   7.411   4.107 -0.3919 -0.2845 -0.1829
   59MOL   C43945795   4.644   7.380   3.960  0.9038 -0.0990 -0.1334
   59MOL   O44045796   4.699   7.253   3.938  0.9800  0.5234  0.1557
   59MOL   C44145797   4.825   7.256   3.908  0.3209 -0.4697 -0.2964
   59MOL   O44245798   4.902   7.350   3.934 -0.7055  0.1863 -0.5998
   59MOL   C44345799   4.886   7.119   3.884  0.7391  0.2811 -0.1816
   59MOL   C44445800   5.013   7.084   3.934  0.0872  0.5306 -0.4204
   59MOL   C44545801   5.074   6.958   3.912 -0.2256 -0.0255 -0.2545
   59MOL   C44645802   4.995   6.864   3.849  0.7080 -0.8388 -0.8887
   59MOL   C44745803   5.057   6.727   3.826 -0.3067 -0.2317 -1.0156
   59MOL   O44845804   5.006   6.640   3.759  0.3335 -0.5547  0.9190
   59MOL   O44945805   5.166   6.710   3.903 -0.3506  0.2497 -0.6614
   59MOL   C45045806   4.860   6.896   3.806  0.6656  0.2854  0.7305
   59MOL   C45145807   4.804   7.017   3.831 -0.6804  0.6385  0.3339
   59MOL   H45245808   4.590   7.211   4.169  0.5441  0.3101 -3.2477
   59MOL   H45345809   4.449   7.325   4.174  0.1161 -0.5321 -4.2883
   59MOL   H45445810   4.533   7.274   4.403  0.4857 -0.0927  0.2053
   59MOL   H45545811   4.694   7.313   4.355  0.0594  3.2441  1.3817
   59MOL   H45645812   4.447   7.483   4.364  0.1521 -0.8939 -0.5385
   59MOL   H45745813   4.689   7.516   4.543 -0.1569  1.0005 -0.6543
   59MOL   H45845814   4.532   7.603   4.544 -0.0141  0.1562  0.5942
   59MOL   H45945815   4.582   7.683   4.317 -0.2557 -0.7888  0.9094
   59MOL   H46045816   4.727   7.586   4.319 -0.2920 -1.5633  3.1223
   59MOL   H46145817   4.692   7.623   4.099 -0.3880  0.5854 -0.8031
   59MOL   H46245818   4.520   7.602   4.103  0.9281  1.8677  0.3679
   59MOL   H46345819   4.744   7.384   4.134 -0.7567  0.6334  2.2455
   59MOL   H46445820   4.540   7.379   3.927  0.7964  1.5636  0.1060
   59MOL   H46545821   4.687   7.460   3.900 -0.0271 -0.1331 -0.8700
   59MOL   H46645822   5.067   7.163   3.984  1.6499 -0.3492 -0.6717
   59MOL   H46745823   5.173   6.937   3.952 -0.1148 -1.9317 -1.4607
   59MOL   H46845824   4.804   6.824   3.748 -1.1125  0.6720  1.9373
   59MOL   H46945825   4.702   7.031   3.801 -1.0665 -1.5879  0.5178
   59MOL   C47045826   5.606   6.354   3.997 -0.0413  0.0918 -1.0771
   59MOL   C47145827   5.490   6.457   4.011 -0.5376 -0.1955  0.3169
   59MOL   C47245828   5.352   6.394   3.986 -0.2003 -0.4696 -0.6623
   59MOL   C47345829   5.233   6.494   3.993  0.3428  0.4550  0.4158
   59MOL   O47445830   5.247   6.589   3.888  0.2012  0.3720  0.1804
   59MOL   C47545831   5.349   6.314   3.850 -0.5628 -0.2031 -0.6440
   59MOL   C47645832   5.473   6.213   3.844  0.2260 -0.7916 -0.5050
   59MOL   C47745833   5.609   6.292   3.860 -0.5396 -0.4411  0.0539
   59MOL   C47845834   5.731   6.202   3.839 -0.9358  0.3590  0.0770
   59MOL   O47945835   5.848   6.279   3.868  0.3531  0.4422 -0.1021
   59MOL   C48045836   5.974   6.235   3.865 -0.5167  0.6425  0.4912
   59MOL   O48145837   6.001   6.116   3.828 -0.0416  0.0830 -0.0434
   59MOL   C48245838   6.081   6.330   3.904  0.3173 -0.5790 -0.7590
   59MOL   C48345839   6.216   6.299   3.891  0.1403  0.3331  0.0654
   59MOL   C48445840   6.315   6.379   3.954  0.3581  0.3185 -0.0055
   59MOL   C48545841   6.278   6.501   4.009 -0.0422  0.1819  0.5938
   59MOL   C48645842   6.380   6.589   4.078  0.0161 -0.1937 -0.5208
   59MOL   O48745843   6.357   6.707   4.104  0.5034  0.3467  0.3421
   59MOL   O48845844   6.499   6.527   4.098 -0.2239  0.3518  0.0326
   59MOL   C48945845   6.143   6.539   4.011 -0.0776 -0.3264  0.4279
   59MOL   C49045846   6.040   6.448   3.974  0.4600  0.1114 -0.0241
   59MOL   H49145847   5.702   6.402   4.019 -1.8301  2.1890  2.7131
   59MOL   H49245848   5.606   6.281   4.078  1.0872 -0.6447 -1.7329
   59MOL   H49345849   5.488   6.521   4.100 -1.5346 -1.0753  0.9374
   59MOL   H49445850   5.505   6.520   3.923 -1.2326  1.0448  1.0666
   59MOL   H49545851   5.326   6.323   4.064 -1.6011 -0.8654 -1.4753
   59MOL   H49645852   5.132   6.454   3.988  0.8103 -0.6120 -0.6320
   59MOL   H49745853   5.243   6.538   4.093 -0.5679 -2.8479  2.0069
   59MOL   H49845854   5.257   6.259   3.834 -1.4085  1.0850 -0.2932
   59MOL   H49945855   5.362   6.386   3.769 -3.0603  2.1773  0.9726
   59MOL   H50045856   5.476   6.146   3.758  1.4281 -3.0023  1.2088
   59MOL   H50145857   5.464   6.140   3.925  0.6551  0.4707  0.7090
   59MOL   H50245858   5.602   6.366   3.780 -0.8136 -1.9327 -1.3060
   59MOL   H50345859   5.722   6.120   3.910  2.6511  1.8679  2.4247
   59MOL   H50445860   5.745   6.167   3.736 -0.2467  0.7377  0.0399
   59MOL   H50545861   6.252   6.212   3.838  0.3594 -0.1123  0.9384
   59MOL   H50645862   6.417   6.343   3.943  0.4589  0.7040 -0.3165
   59MOL   H50745863   6.108   6.635   4.047 -1.0599 -0.9402  1.1305
   59MOL   H50845864   5.936   6.472   3.990  0.1336 -0.8762 -0.6217
   59MOL   C50945865   6.645   6.333   4.553  0.0912  0.0337 -0.4331
   59MOL   C51045866   6.596   6.470   4.494 -0.0808  0.6075  0.6890
   59MOL   C51145867   6.645   6.479   4.348 -0.1621 -0.2921  0.5359
   59MOL   C51245868   6.615   6.619   4.287 -0.5790  0.5939 -0.1966
   59MOL   O51345869   6.611   6.624   4.148  0.4663  0.0063 -0.0650
   59MOL   C51445870   6.797   6.469   4.335 -0.1246  0.0846 -0.9035
   59MOL   C51545871   6.851   6.335   4.391  0.2931  0.5087 -0.7155
   59MOL   C51645872   6.800   6.310   4.534 -0.3787 -0.0028  0.5895
   59MOL   C51745873   6.833   6.174   4.586 -0.5538  0.3732 -0.2291
   59MOL   O51845874   6.760   6.079   4.507 -0.4306 -0.0861 -0.3663
   59MOL   C51945875   6.815   5.960   4.478 -0.1677 -0.0668  0.7655
   59MOL   O52045876   6.922   5.926   4.517 -0.2729 -0.1999  0.0121
   59MOL   C52145877   6.733   5.873   4.388  0.2999  0.5498  0.2033
   59MOL   C52245878   6.621   5.930   4.317 -0.1251  0.0323  0.4813
   59MOL   C52345879   6.551   5.849   4.226 -0.1054 -0.1123  0.3265
   59MOL   C52445880   6.595   5.718   4.199 -0.1126 -0.4763  0.3642
   59MOL   C52545881   6.523   5.631   4.105 -0.4016 -0.1342  0.2234
   59MOL   O52645882   6.567   5.520   4.064 -0.3724 -0.1442  0.5931
   59MOL   O52745883   6.400   5.668   4.070  0.2096  0.1859 -0.7230
   59MOL   C52845884   6.703   5.657   4.270 -0.3332 -0.2923 -0.7337
   59MOL   C52945885   6.772   5.736   4.365  0.4047  0.0090 -0.1827
   59MOL   H53045886   6.628   6.338   4.661  0.1183 -0.9570 -0.3780
   59MOL   H53145887   6.584   6.251   4.516 -0.5295 -0.1797  1.0200
   59MOL   H53245888   6.487   6.473   4.495 -0.0725  1.0547  0.2404
   59MOL   H53345889   6.641   6.557   4.542  1.9444  0.4248 -0.8061
   59MOL   H53445890   6.602   6.396   4.292  1.5337 -3.0178  3.1692
   59MOL   H53545891   6.524   6.644   4.342 -0.6953 -0.6081  0.1619
   59MOL   H53645892   6.691   6.687   4.325  1.7139 -2.4388  0.8380
   59MOL   H53745893   6.815   6.467   4.227  0.9273 -1.0445 -0.7213
   59MOL   H53845894   6.853   6.552   4.378  0.0378  0.2620 -1.4493
   59MOL   H53945895   6.959   6.326   4.393  0.1540 -1.3287  3.0949
   59MOL   H54045896   6.812   6.257   4.325 -1.4104  1.3372 -0.7206
   59MOL   H54145897   6.852   6.381   4.598 -0.8704  2.4195 -1.6085
   59MOL   H54245898   6.938   6.147   4.594 -0.1722  2.0922  0.8951
   59MOL   H54345899   6.805   6.157   4.690  4.5046 -1.5974  0.9311
   59MOL   H54445900   6.597   6.035   4.333  1.2768  0.4093  0.1382
   59MOL   H54545901   6.461   5.888   4.182  0.8554  0.5638 -1.0569
   59MOL   H54645902   6.728   5.553   4.256 -4.0611 -1.0463 -2.4200
   59MOL   H54745903   6.859   5.688   4.408 -1.2054 -1.8457  1.0876
   59MOL   C54845904   6.056   5.205   4.009  0.2852  0.0445 -0.1798
   59MOL   C54945905   6.088   5.351   4.019 -0.2982  0.0184 -0.2270
   59MOL   C55045906   6.201   5.371   4.123 -0.7262  0.1980  0.4627
   59MOL   C55145907   6.234   5.519   4.137 -0.0653 -0.0921  0.1167
   59MOL   O55245908   6.305   5.559   4.023  0.3691 -0.5607 -0.7236
   59MOL   C55345909   6.160   5.310   4.257 -0.0638  0.0490 -0.0103
   59MOL   C55445910   6.117   5.163   4.252 -0.8710 -0.2857  0.1570
   59MOL   C55545911   6.012   5.138   4.145  0.7221  0.4100 -0.2764
   59MOL   C55645912   5.994   4.985   4.130  0.1239  0.2200 -0.7363
   59MOL   O55745913   5.879   4.951   4.049 -0.2379  0.4466  0.4918
   59MOL   C55845914   5.823   4.826   4.056 -0.4473 -0.3951  0.9937
   59MOL   O55945915   5.876   4.730   4.112  0.1819 -0.0322 -0.4114
   59MOL   C56045916   5.700   4.809   3.975 -0.0196 -0.5704  0.7411
   59MOL   C56145917   5.630   4.694   3.980 -0.1930  1.3258  0.1258
   59MOL   C56245918   5.510   4.677   3.902  0.2136 -0.1085 -0.1736
   59MOL   C56345919   5.450   4.785   3.831  0.3559  0.4131 -0.4048
   59MOL   C56445920   5.315   4.777   3.768 -0.1520 -0.6660 -0.2996
   59MOL   O56545921   5.279   4.853   3.681  0.1651 -0.1482  0.5622
   59MOL   O56645922   5.236   4.679   3.820 -0.5730 -0.0322 -0.0935
   59MOL   C56745923   5.523   4.904   3.829 -0.1193 -0.3041  0.8856
   59MOL   C56845924   5.640   4.914   3.904 -0.0884 -0.6743 -0.4849
   59MOL   H56945925   5.972   5.202   3.940 -0.2404 -2.2305  0.5032
   59MOL   H57045926   6.140   5.149   3.968  0.2069  0.6234 -1.1373
   59MOL   H57145927   6.135   5.380   3.925 -1.2115 -1.6129 -1.2120
   59MOL   H57245928   6.003   5.413   4.044 -0.8324 -1.2822  1.2732
   59MOL   H57345929   6.286   5.309   4.097 -0.1405  0.5579  1.4488
   59MOL   H57445930   6.147   5.581   4.159 -1.6682 -1.8129 -1.1524
   59MOL   H57545931   6.298   5.523   4.225 -0.7801 -0.2178  0.6471
   59MOL   H57645932   6.233   5.323   4.337 -0.6211  3.0045  0.0473
   59MOL   H57745933   6.076   5.367   4.298  0.8915  1.9526 -0.6835
   59MOL   H57845934   6.085   5.139   4.353 -2.0548  0.3505 -0.0620
   59MOL   H57945935   6.212   5.121   4.218 -1.3010 -1.6324  0.6019
   59MOL   H58045936   5.917   5.181   4.177  1.2482 -0.3383  2.3686
   59MOL   H58145937   6.076   4.932   4.080 -0.3169 -0.4162 -0.7870
   59MOL   H58245938   5.971   4.936   4.225  0.4154  0.9227 -0.2979
   59MOL   H58345939   5.678   4.611   4.030  0.2592  1.1973 -0.5210
   59MOL   H58445940   5.457   4.584   3.907  1.7399 -0.9879  0.0677
   59MOL   H58545941   5.493   4.981   3.760  2.3115 -1.8724 -2.0205
   59MOL   H58645942   5.687   5.011   3.896  0.0338 -0.6712  0.2608
   59MOL   C58745943   5.024   4.730   3.351 -0.3973 -0.3118  0.2400
   59MOL   C58845944   5.064   4.719   3.497 -0.0932 -0.2218  0.7702
   59MOL   C58945945   4.973   4.621   3.576  0.2357  0.1212  0.1996
   59MOL   C59045946   5.025   4.629   3.719 -0.8824  0.0239  0.2829
   59MOL   O59145947   5.170   4.606   3.704 -0.7052 -0.0933  0.2796
   59MOL   C59245948   4.826   4.666   3.553  0.1778 -0.0446 -1.0727
   59MOL   C59345949   4.782   4.668   3.409  0.6936 -0.0128  0.0658
   59MOL   C59445950   4.877   4.760   3.332  0.6862 -0.6574  0.7420
   59MOL   C59545951   4.849   4.766   3.181 -0.1904  0.4919  0.6705
   59MOL   O59645952   4.764   4.879   3.158 -0.0288  0.1534 -0.3384
   59MOL   C59745953   4.690   4.898   3.047  0.0878 -0.7797  0.1389
   59MOL   O59845954   4.687   4.813   2.955  0.1691  0.3461 -0.5403
   59MOL   C59945955   4.633   5.038   3.043 -0.5471  0.1316 -0.2858
   59MOL   C60045956   4.556   5.063   2.928  0.4548  0.0421  0.8167
   59MOL   C60145957   4.480   5.180   2.914 -0.5601  0.8423 -0.1887
   59MOL   C60245958   4.489   5.279   3.018 -0.3006  1.1697  0.8644
   59MOL   C60345959   4.419   5.410   2.999 -0.4115 -0.3957  0.5108
   59MOL   O60445960   4.374   5.443   2.887 -0.0410 -0.4525  0.3355
   59MOL   O60545961   4.420   5.484   3.107  0.0138 -0.3217 -0.0980
   59MOL   C60645962   4.561   5.253   3.136  0.1430  0.1997 -0.9410
   59MOL   C60745963   4.631   5.134   3.147  0.3898  0.4930 -0.4845
   59MOL   H60845964   5.075   4.818   3.310 -1.2941 -1.1106 -2.7078
   59MOL   H60945965   5.053   4.638   3.301  0.5777  1.0550 -1.7752
   59MOL   H61045966   5.171   4.700   3.509  0.3617  1.1953 -0.8663
   59MOL   H61145967   5.041   4.820   3.530 -1.8148 -0.4253  0.2375
   59MOL   H61245968   4.984   4.522   3.532 -1.8675  0.3796 -0.9877
   59MOL   H61345969   5.010   4.730   3.757 -0.4629 -0.3047  1.3611
   59MOL   H61445970   4.970   4.564   3.788 -0.0831  1.5810  2.4528
   59MOL   H61545971   4.754   4.595   3.595 -0.5733  0.2932 -1.7821
   59MOL   H61645972   4.816   4.765   3.597  2.9879 -0.2850  0.2171
   59MOL   H61745973   4.679   4.703   3.409 -0.0304 -2.0695 -0.7469
   59MOL   H61845974   4.804   4.571   3.366  4.2073 -0.0843  1.8098
   59MOL   H61945975   4.862   4.860   3.375  1.9659  0.7169 -1.8797
   59MOL   H62045976   4.939   4.777   3.121 -0.5925 -0.2244 -0.0878
   59MOL   H62145977   4.801   4.679   3.137  0.4881 -0.7412  2.3413
   59MOL   H62245978   4.553   4.988   2.850 -0.3943  0.4678  0.4310
   59MOL   H62345979   4.421   5.188   2.824 -2.4114 -1.4197  0.7680
   59MOL   H62445980   4.561   5.322   3.218 -2.3555  0.0759 -0.8063
   59MOL   H62545981   4.683   5.117   3.240 -0.2588  2.1664  0.2118
   59MOL   C62645982   4.032   5.968   3.069  0.0329  0.7706 -0.5284
   59MOL   C62745983   4.068   5.827   3.125  0.2892 -0.2209  0.6952
   59MOL   C62845984   4.191   5.777   3.055  0.4347 -0.5260  0.0060
   59MOL   C62945985   4.242   5.646   3.109 -0.3635  0.2150  0.6888
   59MOL   O63045986   4.381   5.630   3.084  0.0433 -0.2554 -0.3405
   59MOL   C63145987   4.161   5.777   2.915 -0.6694 -0.2616  0.0700
   59MOL   C63245988   4.121   5.910   2.850  0.4939  0.2303  0.1588
   59MOL   C63345989   3.999   5.961   2.923 -0.1898  0.6504 -0.4081
   59MOL   C63445990   3.937   6.088   2.864 -0.2588  0.5898 -0.3159
   59MOL   O63545991   3.882   6.060   2.743 -0.4780 -0.1548 -0.3051
   59MOL   C63645992   3.811   6.156   2.686 -0.5591  0.0845  0.9124
   59MOL   O63745993   3.824   6.274   2.708  0.6887 -0.1167  0.2705
   59MOL   C63845994   3.725   6.097   2.580 -0.2014  0.3732  0.4282
   59MOL   C63945995   3.727   5.956   2.551  0.6149  0.1896 -0.2087
   59MOL   C64045996   3.644   5.899   2.448  0.8787 -0.6415 -0.9375
   59MOL   C64145997   3.552   5.984   2.370  0.3940  0.6376  0.2535
   59MOL   C64245998   3.452   5.925   2.282 -0.2268 -0.1146 -0.3251
   59MOL   O64345999   3.456   5.808   2.250  0.2784 -0.4165 -0.2490
   59MOL   O64446000   3.350   6.009   2.239  0.3172  0.0255 -0.2704
   59MOL   C64546001   3.573   6.124   2.393 -0.1416  0.1259 -0.6133
   59MOL   C64646002   3.650   6.176   2.495 -0.8089 -0.6400  0.1191
   59MOL   H64746003   3.947   6.003   3.128 -0.3978 -0.6092 -0.3070
   59MOL   H64846004   4.108   6.042   3.094  0.1490  0.3884  0.2932
   59MOL   H64946005   4.089   5.836   3.232 -0.1993 -0.6112  0.8235
   59MOL   H65046006   3.989   5.754   3.139 -0.1707  0.3903  1.3615
   59MOL   H65146007   4.270   5.851   3.069  0.9573 -1.0164 -0.3533
   59MOL   H65246008   4.222   5.646   3.216 -1.4117  1.0259  0.5045
   59MOL   H65346009   4.190   5.558   3.073  0.9278 -0.2404 -0.1236
   59MOL   H65446010   4.245   5.732   2.862 -1.6654 -0.7098 -1.1721
   59MOL   H65546011   4.079   5.706   2.902  1.1519 -2.5946  0.8745
   59MOL   H65646012   4.093   5.909   2.744  3.3017 -2.2324 -0.6195
   59MOL   H65746013   4.201   5.983   2.865  1.3613 -0.4684 -0.9621
   59MOL   H65846014   3.921   5.887   2.905 -0.8999  1.4510 -0.6504
   59MOL   H65946015   3.866   6.132   2.934 -0.4428 -0.2923  0.0639
   59MOL   H66046016   4.009   6.169   2.851  2.2684 -1.6053 -0.3523
   59MOL   H66146017   3.796   5.901   2.613  0.3385  1.0603  0.9031
   59MOL   H66246018   3.638   5.793   2.432 -0.7114 -0.8881  1.0659
   59MOL   H66346019   3.498   6.184   2.342 -1.6769 -0.2948  1.0973
   59MOL   H66446020   3.646   6.284   2.493 -0.8686 -0.5742  2.3231
   59MOL   C66546021   2.845   5.692   2.048  1.0361  0.1171  0.3579
   59MOL   C66646022   2.920   5.787   2.145  0.1103 -0.2674 -0.1769
   59MOL   C66746023   3.068   5.788   2.114  0.4760 -0.2862 -0.3092
   59MOL   C66846024   3.144   5.883   2.206  0.0594  0.0785  0.5509
   59MOL   O66946025   3.260   5.941   2.137 -0.0529  0.0625 -0.5137
   59MOL   C67046026   3.124   5.645   2.129 -0.0140 -0.1091 -0.0566
   59MOL   C67146027   3.047   5.528   2.052  0.4562  0.2226  0.2761
   59MOL   C67246028   2.889   5.541   2.078 -0.0550 -0.3268  0.8835
   59MOL   C67346029   2.826   5.435   1.983 -0.5496  0.3521 -0.4472
   59MOL   O67446030   2.694   5.429   2.006 -0.3599 -0.2111 -0.1626
   59MOL   C67546031   2.604   5.468   1.903  0.5533  0.0780 -0.2188
   59MOL   O67646032   2.645   5.513   1.794  0.3291 -0.6575 -1.0600
   59MOL   C67746033   2.460   5.450   1.933 -0.6059 -0.5079 -0.1575
   59MOL   C67846034   2.414   5.391   2.055 -0.6156  0.0451  0.1475
   59MOL   C67946035   2.275   5.375   2.069  0.0411  0.3631 -0.2055
   59MOL   C68046036   2.182   5.412   1.969 -0.2035 -0.5819 -0.3294
   59MOL   C68146037   2.043   5.384   1.996  0.2285 -0.2903  0.7845
   59MOL   O68246038   1.992   5.339   2.096  0.1946 -0.1671  0.7572
   59MOL   O68346039   1.975   5.404   1.884  0.1202 -0.0881  0.0076
   59MOL   C68446040   2.230   5.480   1.858  0.4604 -0.9773  0.2321
   59MOL   C68546041   2.365   5.493   1.836 -0.0755 -0.2442  0.0019
   59MOL   H68646042   2.740   5.707   2.074  0.1503 -2.1568 -1.7249
   59MOL   H68746043   2.863   5.725   1.946 -1.4443  3.3697  0.8706
   59MOL   H68846044   2.870   5.883   2.148  0.2838 -0.1914  0.2884
   59MOL   H68946045   2.908   5.754   2.248 -2.0240  0.4419 -0.1825
   59MOL   H69046046   3.083   5.820   2.011  1.7874 -1.6586 -0.5516
   59MOL   H69146047   3.080   5.966   2.236  0.0064  0.4314 -0.5010
   59MOL   H69246048   3.177   5.830   2.295 -0.1249 -1.0832 -0.0667
   59MOL   H69346049   3.228   5.646   2.097 -0.1364  2.5423 -0.4784
   59MOL   H69446050   3.138   5.622   2.235  2.4987 -0.4678 -0.4454
   59MOL   H69546051   3.078   5.426   2.071 -0.3709  0.1287  1.1427
   59MOL   H69646052   3.057   5.560   1.948  0.1087  0.3433  0.2781
   59MOL   H69746053   2.861   5.509   2.179  0.2667 -0.0062  1.0763
   59MOL   H69846054   2.855   5.452   1.879  2.1483  0.1113  0.2056
   59MOL   H69946055   2.877   5.341   2.006 -1.5987  0.2602  1.5879
   59MOL   H70046056   2.489   5.360   2.127  0.7762 -0.6790 -1.5759
   59MOL   H70146057   2.243   5.337   2.165  2.5532  0.7223  0.8127
   59MOL   H70246058   2.162   5.509   1.779  2.2880  0.8424 -0.7156
   59MOL   H70346059   2.401   5.538   1.745 -1.9449 -0.8482 -1.0540
   59MOL   C70446060   1.563   4.967   1.690  0.1102  0.0148 -0.3492
   59MOL   C70546061   1.702   5.043   1.690  0.0220 -0.8828  0.5221
   59MOL   C70646062   1.694   5.180   1.769 -0.9925  0.2214  0.0537
   59MOL   C70746063   1.831   5.249   1.782 -0.1112 -0.2644  0.6616
   59MOL   O70846064   1.830   5.352   1.881  0.1712  0.7394  0.5488
   59MOL   C70946065   1.584   5.273   1.706 -0.1630  0.4974 -0.3360
   59MOL   C71046066   1.450   5.191   1.708  0.1612 -0.1755 -0.0418
   59MOL   C71146067   1.458   5.064   1.627  0.2594  0.0803 -0.2936
   59MOL   C71246068   1.320   5.003   1.631  0.5634 -0.0207  0.7373
   59MOL   O71346069   1.303   4.880   1.556 -0.2323  0.0818  0.4367
   59MOL   C71446070   1.273   4.770   1.618  0.2637  0.6490  0.2510
   59MOL   O71546071   1.235   4.766   1.735 -0.2299 -0.1495 -0.1378
   59MOL   C71646072   1.274   4.647   1.528  1.2681 -0.4282 -0.0151
   59MOL   C71746073   1.336   4.653   1.403  0.2980  0.5136 -0.9036
   59MOL   C71846074   1.332   4.544   1.320  0.1012  0.1910 -0.0531
   59MOL   C71946075   1.258   4.428   1.350  0.5263 -0.9308  0.0050
   59MOL   C72046076   1.247   4.320   1.246  0.5719  0.5654  0.3486
   59MOL   O72146077   1.335   4.314   1.163 -0.2138  0.5614  0.3269
   59MOL   O72246078   1.150   4.225   1.262 -0.2001 -0.1383 -0.1761
   59MOL   C72346079   1.199   4.418   1.477  0.1482 -0.6251 -0.2781
   59MOL   C72446080   1.199   4.532   1.562 -0.6216 -0.5024  0.1712
   59MOL   H72546081   1.582   4.876   1.632  2.7978  1.0887 -1.1863
   59MOL   H72646082   1.538   4.946   1.794  1.3127  3.2607  0.6512
   59MOL   H72746083   1.766   4.983   1.755  0.1356 -1.2995  0.0290
   59MOL   H72846084   1.757   5.054   1.597  1.7384  0.0355  1.6333
   59MOL   H72946085   1.666   5.153   1.870 -0.0026 -1.3489 -0.0621
   59MOL   H73046086   1.891   5.175   1.834  1.7076 -0.5102 -1.7323
   59MOL   H73146087   1.878   5.274   1.687 -4.4968 -0.6381 -1.7490
   59MOL   H73246088   1.580   5.360   1.771  2.0655 -0.1526  0.7294
   59MOL   H73346089   1.609   5.302   1.604  2.0313  1.1530  0.3589
   59MOL   H73446090   1.378   5.266   1.674  1.0334  1.3516  1.4328
   59MOL   H73546091   1.409   5.171   1.807  0.2573  0.2284  0.0777
   59MOL   H73646092   1.490   5.082   1.524 -0.3354 -0.5242 -0.5899
   59MOL   H73746093   1.283   4.988   1.732 -1.4111  1.2193  0.2374
   59MOL   H73846094   1.246   5.066   1.581 -1.2829 -1.0612  2.1138
   59MOL   H73946095   1.380   4.745   1.369 -0.1445  1.0451 -0.0702
   59MOL   H74046096   1.374   4.549   1.220 -1.6257 -1.0792 -0.8691
   59MOL   H74146097   1.146   4.329   1.507  1.7033 -1.5963 -0.3228
   59MOL   H74246098   1.151   4.519   1.658 -0.0780  0.7341  0.6181
   59MOL   C74346099   0.986   3.978   0.709  0.6608  0.5775  0.5756
   59MOL   C74446100   0.955   4.061   0.838 -0.3318 -0.3940  0.0673
   59MOL   C74546101   1.075   4.045   0.935  0.2648 -0.9805  0.1441
   59MOL   C74646102   1.061   4.141   1.061  0.0430  0.2578  0.4772
   59MOL   O74746103   1.166   4.125   1.157  0.0497 -0.3574 -0.0445
   59MOL   C74846104   1.101   3.904   0.974 -0.5132 -0.7007  0.1398
   59MOL   C74946105   1.128   3.820   0.851 -0.2802 -0.4187  0.3435
   59MOL   C75046106   1.016   3.824   0.744  0.3852 -0.4329  0.1270
   59MOL   C75146107   1.036   3.734   0.626 -0.0232 -0.3603 -0.2679
   59MOL   O75246108   1.055   3.597   0.653 -0.7561  0.0714 -0.1718
   59MOL   C75346109   0.953   3.509   0.673  0.1464 -0.5675 -0.1101
   59MOL   O75446110   0.834   3.548   0.672  0.0438  0.1361 -0.0502
   59MOL   C75546111   0.993   3.373   0.710 -0.4066 -0.6416 -0.4735
   59MOL   C75646112   0.897   3.271   0.706  0.1445  0.3792 -0.2050
   59MOL   C75746113   0.942   3.137   0.730 -0.5324 -0.4394 -0.2330
   59MOL   C75846114   1.074   3.108   0.775 -0.5900 -0.9735 -0.5670
   59MOL   C75946115   1.106   2.969   0.817 -0.7628 -0.1841  0.9241
   59MOL   O76046116   1.030   2.888   0.854 -0.4260  0.1523 -0.2047
   59MOL   O76146117   1.239   2.938   0.791  0.0407 -0.2730 -0.3117
   59MOL   C76246118   1.164   3.214   0.783 -0.5428  0.1681  0.1291
   59MOL   C76346119   1.131   3.350   0.748 -0.3917  0.0730  0.0042
   59MOL   H76446120   0.900   3.991   0.643  1.1925  0.7779 -0.0829
   59MOL   H76546121   1.076   4.022   0.666  1.4681  0.2541  1.9168
   59MOL   H76646122   0.934   4.159   0.797 -1.8314 -1.0400 -0.7343
   59MOL   H76746123   0.868   4.030   0.896 -1.0784 -3.6237 -2.6621
   59MOL   H76846124   1.161   4.069   0.872  0.9280 -1.0403  1.0295
   59MOL   H76946125   1.080   4.239   1.019 -0.6086 -0.2257 -0.9562
   59MOL   H77046126   0.959   4.138   1.100  0.1199  1.8771  0.8311
   59MOL   H77146127   1.182   3.900   1.046 -1.0660 -0.6983  0.7634
   59MOL   H77246128   1.026   3.857   1.037 -2.0595 -0.5410 -1.5221
   59MOL   H77346129   1.145   3.724   0.899 -0.5656 -0.5693  0.1402
   59MOL   H77446130   1.222   3.856   0.809 -0.3252 -0.9715 -0.2176
   59MOL   H77546131   0.923   3.789   0.790 -1.4141  1.0562 -2.2090
   59MOL   H77646132   0.945   3.751   0.569  0.1683 -2.5821 -1.2723
   59MOL   H77746133   1.124   3.775   0.576  1.4003 -0.4952  2.0482
   59MOL   H77846134   0.795   3.295   0.679 -0.1589 -0.7449 -0.0955
   59MOL   H77946135   0.867   3.060   0.730 -0.1212 -0.8487 -0.8085
   59MOL   H78046136   1.264   3.180   0.809 -0.7019 -0.1269  0.3596
   59MOL   H78146137   1.206   3.427   0.745  1.8933 -2.0169  1.0081
   59MOL   H78246138   1.245   2.845   0.803 -0.7099 -0.4925 -1.5950
   60MOL     C146139   3.572   3.804   7.403 -0.1226 -0.8345  0.1203
   60MOL     C246140   3.596   3.917   7.300  0.3335  0.3316  0.2272
   60MOL     C346141   3.660   4.045   7.356 -0.1179  0.3815  0.5618
   60MOL     C446142   3.688   4.150   7.251 -0.4451  0.6036  0.1687
   60MOL     O546143   3.788   4.230   7.306 -0.4119 -0.1399  0.1334
   60MOL     C646144   3.593   4.102   7.484  0.2093 -0.4053  0.4799
   60MOL     C746145   3.575   3.988   7.586  0.0305 -0.8174 -0.2019
   60MOL     C846146   3.505   3.862   7.534  0.1112 -0.0494  1.1028
   60MOL     C946147   3.497   3.750   7.635 -0.3333 -0.1648 -1.0712
   60MOL    O1046148   3.415   3.643   7.591  0.1605 -0.2052 -0.4226
   60MOL    C1146149   3.286   3.649   7.607 -0.2944  0.4957  0.0006
   60MOL    O1246150   3.228   3.739   7.670 -0.4250 -0.7091 -0.3291
   60MOL    C1346151   3.213   3.529   7.545 -0.2408 -0.1089 -0.3693
   60MOL    C1446152   3.080   3.502   7.583  0.1983 -0.4819  0.9983
   60MOL    C1546153   3.005   3.391   7.530  0.0479 -0.0078  0.1243
   60MOL    C1646154   3.071   3.307   7.436 -0.1921 -0.6713 -0.0661
   60MOL    C1746155   3.017   3.186   7.381 -0.7458 -0.0247  0.3473
   60MOL    O1846156   3.068   3.112   7.295 -0.1722 -0.1317 -0.2605
   60MOL    O1946157   2.892   3.151   7.429 -0.0010  0.4746 -0.4859
   60MOL    C2046158   3.201   3.345   7.389  0.3497 -0.2505 -0.4929
   60MOL    C2146159   3.273   3.448   7.447 -0.5397 -0.1716  0.1375
   60MOL    H2246160   3.516   3.726   7.351 -0.6811 -0.3532 -0.0117
   60MOL    H2346161   3.667   3.758   7.428 -0.4954 -1.3581  0.5913
   60MOL    H2446162   3.660   3.873   7.224 -1.8008 -0.6215 -1.0737
   60MOL    H2546163   3.498   3.924   7.253  0.9542 -0.3001 -1.1927
   60MOL    H2646164   3.756   4.006   7.390 -0.6835  0.7749  2.7300
   60MOL    H2746165   3.724   4.095   7.164 -2.5336 -0.1384 -0.2503
   60MOL    H2846166   3.597   4.207   7.235  1.2931  3.0905 -1.2519
   60MOL    H2946167   3.646   4.191   7.518 -0.7791  0.3398  0.0968
   60MOL    H3046168   3.493   4.139   7.459  1.1938  1.9876 -0.0304
   60MOL    H3146169   3.510   4.028   7.664 -0.1193 -0.8621 -0.3028
   60MOL    H3246170   3.670   3.969   7.635 -0.9586 -0.6315  1.8446
   60MOL    H3346171   3.407   3.901   7.505  0.8580  2.4099  1.7961
   60MOL    H3446172   3.593   3.702   7.654  0.5172  0.7894 -2.8547
   60MOL    H3546173   3.476   3.784   7.736  1.9185  0.0396 -0.6456
   60MOL    H3646174   3.047   3.564   7.665  2.8093 -0.3200  1.9786
   60MOL    H3746175   2.909   3.359   7.570  0.8247 -1.9783  0.5150
   60MOL    H3846176   3.253   3.281   7.319 -0.5094  0.6315 -1.9553
   60MOL    H3946177   3.371   3.474   7.409 -0.1123 -2.4299 -0.3841
   60MOL    H4046178   3.785   4.317   7.270  0.0430 -1.1007 -2.3582
   60MOL    C4146179   2.442   3.073   7.574 -0.7892 -0.5055  0.4434
   60MOL    C4246180   2.571   3.044   7.501 -0.1136 -0.1305 -0.6446
   60MOL    C4346181   2.610   3.134   7.380  0.1128 -0.9626  0.1661
   60MOL    C4446182   2.724   3.056   7.301 -0.1838 -0.9361  0.0760
   60MOL    O4546183   2.834   3.022   7.385  0.1811 -0.0343 -0.1518
   60MOL    C4646184   2.489   3.166   7.293 -0.2461 -0.3671 -0.5814
   60MOL    C4746185   2.354   3.186   7.368  0.9069 -0.2381 -0.4247
   60MOL    C4846186   2.326   3.079   7.475 -0.5300  0.1817 -0.5729
   60MOL    C4946187   2.192   3.097   7.542 -0.1475 -0.0148 -0.2893
   60MOL    O5046188   2.171   2.991   7.633  0.6999 -0.0611 -0.0921
   60MOL    C5146189   2.135   2.865   7.595 -0.3716 -0.3602 -0.2284
   60MOL    O5246190   2.081   2.846   7.484 -0.5078 -0.2486  0.2381
   60MOL    C5346191   2.163   2.759   7.696  0.4716  0.1419 -0.6802
   60MOL    C5446192   2.126   2.623   7.682 -0.0701  0.2729  0.0194
   60MOL    C5546193   2.144   2.535   7.790  0.2628  0.3350  0.3921
   60MOL    C5646194   2.178   2.577   7.919 -0.0322 -0.1419 -0.8235
   60MOL    C5746195   2.176   2.488   0.003 -0.1277 -0.4586 -0.6841
   60MOL    O5846196   2.185   2.534   0.119  0.0469  0.3068  0.6964
   60MOL    O5946197   2.164   2.365   8.009 -0.1382  0.2268 -0.8420
   60MOL    C6046198   2.215   2.708   7.933 -0.3879 -0.4936 -0.8623
   60MOL    C6146199   2.211   2.801   7.825 -0.2387  0.8078  0.1859
   60MOL    H6246200   2.427   2.991   7.644 -2.5943 -1.3274 -0.8482
   60MOL    H6346201   2.448   3.166   7.630 -0.1520  0.8372 -1.7623
   60MOL    H6446202   2.652   3.019   7.570 -1.6556 -1.5909  0.6548
   60MOL    H6546203   2.563   2.944   7.458 -1.8536  0.0690 -0.8010
   60MOL    H6646204   2.663   3.222   7.418  0.0877  0.4866 -3.0176
   60MOL    H6746205   2.681   2.969   7.252  0.4915 -1.2226 -0.0052
   60MOL    H6846206   2.751   3.120   7.217  0.0483  0.4411  1.1881
   60MOL    H6946207   2.503   3.256   7.233 -0.6462  1.0660  1.4339
   60MOL    H7046208   2.462   3.082   7.229  0.8706 -0.6151 -0.7270
   60MOL    H7146209   2.276   3.178   7.292  1.4312  0.3687 -1.0400
   60MOL    H7246210   2.347   3.289   7.402  1.7611 -0.6122  0.8925
   60MOL    H7346211   2.324   2.986   7.419  2.9051 -0.5674  0.4181
   60MOL    H7446212   2.180   3.186   7.605 -0.5809 -0.8321  0.8127
   60MOL    H7546213   2.114   3.113   7.467 -0.7428 -0.4967  0.2195
   60MOL    H7646214   2.088   2.589   7.587 -2.7432  1.6567  0.5613
   60MOL    H7746215   2.109   2.433   7.782 -0.0019  0.4100  0.5662
   60MOL    H7846216   2.249   2.743   8.029 -0.5402  0.6985 -1.2269
   60MOL    H7946217   2.245   2.900   7.850  0.1632  0.7620 -0.1755
   60MOL    C8046218   2.403   2.001   7.873  0.1890 -0.6778  0.0753
   60MOL    C8146219   2.319   2.121   7.937 -0.4770 -0.5993 -0.3338
   60MOL    C8246220   2.365   2.139   0.049  0.2067 -0.7154  0.3915
   60MOL    C8346221   2.309   2.249   0.128 -0.4124 -0.5915 -0.3527
   60MOL    O8446222   2.172   2.276   0.097  0.1741 -0.0941  0.7746
   60MOL    C8546223   2.346   2.011   0.124  0.2639 -1.0703  0.2228
   60MOL    C8646224   2.437   1.898   0.060  0.0014 -0.7323 -0.1056
   60MOL    C8746225   2.391   1.867   7.955  0.1311  0.0911 -0.4312
   60MOL    C8846226   2.483   1.756   7.896 -0.6312  0.2099  0.1163
   60MOL    O8946227   2.498   1.652   7.983  0.2645  0.3293 -0.0392
   60MOL    C9046228   2.567   1.544   7.942 -0.2460  0.3695  0.1430
   60MOL    O9146229   2.612   1.528   7.827 -0.4105  0.4833 -0.4066
   60MOL    C9246230   2.575   1.438   0.014 -0.4764 -0.3941 -0.7508
   60MOL    C9346231   2.653   1.328   8.018  0.4729 -0.1311  0.8800
   60MOL    C9446232   2.660   1.221   0.080  0.4645  0.1984 -0.0608
   60MOL    C9546233   2.597   1.229   0.204  0.4071  0.4149  0.0447
   60MOL    C9646234   2.611   1.117   0.302  0.1955 -0.0533  0.1937
   60MOL    O9746235   2.659   1.002   0.271 -0.5357  0.4271 -0.3223
   60MOL    O9846236   2.555   1.141   0.419 -0.2883  0.5807  0.2985
   60MOL    C9946237   2.518   1.347   0.230  0.6100 -0.0969 -0.3362
   60MOL   C10046238   2.515   1.454   0.138 -0.6510  0.4271  0.2080
   60MOL   H10146239   2.360   1.980   7.775 -2.0851 -0.9421  1.1092
   60MOL   H10246240   2.508   2.032   7.873  0.1581 -0.5723 -0.3618
   60MOL   H10346241   2.325   2.213   7.878  0.6022 -0.3918  0.0837
   60MOL   H10446242   2.213   2.099   7.934 -0.4680 -0.5301 -1.2450
   60MOL   H10546243   2.474   2.149   0.048  0.3985 -2.5335  1.1912
   60MOL   H10646244   2.317   2.231   0.236 -0.4353  0.1555 -0.2262
   60MOL   H10746245   2.375   2.335   0.118  1.2345 -1.7942 -0.1309
   60MOL   H10846246   2.372   2.021   0.230 -1.9329 -0.9740  0.7889
   60MOL   H10946247   2.241   1.980   0.125  0.4029 -1.5904  2.9468
   60MOL   H11046248   2.444   1.803   0.114 -0.1791 -1.0969 -0.7149
   60MOL   H11146249   2.541   1.930   0.057 -1.1281  3.0798 -1.5243
   60MOL   H11246250   2.292   1.822   7.957 -0.2569  0.9068 -1.2000
   60MOL   H11346251   2.425   1.732   7.807  0.3531 -1.3059 -0.1451
   60MOL   H11446252   2.585   1.791   7.878 -0.4266  0.0762  0.9792
   60MOL   H11546253   2.694   1.317   7.919  2.1362 -0.7774  1.6168
   60MOL   H11646254   2.711   1.130   0.051  1.5580  0.7822  0.0091
   60MOL   H11746255   2.477   1.362   0.329  0.4546 -0.4542 -0.3456
   60MOL   H11846256   2.474   1.549   0.167 -0.3657  0.7824 -0.5376
   60MOL   C11946257   2.590   1.242   0.960  0.3104 -0.6233  1.1150
   60MOL   C12046258   2.656   1.147   0.851  0.3143 -0.0712  0.9290
   60MOL   C12146259   2.561   1.119   0.730  0.2399 -0.2207  0.1312
   60MOL   C12246260   2.615   1.028   0.618  0.1861  0.2811  0.3924
   60MOL   O12346261   2.533   1.021   0.508 -0.2768  0.1318 -0.1681
   60MOL   C12446262   2.439   1.059   0.795 -0.2405 -0.4870  0.3624
   60MOL   C12546263   2.364   1.143   0.899 -0.6472  0.6322 -0.5406
   60MOL   C12646264   2.464   1.180   1.017 -0.0855  0.1840  0.1544
   60MOL   C12746265   2.400   1.262   1.133  0.0912  0.3306  0.1486
   60MOL   O12846266   2.346   1.384   1.084 -0.0453 -0.3389 -0.4959
   60MOL   C12946267   2.262   1.447   1.164  0.0173  0.2231  0.4170
   60MOL   O13046268   2.241   1.420   1.277 -0.0250  0.1382 -0.2116
   60MOL   C13146269   2.214   1.572   1.107 -0.7673 -0.2542  0.3919
   60MOL   C13246270   2.246   1.601   0.972 -0.1185  0.6034 -0.7138
   60MOL   C13346271   2.184   1.707   0.901  0.4178 -0.5339  0.2621
   60MOL   C13446272   2.090   1.787   0.976 -0.1767  0.1375 -0.3301
   60MOL   C13546273   2.014   1.893   0.909 -0.0154  0.6582  0.4238
   60MOL   O13646274   1.949   1.980   0.974 -0.2709  0.1607  0.2593
   60MOL   O13746275   1.998   1.870   0.773 -0.0174 -0.5391  0.0874
   60MOL   C13846276   2.063   1.759   1.113 -0.1997  0.2103 -0.0961
   60MOL   C13946277   2.118   1.648   1.177  0.7233  0.0539 -0.0869
   60MOL   H14046278   2.660   1.261   1.041 -1.3150  1.9935  1.9818
   60MOL   H14146279   2.581   1.337   0.907 -1.2274 -0.7140  1.2069
   60MOL   H14246280   2.747   1.196   0.816 -0.0574  0.6322  0.9288
   60MOL   H14346281   2.689   1.053   0.895 -1.8665 -1.1229  0.3941
   60MOL   H14446282   2.536   1.211   0.676  1.3649 -0.3124 -0.5561
   60MOL   H14546283   2.718   1.054   0.591 -0.3461  1.0671 -0.9374
   60MOL   H14646284   2.614   0.928   0.661  0.2090  0.4255  0.7274
   60MOL   H14746285   2.368   1.039   0.715  1.2211  2.4726 -1.7344
   60MOL   H14846286   2.466   0.963   0.840  0.6431  0.5607  2.1394
   60MOL   H14946287   2.288   1.075   0.939  2.9051 -1.0823  3.7734
   60MOL   H15046288   2.327   1.235   0.855 -1.9371  0.2478 -0.3025
   60MOL   H15146289   2.507   1.087   1.055 -0.0558  0.8493  1.7652
   60MOL   H15246290   2.327   1.208   1.192 -0.4431  1.0565  0.1591
   60MOL   H15346291   2.482   1.284   1.201 -0.3938  1.5317  0.3652
   60MOL   H15446292   2.317   1.540   0.918  0.7767  0.9583  0.0434
   60MOL   H15546293   2.201   1.728   0.796  2.3172 -2.7510  0.0967
   60MOL   H15646294   1.984   1.810   1.166  0.8125  1.6458  0.0644
   60MOL   H15746295   2.087   1.620   1.277 -0.1820 -1.8517 -0.8895
   60MOL   C15846296   1.401   1.992   0.660 -0.7921  0.2458 -0.5454
   60MOL   C15946297   1.521   1.922   0.728  0.0866 -0.5417  0.4780
   60MOL   C16046298   1.654   1.964   0.671  0.1239 -0.3462  0.1266
   60MOL   C16146299   1.764   1.875   0.739  0.4285  0.3007 -0.0488
   60MOL   O16246300   1.886   1.949   0.715  0.1475 -0.0928  0.3852
   60MOL   C16346301   1.665   1.951   0.515 -0.7957 -0.1066 -0.2899
   60MOL   C16446302   1.543   2.019   0.455 -0.6878  0.1726 -0.3076
   60MOL   C16546303   1.410   1.970   0.511 -0.0039  0.5928  0.4337
   60MOL   C16646304   1.288   2.036   0.434 -0.9693  0.2089 -0.2747
   60MOL   O16746305   1.285   2.042   0.291 -0.5281 -0.5525  0.1563
   60MOL   C16846306   1.338   2.158   0.226 -0.3173 -0.4734 -0.2132
   60MOL   O16946307   1.394   2.257   0.280  0.0349  0.6812 -1.0255
   60MOL   C17046308   1.299   2.166   0.088 -1.1285 -0.3409  0.1622
   60MOL   C17146309   1.291   2.287   0.023 -0.9790 -0.4475 -1.3523
   60MOL   C17246310   1.254   2.296   7.924  0.1609 -0.3753  0.1652
   60MOL   C17346311   1.223   2.181   7.852 -0.1022  0.2320 -0.8722
   60MOL   C17446312   1.175   2.186   7.712  0.6902 -0.2570 -0.5681
   60MOL   O17546313   1.132   2.084   7.658 -0.1417 -0.9744 -0.1586
   60MOL   O17646314   1.172   2.315   7.660 -0.0001 -0.5266  0.6001
   60MOL   C17746315   1.244   2.053   7.916  0.6133  0.0497  0.1309
   60MOL   C17846316   1.275   2.047   0.015 -0.2900  0.1251 -0.5548
   60MOL   H17946317   1.313   1.935   0.689 -0.2010 -0.0720  0.6542
   60MOL   H18046318   1.385   2.097   0.682 -1.3069  0.1372 -0.3938
   60MOL   H18146319   1.521   1.952   0.833  2.0095  1.5089 -0.0556
   60MOL   H18246320   1.500   1.816   0.713  1.5277 -0.5817 -1.3637
   60MOL   H18346321   1.665   2.069   0.697  1.8323 -0.2070 -1.0496
   60MOL   H18446322   1.729   1.853   0.840 -0.1567  1.5775  0.0389
   60MOL   H18546323   1.778   1.781   0.685 -0.1178  0.6853 -0.8584
   60MOL   H18646324   1.761   1.988   0.479 -0.1066 -1.4354  0.1567
   60MOL   H18746325   1.665   1.844   0.496  0.4503  0.0054 -0.9476
   60MOL   H18846326   1.548   1.992   0.349  1.8474 -0.0112 -0.1640
   60MOL   H18946327   1.563   2.124   0.471  2.6308 -0.2215 -1.6324
   60MOL   H19046328   1.402   1.864   0.487 -0.6679  0.8850 -0.6629
   60MOL   H19146329   1.200   1.980   0.467 -0.3453 -1.5599 -1.5422
   60MOL   H19246330   1.282   2.138   0.472  0.4441  0.0184  0.5021
   60MOL   H19346331   1.304   2.380   0.077 -0.5866 -0.7079 -0.9887
   60MOL   H19446332   1.243   2.393   7.878 -1.6463  0.2426  1.8337
   60MOL   H19546333   1.224   1.965   7.855  1.5383 -1.4593  1.9746
   60MOL   H19646334   1.286   1.949   0.059  1.1563  1.9339  3.3153
   60MOL   C19746335   0.742   2.634   7.500  0.7467  0.6116 -0.2203
   60MOL   C19846336   0.808   2.493   7.474 -0.3892  0.0806 -0.6027
   60MOL   C19946337   0.944   2.476   7.544 -0.4905  0.1093  0.4693
   60MOL   C20046338   0.992   2.340   7.517  0.3689 -0.1357  0.4067
   60MOL   O20146339   1.133   2.324   7.518 -0.6633  0.4012  0.1165
   60MOL   C20246340   1.039   2.587   7.492  0.5176 -0.6169 -0.2002
   60MOL   C20346341   0.988   2.730   7.501 -0.1535 -0.6409 -0.2038
   60MOL   C20446342   0.839   2.746   7.447  0.1044  0.1896  0.5151
   60MOL   C20546343   0.786   2.882   7.467  0.0770 -0.3696 -0.5604
   60MOL   O20646344   0.854   2.978   7.385 -0.5205  0.2226  0.0406
   60MOL   C20746345   0.788   3.067   7.313  0.2162 -0.5110 -0.0528
   60MOL   O20846346   0.668   3.062   7.288  0.4630 -0.0026  0.5658
   60MOL   C20946347   0.874   3.176   7.254 -0.6572 -0.6138  0.0029
   60MOL   C21046348   0.804   3.283   7.192  0.5259 -0.7757  0.5635
   60MOL   C21146349   0.884   3.398   7.154 -0.0523  0.0405  0.2785
   60MOL   C21246350   1.022   3.395   7.161  0.1056 -0.4469 -0.2982
   60MOL   C21346351   1.106   3.509   7.100  0.3087  0.5473 -0.4385
   60MOL   O21446352   1.074   3.578   7.004  0.2789 -0.4988 -0.0253
   60MOL   O21546353   1.227   3.515   7.158  0.3161 -0.3706 -0.5666
   60MOL   C21646354   1.089   3.282   7.210 -0.1625 -0.1679 -0.1640
   60MOL   C21746355   1.016   3.175   7.264 -0.3821  0.6460  0.4607
   60MOL   H21846356   0.650   2.649   7.443 -0.5281 -1.8563  1.0891
   60MOL   H21946357   0.720   2.650   7.606  2.0526 -0.7847  0.2769
   60MOL   H22046358   0.743   2.419   7.521  2.4300 -1.8668  0.3911
   60MOL   H22146359   0.805   2.463   7.369  1.2971 -0.8236 -0.4053
   60MOL   H22246360   0.949   2.501   7.650 -0.1176 -0.5079  0.5991
   60MOL   H22346361   0.951   2.255   7.571 -2.7343  1.3568  0.5500
   60MOL   H22446362   0.980   2.306   7.414  1.8800 -0.8873  0.4782
   60MOL   H22546363   1.137   2.586   7.540  0.7751 -2.7169 -0.7386
   60MOL   H22646364   1.057   2.569   7.386 -0.0284 -0.4333 -0.3276
   60MOL   H22746365   1.059   2.796   7.452 -0.3138 -0.8452 -0.7165
   60MOL   H22846366   0.971   2.764   7.603 -3.3448  1.3772 -1.3504
   60MOL   H22946367   0.850   2.723   7.341  0.5293  2.4011  0.0432
   60MOL   H23046368   0.680   2.891   7.443 -0.0375  0.4520  0.2379
   60MOL   H23146369   0.791   2.907   7.573 -0.8405  0.2381 -0.6569
   60MOL   H23246370   0.697   3.272   7.185  0.2554  1.5725  0.8937
   60MOL   H23346371   0.824   3.475   7.108 -2.8457 -1.3826  1.4298
   60MOL   H23446372   1.196   3.294   7.213 -0.1702 -0.1889  0.1962
   60MOL   H23546373   1.065   3.089   7.307 -2.1821 -0.5684  0.1349
   60MOL   C23646374   1.573   3.955   7.056 -0.5992  0.5363  0.1492
   60MOL   C23746375   1.507   3.828   7.098 -0.3141 -0.1222 -0.0101
   60MOL   C23846376   1.367   3.850   7.156 -0.0178  0.3749  0.0946
   60MOL   C23946377   1.306   3.726   7.218  0.7452  0.2032 -0.0852
   60MOL   O24046378   1.307   3.633   7.114 -0.1226 -0.0731  0.0703
   60MOL   C24146379   1.372   3.957   7.261  0.6270  0.3338  0.4537
   60MOL   C24246380   1.437   4.090   7.213 -0.3772  0.2953 -0.3897
   60MOL   C24346381   1.577   4.070   7.153  0.3828  0.6160  0.6409
   60MOL   C24446382   1.628   4.207   7.112 -0.1029  0.0379 -0.0523
   60MOL   O24546383   1.765   4.197   7.075  0.0241 -0.5002  0.3464
   60MOL   C24646384   1.849   4.302   7.086  0.5873 -0.6688 -0.4282
   60MOL   O24746385   1.822   4.414   7.136  0.0235 -0.1171  0.6864
   60MOL   C24846386   1.989   4.271   7.035  0.0311  0.0478  0.5681
   60MOL   C24946387   2.027   4.145   6.974 -0.0796 -0.2054 -0.1974
   60MOL   C25046388   2.158   4.117   6.921 -0.1424  0.0685  0.0004
   60MOL   C25146389   2.258   4.220   6.940 -0.0531  0.4332 -0.1328
   60MOL   C25246390   2.398   4.189   6.896 -0.4864 -0.0479  0.2741
   60MOL   O25346391   2.488   4.276   6.904 -0.2333 -0.7043 -0.1471
   60MOL   O25446392   2.418   4.057   6.856  0.4213  0.4171 -0.2337
   60MOL   C25546393   2.220   4.342   6.996 -0.1921 -0.2055 -0.4846
   60MOL   C25646394   2.091   4.369   7.041 -0.1332  0.3016 -0.1703
   60MOL   H25746395   1.673   3.945   7.014 -0.3166  0.5977  0.8128
   60MOL   H25846396   1.516   3.998   6.974 -1.3497  0.3285  0.5627
   60MOL   H25946397   1.496   3.750   7.023 -1.8536 -1.1721  1.2819
   60MOL   H26046398   1.566   3.778   7.175  0.3379 -1.9196 -1.6315
   60MOL   H26146399   1.303   3.871   7.071  1.2187 -1.9781 -1.4703
   60MOL   H26246400   1.368   3.684   7.298 -0.3282  2.1358  1.8255
   60MOL   H26346401   1.203   3.736   7.252  0.6668  2.3708 -0.9227
   60MOL   H26446402   1.269   3.979   7.289  0.7246  0.6736  0.5463
   60MOL   H26546403   1.418   3.912   7.348  0.7558  0.2901  0.3628
   60MOL   H26646404   1.444   4.157   7.298 -0.9631  0.3645 -0.3981
   60MOL   H26746405   1.377   4.146   7.142 -1.4420  1.5889  1.5186
   60MOL   H26846406   1.642   4.044   7.238  1.2180  2.2280  0.5166
   60MOL   H26946407   1.567   4.250   7.031 -0.8555  1.9236  1.4688
   60MOL   H27046408   1.617   4.277   7.194  0.0895 -1.2615  1.0942
   60MOL   H27146409   1.947   4.072   6.972 -0.8430  0.5920  0.7030
   60MOL   H27246410   2.180   4.023   6.872  0.6329 -0.9623  2.2470
   60MOL   H27346411   2.306   4.406   7.009 -0.2129 -0.0695 -1.0182
   60MOL   H27446412   2.068   4.458   7.097 -1.7931 -0.9359  1.1498
   60MOL   C27546413   2.858   3.804   6.638  0.0841  0.5089 -0.3077
   60MOL   C27646414   2.733   3.838   6.721 -0.5689  0.1532 -0.3032
   60MOL   C27746415   2.763   3.934   6.827  0.3170 -0.4957 -0.1213
   60MOL   C27846416   2.633   3.981   6.900  0.4731  0.3584  0.3975
   60MOL   O27946417   2.551   4.038   6.799 -0.2223  0.2105 -0.1638
   60MOL   C28046418   2.867   3.887   6.918 -1.0254  1.1074 -0.0329
   60MOL   C28146419   3.000   3.854   6.837 -0.6216 -0.1897 -0.8395
   60MOL   C28246420   2.974   3.758   6.725  0.1543 -0.5758 -0.5370
   60MOL   C28346421   3.100   3.733   6.646  0.2832 -0.2979  0.0083
   60MOL   O28446422   3.069   3.633   6.550  0.0440  0.1218 -0.6896
   60MOL   C28546423   3.042   3.499   6.592 -0.0852  0.0740 -0.0600
   60MOL   O28646424   3.072   3.445   6.701  1.0163 -0.1250 -0.5432
   60MOL   C28746425   2.972   3.428   6.485 -0.3802 -0.4247  0.1691
   60MOL   C28846426   2.948   3.290   6.491  0.0421 -0.2147  0.3325
   60MOL   C28946427   2.883   3.229   6.382 -0.6622 -0.5989 -0.0910
   60MOL   C29046428   2.845   3.296   6.265 -0.1626 -0.3900  0.3835
   60MOL   C29146429   2.777   3.240   6.145 -0.1568 -0.8307  0.1101
   60MOL   O29246430   2.723   3.308   6.058  0.7731 -0.4308  0.1539
   60MOL   O29346431   2.784   3.103   6.138  0.1058 -0.4677  0.5009
   60MOL   C29446432   2.864   3.438   6.261 -0.2129 -0.0932  1.2296
   60MOL   C29546433   2.925   3.497   6.371  0.3382  0.4480 -0.5309
   60MOL   H29646434   2.840   3.725   6.565  1.5374  0.2956 -0.4523
   60MOL   H29746435   2.891   3.895   6.589  1.8456 -1.1367 -2.2670
   60MOL   H29846436   2.659   3.877   6.651 -1.1374  1.5967  1.0655
   60MOL   H29946437   2.696   3.745   6.766  2.3094 -0.2935  1.2631
   60MOL   H30046438   2.792   4.028   6.778 -1.0525 -0.6873 -1.3605
   60MOL   H30146439   2.592   3.902   6.963  0.7080  0.2156  0.3722
   60MOL   H30246440   2.657   4.065   6.965  1.9833 -0.0898  0.4435
   60MOL   H30346441   2.903   3.972   6.976  1.4497 -1.0337  1.6645
   60MOL   H30446442   2.829   3.809   6.984 -1.2605  0.8371 -0.4797
   60MOL   H30546443   3.063   3.807   6.912 -1.8791 -0.7597 -0.1329
   60MOL   H30646444   3.045   3.946   6.798  2.5393 -0.9804  0.7883
   60MOL   H30746445   2.943   3.671   6.784  0.6849  0.7585  1.7503
   60MOL   H30846446   3.122   3.809   6.572  2.1316 -1.3949 -0.6099
   60MOL   H30946447   3.188   3.704   6.704  0.8103  1.5466  0.1447
   60MOL   H31046448   2.986   3.230   6.572  0.0727  0.0251  0.4941
   60MOL   H31146449   2.863   3.124   6.397  1.2347 -0.8372  0.8842
   60MOL   H31246450   2.835   3.510   6.186  0.6757 -0.1350  0.8417
   60MOL   H31346451   2.916   3.604   6.372 -1.3679  0.3031  0.9106
   60MOL   C31446452   2.572   2.738   5.729  0.0135  0.3099 -0.8735
   60MOL   C31546453   2.639   2.809   5.844  0.2521  0.6788 -0.1389
   60MOL   C31646454   2.570   2.943   5.871  0.0324  0.1502 -0.1687
   60MOL   C31746455   2.619   3.013   6.000 -0.2384  0.1813  0.2133
   60MOL   O31846456   2.749   3.061   6.000 -0.2660  0.6552 -0.2665
   60MOL   C31946457   2.578   3.031   5.745 -0.0497  0.2899 -0.3165
   60MOL   C32046458   2.515   2.963   5.627 -0.3891  0.3275  0.3190
   60MOL   C32146459   2.578   2.822   5.601  0.4526 -0.6426  0.5563
   60MOL   C32246460   2.527   2.752   5.480  0.0460 -0.0587  0.9921
   60MOL   O32346461   2.386   2.744   5.493 -0.2211  0.2676  0.0100
   60MOL   C32446462   2.301   2.679   5.399  0.0301 -0.1259  0.5090
   60MOL   O32546463   2.345   2.625   5.297 -0.1631 -0.1864 -0.6326
   60MOL   C32646464   2.158   2.669   5.453 -0.4504 -0.0282  0.4185
   60MOL   C32746465   2.131   2.725   5.581 -0.0430 -0.3949  0.3290
   60MOL   C32846466   2.000   2.712   5.631 -0.5151  0.0290  0.2582
   60MOL   C32946467   1.898   2.642   5.560  0.2537 -0.2558  0.4441
   60MOL   C33046468   1.772   2.610   5.621 -0.3220  0.2589  0.4135
   60MOL   O33146469   1.718   2.502   5.609 -0.2388  0.3909 -0.3147
   60MOL   O33246470   1.716   2.708   5.685 -0.5311  0.6349  0.4582
   60MOL   C33346471   1.925   2.588   5.430  0.1338 -0.1059 -0.2669
   60MOL   C33446472   2.054   2.604   5.378  0.1159 -0.7023 -0.6198
   60MOL   H33546473   2.614   2.638   5.717  1.2272  0.7949 -0.7978
   60MOL   H33646474   2.467   2.717   5.750  0.6209 -2.0390  0.0575
   60MOL   H33746475   2.637   2.738   5.926  1.4099  0.2626 -0.4571
   60MOL   H33846476   2.745   2.833   5.830  0.3473 -0.3028 -1.2194
   60MOL   H33946477   2.465   2.916   5.886 -0.1958  0.4486 -1.1774
   60MOL   H34046478   2.553   3.100   6.007 -0.4450  0.1166 -0.8975
   60MOL   H34146479   2.600   2.945   6.083  0.7722 -0.7652 -0.3051
   60MOL   H34246480   2.527   3.121   5.778 -1.4164 -0.2304 -0.9819
   60MOL   H34346481   2.678   3.066   5.721  0.0369 -0.4212 -1.0132
   60MOL   H34446482   2.530   3.030   5.543  2.4464 -0.5191  0.0983
   60MOL   H34546483   2.409   2.946   5.645 -0.4983  0.2877 -0.3492
   60MOL   H34646484   2.686   2.838   5.599  0.0358  2.3856  0.2391
   60MOL   H34746485   2.543   2.819   5.395 -0.2812  0.6866  1.5138
   60MOL   H34846486   2.583   2.659   5.468 -0.3246 -0.0672 -0.8160
   60MOL   H34946487   2.203   2.776   5.644  0.4620 -2.5283  1.5367
   60MOL   H35046488   1.973   2.770   5.718 -0.5991 -0.0557  0.2886
   60MOL   H35146489   1.849   2.538   5.371 -0.0200 -1.4632  1.0528
   60MOL   H35246490   2.053   2.568   5.276 -3.8823  2.4625 -1.8104
   60MOL   C35346491   1.259   2.645   6.035 -0.4551 -0.5527  0.8734
   60MOL   C35446492   1.380   2.695   5.950 -0.1070  0.2035  0.2830
   60MOL   C35546493   1.499   2.596   5.970  0.5247 -0.0052 -0.8052
   60MOL   C35646494   1.621   2.645   5.892 -0.0341  0.3847 -0.2626
   60MOL   O35746495   1.585   2.668   5.758 -0.1562 -0.0500  0.5975
   60MOL   C35846496   1.533   2.588   6.123  0.1393 -0.0469 -0.5860
   60MOL   C35946497   1.420   2.560   6.219 -0.1251 -0.1486  0.7618
   60MOL   C36046498   1.297   2.654   6.182 -0.0952  0.4000  0.1893
   60MOL   C36146499   1.184   2.614   6.280  0.9231 -1.1010 -0.6661
   60MOL   O36246500   1.138   2.482   6.270  0.1675 -0.1703  1.0567
   60MOL   C36346501   1.091   2.424   6.377 -0.1231 -0.2956 -0.2931
   60MOL   O36446502   1.080   2.480   6.488  0.4348 -0.2916  0.1170
   60MOL   C36546503   1.054   2.283   6.358  0.1510 -0.4124 -0.1902
   60MOL   C36646504   1.089   2.207   6.243  0.1626  0.3558 -0.2454
   60MOL   C36746505   1.065   2.071   6.235  0.1235  0.4561 -0.1083
   60MOL   C36846506   0.992   1.998   6.333 -0.0783 -0.1405 -0.8278
   60MOL   C36946507   0.952   1.858   6.325  0.8367  0.6811  0.1109
   60MOL   O37046508   0.883   1.804   6.417 -0.2834 -0.1891  0.5685
   60MOL   O37146509   1.007   1.795   6.222 -0.1573 -0.0882  0.0575
   60MOL   C37246510   0.959   2.071   6.447  1.1698 -0.4541 -0.4589
   60MOL   C37346511   0.994   2.209   6.462  0.1235 -0.2262 -0.3996
   60MOL   H37446512   1.176   2.711   6.012 -1.2060 -0.6623  3.1822
   60MOL   H37546513   1.231   2.543   6.011  0.4077 -0.5794 -0.0666
   60MOL   H37646514   1.351   2.701   5.846 -0.4657  0.5646  0.4029
   60MOL   H37746515   1.401   2.800   5.973  0.4812 -0.0053  0.7425
   60MOL   H37846516   1.468   2.498   5.933  1.9396 -1.0248  0.6236
   60MOL   H37946517   1.668   2.732   5.939 -2.8048  1.4574  0.6314
   60MOL   H38046518   1.702   2.571   5.891  0.2312  0.6486  0.8350
   60MOL   H38146519   1.606   2.508   6.117 -0.5407 -0.5361 -2.9731
   60MOL   H38246520   1.594   2.670   6.159 -1.1281  0.0459  1.4848
   60MOL   H38346521   1.464   2.574   6.317 -0.3981 -0.3070  0.9078
   60MOL   H38446522   1.384   2.457   6.216 -1.9895  0.4744  0.7184
   60MOL   H38546523   1.330   2.758   6.189  0.0371  0.4312 -0.8658
   60MOL   H38646524   1.227   2.627   6.379 -0.2580 -1.0739 -0.1434
   60MOL   H38746525   1.102   2.682   6.256  0.7078 -1.5364 -1.1747
   60MOL   H38846526   1.157   2.257   6.175  0.9195  0.9220  0.9112
   60MOL   H38946527   1.123   2.023   6.157 -0.9408 -3.5387  1.4434
   60MOL   H39046528   0.900   2.021   6.523  0.0337  1.2621 -0.1753
   60MOL   H39146529   0.949   2.257   6.548 -2.2588 -3.1016  0.0436
   60MOL   C39246530   1.243   1.504   5.908  0.4487  0.3125  0.3047
   60MOL   C39346531   1.193   1.583   6.026  0.7859 -0.1543  0.2653
   60MOL   C39446532   1.183   1.503   6.158 -0.0939 -0.0769 -0.2428
   60MOL   C39546533   1.115   1.586   6.268  0.0633  0.4421  0.0478
   60MOL   O39646534   0.986   1.643   6.231 -0.4151  0.2431 -0.8391
   60MOL   C39746535   1.103   1.372   6.127 -0.6255  0.2035 -0.8330
   60MOL   C39846536   1.166   1.290   6.022 -0.0859  0.5558  0.2111
   60MOL   C39946537   1.181   1.362   5.886 -0.2810 -0.0547  0.1420
   60MOL   C40046538   1.260   1.281   5.776 -0.1926 -0.0415  0.4853
   60MOL   O40146539   1.171   1.196   5.707  0.0120 -0.0432 -0.5345
   60MOL   C40246540   1.087   1.244   5.609  0.5881 -0.3692 -0.6209
   60MOL   O40346541   1.092   1.360   5.573  0.4213  0.4936  0.1443
   60MOL   C40446542   0.988   1.148   5.557  0.4589 -0.1138 -0.0703
   60MOL   C40546543   0.988   1.012   5.602 -0.3033 -0.3597  0.5291
   60MOL   C40646544   0.914   0.915   5.535  0.2246  0.7646  0.4259
   60MOL   C40746545   0.836   0.945   5.423 -0.4370  0.1533 -0.0884
   60MOL   C40846546   0.758   0.830   5.371 -0.1395 -0.8511  0.2526
   60MOL   O40946547   0.751   0.724   5.433  0.4616 -0.2369 -0.6500
   60MOL   O41046548   0.696   0.852   5.261  0.0804 -0.2714 -0.3739
   60MOL   C41146549   0.836   1.080   5.375 -0.2024  0.0755 -0.1281
   60MOL   C41246550   0.905   1.179   5.442  0.2248  0.6629  0.2124
   60MOL   H41346551   1.240   1.558   5.813 -2.8711 -0.4157 -0.0631
   60MOL   H41446552   1.350   1.493   5.927  0.2753 -1.4646  0.3438
   60MOL   H41546553   1.253   1.673   6.031  0.4430 -0.0506  2.9865
   60MOL   H41646554   1.092   1.608   5.994  0.2265 -1.0370  1.2909
   60MOL   H41746555   1.284   1.470   6.182 -0.2752 -0.8430 -0.5171
   60MOL   H41846556   1.112   1.535   6.364  0.3007 -1.2249 -0.7910
   60MOL   H41946557   1.178   1.672   6.292  2.7445 -0.8481 -2.0467
   60MOL   H42046558   1.090   1.317   6.220  1.6148  1.4017  0.2219
   60MOL   H42146559   1.001   1.401   6.102 -1.4321  0.3941  2.4729
   60MOL   H42246560   1.108   1.198   6.012 -2.1587  1.4769  3.1229
   60MOL   H42346561   1.266   1.263   6.057  0.7192  0.5086 -2.0055
   60MOL   H42446562   1.080   1.384   5.849  0.7104  1.3247 -1.8324
   60MOL   H42546563   1.317   1.346   5.710  0.0505  1.5132  2.1879
   60MOL   H42646564   1.343   1.234   5.830  0.3391 -0.9690 -1.0788
   60MOL   H42746565   1.044   0.974   5.686  0.4889 -1.8297 -0.6339
   60MOL   H42846566   0.923   0.812   5.569 -1.0700 -0.0264 -1.5243
   60MOL   H42946567   0.769   1.114   5.298  1.8163  0.7946 -1.5957
   60MOL   H43046568   0.895   1.281   5.407  1.5421  0.5267 -0.5896
   60MOL   C43146569   0.357   0.610   5.563  0.0162 -0.1269 -0.3716
   60MOL   C43246570   0.416   0.600   5.426 -0.4670 -0.3640  0.5944
   60MOL   C43346571   0.407   0.747   5.373 -0.2366 -0.0750 -0.2106
   60MOL   C43446572   0.472   0.770   5.229 -0.4907  0.1038 -0.3313
   60MOL   O43546573   0.614   0.735   5.210  0.4386  0.8694 -0.0068
   60MOL   C43646574   0.262   0.793   5.365 -0.9744  0.4207  0.3335
   60MOL   C43746575   0.191   0.781   5.504  0.1392  0.0312  0.3069
   60MOL   C43846576   0.200   0.635   5.556 -0.9561 -0.3280  0.8878
   60MOL   C43946577   0.113   0.599   5.685  0.2185  1.1250 -0.0371
   60MOL   O44046578   0.150   0.677   5.796  0.7986 -0.3568  0.6677
   60MOL   C44146579   0.060   0.736   5.879 -0.5120  0.8134 -0.5340
   60MOL   O44246580   7.977   0.731   5.854  0.4181  0.0973  0.3341
   60MOL   C44346581   0.118   0.817   5.987 -0.7082  0.2554  0.1400
   60MOL   C44446582   0.263   0.833   5.999  0.4415  0.4135  0.0284
   60MOL   C44546583   0.315   0.917   6.092  0.9637  0.2450 -0.0794
   60MOL   C44646584   0.232   0.980   6.186  0.1982 -0.0371 -0.2451
   60MOL   C44746585   0.290   1.066   6.297  0.1895  0.3360 -0.0943
   60MOL   O44846586   0.228   1.136   6.379 -0.1774  0.1195 -0.0233
   60MOL   O44946587   0.426   1.064   6.287 -0.3689 -0.4762 -0.2541
   60MOL   C45046588   0.092   0.960   6.178 -0.4503  0.7878 -0.6047
   60MOL   C45146589   0.039   0.883   6.078 -0.2759 -0.0618  0.1732
   60MOL   H45246590   0.373   0.512   5.608 -0.9255  0.3075  0.9331
   60MOL   H45346591   0.411   0.689   5.615  3.2713 -1.2206 -1.9231
   60MOL   H45446592   0.510   0.544   5.423  0.3957  1.1108 -1.6078
   60MOL   H45546593   0.358   0.540   5.354  2.9919 -2.2060 -0.7951
   60MOL   H45646594   0.458   0.808   5.448  4.5945 -2.3720 -1.4464
   60MOL   H45746595   0.412   0.724   5.151 -0.5796  0.2125 -0.3270
   60MOL   H45846596   0.465   0.875   5.203  0.1450  0.6465  1.5662
   60MOL   H45946597   0.252   0.892   5.321 -2.4096 -0.6089 -1.7582
   60MOL   H46046598   0.205   0.722   5.305 -1.3302 -0.4475  1.6829
   60MOL   H46146599   0.084   0.800   5.495  0.1702  1.3560  2.3718
   60MOL   H46246600   0.231   0.848   5.580  0.4026 -0.5123  0.6593
   60MOL   H46346601   0.171   0.582   5.465  2.4955 -1.0386  0.1311
   60MOL   H46446602   0.007   0.619   5.669 -1.0859 -2.6282  3.3064
   60MOL   H46546603   0.125   0.493   5.706  0.1722  0.8512 -1.3329
   60MOL   H46646604   0.326   0.783   5.927 -2.7001 -2.9025 -0.5456
   60MOL   H46746605   0.423   0.925   6.102  0.9716  0.5000 -0.3375
   60MOL   H46846606   0.032   1.007   6.255  2.7984 -0.6569  2.9938
   60MOL   H46946607   7.967   0.880   6.063 -0.2286  0.2067 -0.2072
   60MOL   C47046608   0.843   1.477   6.543  0.4212 -0.5624  0.3951
   60MOL   C47146609   0.768   1.423   6.418 -0.0588  0.0668  0.3939
   60MOL   C47246610   0.678   1.303   6.458 -0.2848  0.3793  0.1331
   60MOL   C47346611   0.589   1.243   6.343 -0.1061  0.3092  0.0150
   60MOL   O47446612   0.488   1.163   6.398  0.7171 -0.1346 -0.1131
   60MOL   C47546613   0.761   1.198   6.533  0.1974 -0.1815  0.2104
   60MOL   C47646614   0.847   1.254   6.644  0.5744  0.7708  0.2518
   60MOL   C47746615   0.934   1.373   6.610  0.2049 -0.3102 -0.3117
   60MOL   C47846616   1.010   1.423   6.732 -0.4841 -0.5295 -0.5184
   60MOL   O47946617   1.085   1.539   6.698  0.0009  0.0158 -0.3463
   60MOL   C48046618   1.122   1.620   6.793 -0.2738 -0.4740  0.2015
   60MOL   O48146619   1.120   1.580   6.909 -0.0616  0.1657 -0.0761
   60MOL   C48246620   1.172   1.760   6.749 -0.3763 -0.2294 -0.4574
   60MOL   C48346621   1.180   1.793   6.610 -0.2864 -0.5223  0.1804
   60MOL   C48446622   1.229   1.914   6.566  0.0015 -0.2677 -0.0172
   60MOL   C48546623   1.277   2.006   6.665 -0.3421 -0.2602  0.2443
   60MOL   C48646624   1.349   2.128   6.622 -0.1928 -1.0362 -0.1432
   60MOL   O48746625   1.391   2.140   6.504  0.1106 -0.7382  0.1997
   60MOL   O48846626   1.366   2.212   6.715 -0.1684 -0.4985 -0.1858
   60MOL   C48946627   1.255   1.985   6.803  0.0810 -0.1248 -0.4203
   60MOL   C49046628   1.214   1.855   6.843 -0.0728  0.9357 -0.0291
   60MOL   H49146629   0.898   1.568   6.518 -2.6056  1.0665 -0.6440
   60MOL   H49246630   0.769   1.513   6.614 -1.0436 -1.2410 -0.7548
   60MOL   H49346631   0.710   1.498   6.365  0.1577  0.8326  1.2165
   60MOL   H49446632   0.852   1.388   6.358 -1.7170  1.4445 -2.8397
   60MOL   H49546633   0.616   1.347   6.536  0.7005 -0.7866  1.5844
   60MOL   H49646634   0.555   1.320   6.274 -0.6369  0.0027 -0.0685
   60MOL   H49746635   0.646   1.179   6.276 -1.6793  2.3477 -3.4128
   60MOL   H49846636   0.688   1.130   6.577 -0.7787  1.0185  0.4487
   60MOL   H49946637   0.820   1.137   6.465 -0.0873  1.4689 -1.5594
   60MOL   H50046638   0.921   1.185   6.684  0.8589 -0.3016 -2.0606
   60MOL   H50146639   0.779   1.271   6.727  0.9037  0.0559  0.6714
   60MOL   H50246640   1.000   1.343   6.529 -1.1084 -1.5236 -0.9544
   60MOL   H50346641   0.954   1.437   6.824  0.9294 -1.4736  0.5208
   60MOL   H50446642   1.080   1.348   6.770  1.0860  1.2537  0.1870
   60MOL   H50546643   1.142   1.717   6.543 -0.5889 -0.1790 -0.0357
   60MOL   H50646644   1.228   1.947   6.463 -2.0585  0.9702  0.3756
   60MOL   H50746645   1.288   2.058   6.875 -0.5095 -1.3261  1.1040
   60MOL   H50846646   1.197   1.843   6.949  0.0046  3.4737  0.2964
   60MOL   C50946647   1.530   2.778   6.622 -0.4948  0.4854 -0.2312
   60MOL   C51046648   1.469   2.640   6.607  0.5312  0.1430  0.0822
   60MOL   C51146649   1.411   2.580   6.732 -0.5183  0.1786  0.3126
   60MOL   C51246650   1.340   2.450   6.710  0.8220  0.9448  0.6140
   60MOL   O51346651   1.436   2.341   6.690  0.2899  0.3065 -0.3197
   60MOL   C51446652   1.514   2.585   6.851  0.0498  0.3044  0.5875
   60MOL   C51546653   1.580   2.726   6.864 -0.5894  0.3293 -0.2871
   60MOL   C51646654   1.636   2.780   6.732  0.2935 -0.3353 -0.0890
   60MOL   C51746655   1.671   2.932   6.763  0.5302  0.2064 -0.2296
   60MOL   O51846656   1.721   3.007   6.653 -0.0952 -0.2129 -0.2528
   60MOL   C51946657   1.820   3.088   6.665 -0.0587  0.2786  0.3559
   60MOL   O52046658   1.882   3.108   6.768  0.3295  0.1944 -0.7714
   60MOL   C52146659   1.833   3.177   6.553  0.2239 -0.2798  0.2690
   60MOL   C52246660   1.760   3.173   6.433  0.1633  0.3224  0.3994
   60MOL   C52346661   1.786   3.270   6.337  0.4383 -0.0323 -0.3918
   60MOL   C52446662   1.897   3.350   6.339 -0.2013  0.2391 -0.0533
   60MOL   C52546663   1.912   3.442   6.223  0.3564 -0.2440  0.1635
   60MOL   O52646664   1.834   3.441   6.125  0.1165  0.2734 -0.1747
   60MOL   O52746665   2.030   3.505   6.224 -0.4692  0.0196  0.1680
   60MOL   C52846666   1.968   3.362   6.458 -0.6843 -0.7036 -0.1048
   60MOL   C52946667   1.934   3.279   6.571 -0.3492 -0.4972  0.9945
   60MOL   H53046668   1.552   2.833   6.530  0.8935  0.4266  0.0493
   60MOL   H53146669   1.449   2.844   6.650 -1.9739 -0.8014 -1.3472
   60MOL   H53246670   1.399   2.630   6.524 -0.5629  0.8189  0.9100
   60MOL   H53346671   1.547   2.574   6.569 -1.1050 -0.2734 -2.7594
   60MOL   H53446672   1.338   2.655   6.759 -0.0564  0.9233 -0.4782
   60MOL   H53546673   1.292   2.423   6.804 -0.5242 -0.4208 -0.4508
   60MOL   H53646674   1.276   2.446   6.622  0.4569  1.7581  0.8409
   60MOL   H53746675   1.470   2.551   6.944  2.4327 -3.2840  0.5243
   60MOL   H53846676   1.595   2.516   6.826 -0.0558 -0.1295  1.4440
   60MOL   H53946677   1.647   2.717   6.949 -0.0810  1.6507 -0.5315
   60MOL   H54046678   1.505   2.798   6.899 -1.5635 -0.3782 -0.8691
   60MOL   H54146679   1.727   2.730   6.700 -0.3647 -1.0563 -0.8489
   60MOL   H54246680   1.575   2.977   6.786  0.3058 -0.5467  0.3538
   60MOL   H54346681   1.737   2.944   6.849 -0.1640 -2.9640  0.8263
   60MOL   H54446682   1.669   3.114   6.425 -0.2930  0.7721  2.1607
   60MOL   H54546683   1.719   3.275   6.252 -0.7572 -1.4643  0.4549
   60MOL   H54646684   2.053   3.429   6.465 -0.6451 -0.6980 -0.6192
   60MOL   H54746685   1.988   3.298   6.662  0.3992  0.1525  0.4348
   60MOL   C54846686   2.200   3.612   5.686  0.5049  0.0231 -0.3124
   60MOL   C54946687   2.134   3.565   5.821  0.1349  0.1938  0.4228
   60MOL   C55046688   2.233   3.501   5.906 -0.3047 -0.6342 -0.2614
   60MOL   C55146689   2.162   3.457   6.038 -0.0805  0.4299 -0.0815
   60MOL   O55246690   2.082   3.558   6.097 -0.2467  0.3171 -1.2718
   60MOL   C55346691   2.292   3.379   5.845 -0.8378 -0.1366  0.6293
   60MOL   C55446692   2.368   3.421   5.722  0.0156  0.1754  0.4969
   60MOL   C55546693   2.263   3.488   5.626  0.1250 -0.0370  0.4448
   60MOL   C55646694   2.336   3.527   5.494 -0.0289  0.1381  0.2233
   60MOL   O55746695   2.252   3.500   5.385  0.1024  0.2708 -0.0541
   60MOL   C55846696   2.315   3.479   5.266 -0.6766  0.4431  0.0082
   60MOL   O55946697   2.432   3.522   5.249 -0.1200  0.2640  0.1556
   60MOL   C56046698   2.234   3.431   5.152 -0.1250 -0.4400 -0.3505
   60MOL   C56146699   2.108   3.380   5.178  0.6042 -0.5622  0.0975
   60MOL   C56246700   2.020   3.331   5.076  0.4828 -0.1723  0.1787
   60MOL   C56346701   2.064   3.353   4.941 -0.5216  0.5529  1.1776
   60MOL   C56446702   1.982   3.309   4.820  0.3180 -0.4630 -0.2081
   60MOL   O56546703   2.011   3.330   4.700 -0.1199 -0.5552  0.2931
   60MOL   O56646704   1.876   3.224   4.851  0.2797 -0.4582 -0.6207
   60MOL   C56746705   2.196   3.402   4.920  0.1124  0.5082 -0.4419
   60MOL   C56846706   2.284   3.435   5.024 -0.4410 -0.3800 -0.5493
   60MOL   H56946707   2.124   3.650   5.618  2.3571  1.4561 -1.5959
   60MOL   H57046708   2.275   3.688   5.706  0.8558 -0.0528 -1.3484
   60MOL   H57146709   2.081   3.642   5.877  0.1224 -0.5505  1.4706
   60MOL   H57246710   2.051   3.495   5.807  0.5974 -0.2410 -0.1302
   60MOL   H57346711   2.308   3.575   5.932 -2.1391  0.3044  2.5476
   60MOL   H57446712   2.098   3.368   6.029  1.6011 -1.1793  3.1546
   60MOL   H57546713   2.239   3.424   6.106 -1.6214 -2.8525  0.1987
   60MOL   H57646714   2.362   3.324   5.906 -0.4573  0.3464  0.6318
   60MOL   H57746715   2.221   3.302   5.814 -0.8900  0.4968 -0.8859
   60MOL   H57846716   2.426   3.338   5.682  1.4383  1.5175 -0.2502
   60MOL   H57946717   2.440   3.494   5.760 -0.1452  0.1002  0.9578
   60MOL   H58046718   2.192   3.408   5.603  0.0182 -0.1281  1.0923
   60MOL   H58146719   2.389   3.622   5.500  1.0326 -0.4661  0.6510
   60MOL   H58246720   2.427   3.466   5.497 -1.0436 -1.4583 -0.7507
   60MOL   H58346721   2.077   3.377   5.282  1.0438  1.0286  0.2989
   60MOL   H58446722   1.919   3.296   5.096 -0.4939  1.4581 -1.6907
   60MOL   H58546723   2.235   3.416   4.821  1.6532 -0.8910 -0.0564
   60MOL   H58646724   2.380   3.482   5.009 -0.5521  1.1910  3.1833
   60MOL   C58746725   1.590   2.952   4.402  0.0413  0.3443  0.1643
   60MOL   C58846726   1.700   3.015   4.490  0.3784 -0.5350  0.4115
   60MOL   C58946727   1.685   2.981   4.647 -0.8008  0.6246  0.4172
   60MOL   C59046728   1.797   3.032   4.742 -0.5061 -0.1657  0.4442
   60MOL   O59146729   1.793   3.175   4.744 -0.2489 -0.2555 -0.6437
   60MOL   C59246730   1.544   3.013   4.687 -0.9501  0.1205  0.2753
   60MOL   C59346731   1.437   2.952   4.600 -0.2091  0.1623 -0.1305
   60MOL   C59446732   1.449   2.997   4.454  0.6557  0.2157 -0.1085
   60MOL   C59546733   1.340   2.925   4.372  0.3832  0.4339 -0.6506
   60MOL   O59646734   1.344   2.968   4.240 -0.2051 -0.3499 -0.2148
   60MOL   C59746735   1.256   2.940   4.147  0.0732 -0.1092 -0.6780
   60MOL   O59846736   1.144   2.892   4.174  0.1375 -0.0425 -0.3070
   60MOL   C59946737   1.295   2.990   4.020  0.3504 -0.2184  0.0348
   60MOL   C60046738   1.212   2.959   3.915  0.5610 -0.0834 -0.2745
   60MOL   C60146739   1.240   3.009   3.788  0.6971 -0.1832 -0.3466
   60MOL   C60246740   1.361   3.080   3.761 -0.7688 -0.0896 -0.0853
   60MOL   C60346741   1.406   3.119   3.626 -0.5738  0.3031  0.3235
   60MOL   O60446742   1.523   3.133   3.590  0.0271 -0.1604  0.6246
   60MOL   O60546743   1.299   3.135   3.544  0.3191 -0.8774  0.0734
   60MOL   C60646744   1.449   3.110   3.867  0.6238 -0.0329 -0.3070
   60MOL   C60746745   1.411   3.065   3.998  0.1999  0.7320  0.3982
   60MOL   H60846746   1.598   2.968   4.295 -1.5548 -1.4184 -0.2397
   60MOL   H60946747   1.605   2.845   4.415  2.0132  0.5119 -0.5377
   60MOL   H61046748   1.796   2.990   4.446  0.4651 -0.2251  0.4259
   60MOL   H61146749   1.690   3.123   4.486 -1.0286 -0.7334 -1.6070
   60MOL   H61246750   1.700   2.873   4.651  0.0890  0.6437 -1.5445
   60MOL   H61346751   1.788   2.998   4.846  0.6310 -1.5358  0.1176
   60MOL   H61446752   1.895   3.006   4.702 -0.9629  0.1975 -0.9061
   60MOL   H61546753   1.524   2.987   4.791  0.4670  0.9180  0.7656
   60MOL   H61646754   1.533   3.121   4.675 -2.0625 -0.2023 -1.7243
   60MOL   H61746755   1.350   2.997   4.647 -0.7116 -1.0725  0.1371
   60MOL   H61846756   1.427   2.845   4.617  0.9091  0.4185  2.3261
   60MOL   H61946757   1.429   3.103   4.438  1.4323  0.3012 -0.5140
   60MOL   H62046758   1.340   2.816   4.384  3.0361  0.4671 -0.0181
   60MOL   H62146759   1.243   2.956   4.410  0.4139  2.4812 -2.1367
   60MOL   H62246760   1.123   2.899   3.927  0.3641 -0.3204 -2.6559
   60MOL   H62346761   1.167   2.990   3.710 -0.7154 -0.1704  0.9519
   60MOL   H62446762   1.545   3.151   3.842 -0.3194  2.6736  0.3271
   60MOL   H62546763   1.483   3.088   4.075  1.9869 -0.6997 -0.8099
   60MOL   C62646764   1.234   3.490   3.054  0.1761 -0.0475  0.0189
   60MOL   C62746765   1.319   3.453   3.181  0.7877 -0.0657  0.7287
   60MOL   C62846766   1.284   3.315   3.239 -0.0342 -0.1256 -0.2413
   60MOL   C62946767   1.354   3.299   3.374  0.1620  0.1977 -0.0786
   60MOL   O63046768   1.335   3.160   3.395  0.5050  0.2510  0.4134
   60MOL   C63146769   1.134   3.300   3.250  0.5029  1.0402 -0.5700
   60MOL   C63246770   1.060   3.333   3.122 -0.0321  0.0134  0.2058
   60MOL   C63346771   1.084   3.477   3.067 -0.0900  0.4159  0.0224
   60MOL   C63446772   1.013   3.495   2.934 -0.2116  0.7833 -0.4414
   60MOL   O63546773   1.018   3.633   2.899  0.1616  0.0381  0.6477
   60MOL   C63646774   1.089   3.676   2.793 -0.2820  0.1547 -0.6916
   60MOL   O63746775   1.172   3.602   2.738  0.2088  0.1759 -0.0560
   60MOL   C63846776   1.067   3.819   2.767  0.3048 -0.2767  0.3318
   60MOL   C63946777   1.136   3.880   2.656  0.7706  0.5621  0.2311
   60MOL   C64046778   1.122   4.016   2.630  0.7410 -0.0929 -0.3906
   60MOL   C64146779   1.038   4.093   2.716 -0.5913 -0.8536  0.8904
   60MOL   C64246780   1.019   4.239   2.678  0.7132  0.1218 -0.6910
   60MOL   O64346781   1.045   4.284   2.563  0.3543 -0.2908 -0.0611
   60MOL   O64446782   0.977   4.315   2.781 -0.2811  0.2127  0.4472
   60MOL   C64546783   0.977   4.032   2.833  0.2039 -0.2700 -0.0708
   60MOL   C64646784   1.001   3.897   2.860  0.1745  0.2319 -0.0999
   60MOL   H64746785   1.261   3.593   3.031 -0.6722  0.3610  0.8149
   60MOL   H64846786   1.274   3.422   2.978  2.2611  1.9497 -0.7300
   60MOL   H64946787   1.426   3.458   3.165  0.4256  2.5120 -1.0781
   60MOL   H65046788   1.295   3.532   3.253 -0.3087 -0.0373  0.3428
   60MOL   H65146789   1.329   3.246   3.167 -0.0353 -1.5086  1.0760
   60MOL   H65246790   1.460   3.322   3.376  1.1585 -4.0462  0.8322
   60MOL   H65346791   1.295   3.340   3.456  3.0006  1.2296  1.4902
   60MOL   H65446792   1.099   3.202   3.282  0.3112  1.1043 -0.5815
   60MOL   H65546793   1.085   3.361   3.326 -2.1571 -1.4586 -0.1907
   60MOL   H65646794   0.953   3.324   3.140 -0.2940  0.2330 -1.1441
   60MOL   H65746795   1.094   3.256   3.054  0.3733  1.3668 -1.1667
   60MOL   H65846796   1.044   3.548   3.139  0.2400 -0.3174  0.9331
   60MOL   H65946797   1.070   3.428   2.869 -1.6119 -0.1699 -0.7033
   60MOL   H66046798   0.910   3.469   2.957  0.6583 -1.8311  0.6091
   60MOL   H66146799   1.194   3.812   2.596 -0.8758  0.6058 -1.4554
   60MOL   H66246800   1.173   4.062   2.548 -1.0100 -0.7723 -1.8942
   60MOL   H66346801   0.915   4.081   2.907 -1.1333  0.7553 -1.8321
   60MOL   H66446802   0.950   3.850   2.943 -1.0682  0.2256 -0.8670
   60MOL   C66546803   0.916   4.893   2.700  0.8409  0.0791 -0.9601
   60MOL   C66646804   0.971   4.749   2.709 -0.0028 -0.1137 -0.6265
   60MOL   C66746805   0.953   4.678   2.839 -0.4802  0.1075  0.3381
   60MOL   C66846806   1.022   4.538   2.849  0.2947 -0.3661 -0.5073
   60MOL   O66946807   0.952   4.460   2.748  0.2691  0.4477  0.5400
   60MOL   C67046808   0.980   4.771   2.959 -0.3002  0.6296 -0.3662
   60MOL   C67146809   0.909   4.902   2.949  0.0909  0.6250 -0.2097
   60MOL   C67246810   0.945   4.985   2.821  0.4889 -0.0307  0.4852
   60MOL   C67346811   0.879   5.127   2.822  0.2128 -0.2541  0.2007
   60MOL   O67446812   0.961   5.222   2.752 -0.3500  0.4185  0.0009
   60MOL   C67546813   0.921   5.344   2.766  0.1652  0.4637  0.1149
   60MOL   O67646814   0.830   5.383   2.841 -0.6252  0.2324  0.1599
   60MOL   C67746815   0.997   5.435   2.675  0.0455 -0.5140 -0.4694
   60MOL   C67846816   0.966   5.572   2.675  0.7309 -0.5891  0.0706
   60MOL   C67946817   1.034   5.670   2.595  0.1051  0.0497  0.5334
   60MOL   C68046818   1.143   5.625   2.520  0.7355  0.9992 -0.0571
   60MOL   C68146819   1.221   5.720   2.436  0.2636 -0.5718  1.1036
   60MOL   O68246820   1.290   5.688   2.343  0.0791  0.2320 -0.0658
   60MOL   O68346821   1.205   5.846   2.476  0.1845 -0.3569  0.2018
   60MOL   C68446822   1.182   5.489   2.525 -0.5183 -0.2223 -0.0863
   60MOL   C68546823   1.114   5.395   2.604  0.1320  0.8237  0.0241
   60MOL   H68646824   0.956   4.949   2.615  1.3301  0.6264 -0.3739
   60MOL   H68746825   0.808   4.888   2.688  0.3613  0.9073  2.5081
   60MOL   H68846826   0.916   4.699   2.629  0.1924  0.6843 -1.2731
   60MOL   H68946827   1.073   4.760   2.671  0.0353  1.5855 -0.0507
   60MOL   H69046828   0.846   4.657   2.838 -0.3352 -0.6518 -0.9943
   60MOL   H69146829   1.129   4.531   2.829  0.6487 -0.3394  1.2233
   60MOL   H69246830   1.014   4.485   2.945  1.2643  0.0659 -0.1789
   60MOL   H69346831   0.938   4.732   3.052  1.1431 -0.6611 -0.2489
   60MOL   H69446832   1.086   4.792   2.969 -0.4235  0.7409  0.8233
   60MOL   H69546833   0.918   4.965   3.038 -1.5256  1.0903 -0.3733
   60MOL   H69646834   0.803   4.879   2.942 -0.1754  0.9347  2.2613
   60MOL   H69746835   1.054   4.994   2.821  0.4303  0.7648  1.4872
   60MOL   H69846836   0.782   5.110   2.774 -0.1218 -0.2314  0.8592
   60MOL   H69946837   0.861   5.147   2.928 -2.1036  0.8822 -0.3643
   60MOL   H70046838   0.876   5.610   2.722 -0.1825 -0.0912 -1.9718
   60MOL   H70146839   0.997   5.770   2.581 -1.4985 -0.5973 -0.0922
   60MOL   H70246840   1.277   5.466   2.478  0.5847  2.9594  0.4604
   60MOL   H70346841   1.158   5.299   2.621  0.2317  0.6646 -1.1060
   60MOL   C70446842   1.624   6.129   2.196  0.0654  0.3415  0.0149
   60MOL   C70546843   1.536   6.017   2.262  0.8631 -0.5182  0.1709
   60MOL   C70646844   1.527   6.038   2.413  0.1379  0.6811  0.1901
   60MOL   C70746845   1.422   5.939   2.478  0.2863  0.7547  0.3964
   60MOL   O70846846   1.296   5.944   2.410 -0.1219  0.2373 -1.0333
   60MOL   C70946847   1.674   6.014   2.463  0.4486  0.8543  0.2332
   60MOL   C71046848   1.765   6.129   2.403 -0.1216  0.9711 -0.9164
   60MOL   C71146849   1.762   6.125   2.248  0.5327 -0.1158  0.7729
   60MOL   C71246850   1.847   6.241   2.190  0.0403 -0.0750  0.8054
   60MOL   O71346851   1.984   6.236   2.229  0.7310  0.5343  0.6662
   60MOL   C71446852   2.077   6.265   2.136 -0.4178 -0.1274 -1.0487
   60MOL   O71546853   2.056   6.307   2.023  0.2671 -0.1530 -0.1267
   60MOL   C71646854   2.212   6.233   2.184 -0.1304 -0.3297  0.1051
   60MOL   C71746855   2.240   6.210   2.324 -0.8354  0.2015  0.1589
   60MOL   C71846856   2.364   6.169   2.363  0.0083 -0.4351 -0.6147
   60MOL   C71946857   2.466   6.148   2.264  0.0755 -0.7625 -0.3166
   60MOL   C72046858   2.599   6.086   2.295  0.5701  0.0503 -0.4976
   60MOL   O72146859   2.699   6.106   2.226 -0.6223  0.3034 -0.1152
   60MOL   O72246860   2.601   6.028   2.413  0.5042  0.0597 -0.0995
   60MOL   C72346861   2.444   6.177   2.126  0.6550  0.2101  0.2709
   60MOL   C72446862   2.313   6.216   2.087  0.0718 -0.1223 -0.7073
   60MOL   H72546863   1.617   6.113   2.088 -1.0229  0.8606  0.0005
   60MOL   H72646864   1.576   6.226   2.209 -1.0179 -0.0901 -0.6866
   60MOL   H72746865   1.434   6.019   2.225  0.5559  3.7649  0.9225
   60MOL   H72846866   1.582   5.921   2.242  0.4083 -0.6345 -0.3218
   60MOL   H72946867   1.509   6.140   2.446 -0.2287  0.2597  1.3383
   60MOL   H73046868   1.468   5.841   2.471 -0.6206  0.2817  0.9895
   60MOL   H73146869   1.399   5.969   2.580  3.4074  2.0903  0.7663
   60MOL   H73246870   1.671   6.016   2.572  0.4660  1.5393  0.2212
   60MOL   H73346871   1.714   5.915   2.440 -0.3813  0.5518  0.0528
   60MOL   H73446872   1.863   6.133   2.450 -1.2644  0.0592  1.6336
   60MOL   H73546873   1.712   6.218   2.437  0.3280  1.0488 -0.4173
   60MOL   H73646874   1.808   6.033   2.214  5.0706  1.7744  1.4744
   60MOL   H73746875   1.824   6.240   2.083 -0.4980  0.7955  0.9121
   60MOL   H73846876   1.802   6.336   2.220 -0.9597 -0.5913  0.9551
   60MOL   H73946877   2.163   6.218   2.399 -0.1597  1.0534  0.7651
   60MOL   H74046878   2.394   6.152   2.466 -0.6571 -0.4752 -0.4287
   60MOL   H74146879   2.531   6.173   2.062  0.7784  0.5753  0.4138
   60MOL   H74246880   2.286   6.237   1.985 -0.9779  1.5317 -0.1028
   60MOL   C74346881   2.931   5.842   2.815 -0.1072 -0.0135 -0.5256
   60MOL   C74446882   2.826   5.904   2.725 -0.2125 -0.0079  0.3819
   60MOL   C74546883   2.885   6.018   2.647  0.1613 -0.9243  0.7927
   60MOL   C74646884   2.785   6.078   2.552 -0.4629 -0.8115 -0.1200
   60MOL   O74746885   2.731   5.976   2.473  0.6948 -0.1621 -0.1412
   60MOL   C74846886   2.951   6.121   2.746  0.6227  0.0527  0.2802
   60MOL   C74946887   3.061   6.055   2.827 -0.3887  0.3828  0.1882
   60MOL   C75046888   3.002   5.934   2.907  0.2094  0.4927 -0.3010
   60MOL   C75146889   3.110   5.862   2.990 -0.8658 -0.1408  0.3094
   60MOL   O75246890   3.054   5.842   3.119 -0.3728  0.2195 -0.2041
   60MOL   C75346891   3.147   5.819   3.216 -0.0549 -0.2985 -0.5688
   60MOL   O75446892   3.263   5.795   3.199 -0.1069 -0.3022  0.0272
   60MOL   C75546893   3.087   5.814   3.352 -0.8675  0.1680  0.0812
   60MOL   C75646894   2.946   5.836   3.359 -0.0017  0.2976 -0.5582
   60MOL   C75746895   2.882   5.838   3.484 -0.2774 -0.2461 -0.4095
   60MOL   C75846896   2.954   5.819   3.602  0.6732  0.4940  0.1375
   60MOL   C75946897   2.876   5.824   3.729 -0.0625  0.0764  0.0756
   60MOL   O76046898   2.769   5.879   3.748 -0.3977 -0.2090 -0.7742
   60MOL   O76146899   2.946   5.762   3.829  0.2038 -0.1555 -0.0841
   60MOL   C76246900   3.093   5.790   3.594  0.3318 -0.0843 -0.8961
   60MOL   C76346901   3.160   5.784   3.471  0.1713 -0.0753 -0.0861
   60MOL   H76446902   2.883   5.758   2.866 -0.4739  0.4135 -0.1662
   60MOL   H76546903   3.004   5.800   2.746  0.3176 -0.4332  0.1777
   60MOL   H76646904   2.790   5.826   2.658 -0.9967 -1.5499  2.5549
   60MOL   H76746905   2.740   5.940   2.782 -1.0816 -1.2572 -0.1152
   60MOL   H76846906   2.964   5.974   2.587  0.0662  0.1760 -0.1515
   60MOL   H76946907   2.707   6.127   2.610 -0.3714 -1.7172  0.7624
   60MOL   H77046908   2.826   6.145   2.475  0.9968 -1.1987  0.3105
   60MOL   H77146909   2.977   6.212   2.692 -0.0343  0.6753  0.9971
   60MOL   H77246910   2.882   6.166   2.817 -0.9770 -0.3228 -1.0259
   60MOL   H77346911   3.097   6.134   2.893 -2.6392  2.1009 -0.5879
   60MOL   H77446912   3.143   6.012   2.769  1.9745 -0.3353  3.8678
   60MOL   H77546913   2.923   5.972   2.971  0.0410 -1.4728  0.6996
   60MOL   H77646914   3.135   5.763   2.952  1.2850  0.4561  0.0787
   60MOL   H77746915   3.192   5.934   2.984  0.1843 -1.0410  2.7917
   60MOL   H77846916   2.888   5.850   3.269 -0.8243 -0.3651 -0.1409
   60MOL   H77946917   2.774   5.845   3.490 -0.1020  1.9330  0.8389
   60MOL   H78046918   3.141   5.760   3.686 -1.7914 -0.4534  0.1238
   60MOL   H78146919   3.264   5.757   3.469  0.8681  2.5272 -1.8719
   60MOL   H78246920   2.901   5.774   3.911  1.5725 -0.9898  0.8218
   61MOL     C146921   0.881   3.408   5.113 -0.3962 -0.6662 -0.3663
   61MOL     C246922   1.012   3.343   5.155  0.2595 -0.3321  0.3269
   61MOL     C346923   1.124   3.382   5.059 -0.0233  0.2438 -0.4898
   61MOL     C446924   1.250   3.310   5.102 -0.4116 -0.1234 -0.2049
   61MOL     O546925   1.294   3.349   5.240  0.2646 -0.5275 -0.2907
   61MOL     C646926   1.089   3.344   4.913 -0.1447 -0.1291  0.0122
   61MOL     C746927   0.957   3.414   4.875  0.4796 -0.8048 -0.0075
   61MOL     C846928   0.836   3.376   4.971 -0.1553  0.0675  0.0893
   61MOL     C946929   0.703   3.449   4.922 -0.6283  0.0894 -0.7782
   61MOL    O1046930   0.601   3.405   5.016  0.3286  0.0251  0.2948
   61MOL    C1146931   0.469   3.392   4.976  0.1406 -0.0723 -0.5243
   61MOL    O1246932   0.442   3.416   4.863  0.5996 -0.4132  0.4229
   61MOL    C1346933   0.383   3.352   5.088 -0.1159 -0.5659 -0.1206
   61MOL    C1446934   0.433   3.348   5.223  0.1020  0.0165 -0.1021
   61MOL    C1546935   0.352   3.306   5.327  0.5096 -0.7570  0.3168
   61MOL    C1646936   0.216   3.272   5.303  0.6617 -0.6357  0.1087
   61MOL    C1746937   0.133   3.224   5.413 -0.2199 -0.3546 -0.6918
   61MOL    O1846938   0.014   3.213   5.391 -0.1385 -0.2140 -0.1001
   61MOL    O1946939   0.198   3.208   5.529 -0.0446 -0.0001 -0.4340
   61MOL    C2046940   0.167   3.278   5.167  0.4501 -0.2510  0.3291
   61MOL    C2146941   0.244   3.333   5.062 -0.0704  0.1024 -0.2346
   61MOL    H2246942   0.801   3.395   5.186  0.2187 -2.3992  0.0156
   61MOL    H2346943   0.897   3.516   5.117  1.3633 -0.8049 -2.7465
   61MOL    H2446944   1.041   3.375   5.255 -1.6218  0.8455  0.5267
   61MOL    H2546945   1.008   3.234   5.151 -2.0179 -0.2541  0.1166
   61MOL    H2646946   1.131   3.490   5.073 -2.9008  0.6337 -1.6899
   61MOL    H2746947   1.231   3.203   5.098  1.3187 -0.3825 -2.3396
   61MOL    H2846948   1.335   3.315   5.034 -0.4591 -0.0281 -0.2573
   61MOL    H2946949   1.171   3.385   4.854 -1.5891  2.1894 -0.4331
   61MOL    H3046950   1.087   3.236   4.898 -0.8102  0.0990 -1.6347
   61MOL    H3146951   0.922   3.383   4.777  1.3582  1.0154 -0.9206
   61MOL    H3246952   0.985   3.519   4.881  1.7860 -1.1660  0.5068
   61MOL    H3346953   0.824   3.268   4.973  1.6882 -0.1588  0.0501
   61MOL    H3446954   0.712   3.556   4.935 -2.7264  0.2186 -0.1972
   61MOL    H3546955   0.678   3.414   4.821 -0.1838 -0.6204 -0.6425
   61MOL    H3646956   0.539   3.360   5.240 -0.0407  0.4893  0.5033
   61MOL    H3746957   0.384   3.309   5.430 -1.3997 -0.4769  0.9264
   61MOL    H3846958   0.063   3.250   5.158  0.1262  0.6055  1.2997
   61MOL    H3946959   0.198   3.350   4.966 -0.2281 -0.1200 -0.1998
   61MOL    H4046960   1.334   3.434   5.228  0.1202 -0.4925 -0.5224
   61MOL    C4146961   8.035   2.662   5.788 -0.3491 -0.0052  0.0631
   61MOL    C4246962   0.107   2.762   5.741 -0.3995 -0.4804 -0.1490
   61MOL    C4346963   0.051   2.903   5.703 -0.3121 -0.1234 -0.0280
   61MOL    C4446964   0.158   2.998   5.640 -0.3046  0.5312  0.1289
   61MOL    O4546965   0.111   3.129   5.633 -0.8661 -0.4527 -0.1796
   61MOL    C4646966   7.959   2.895   5.608 -0.4843  0.7844  0.0686
   61MOL    C4746967   7.853   2.800   5.672 -0.1446 -0.0190  0.1126
   61MOL    C4846968   7.916   2.659   5.687  0.0250  1.0775 -0.1745
   61MOL    C4946969   7.800   2.557   5.723 -0.1721 -0.1852  0.2810
   61MOL    O5046970   7.719   2.521   5.611  0.0093 -0.2244  0.5763
   61MOL    C5146971   7.784   2.451   5.516 -0.5698  0.4869 -0.1039
   61MOL    O5246972   7.887   2.389   5.538 -0.1299  0.2165  0.0169
   61MOL    C5346973   7.719   2.451   5.383  0.1291  0.0577  0.5438
   61MOL    C5446974   7.789   2.395   5.271 -0.4518  0.2737  0.5242
   61MOL    C5546975   7.728   2.387   5.145  0.4190 -0.2765 -1.1885
   61MOL    C5646976   7.605   2.456   5.125 -0.0508 -0.7597 -0.3596
   61MOL    C5746977   7.549   2.461   4.993  0.3421  1.4691  0.7734
   61MOL    O5846978   7.603   2.424   4.887  0.0020 -0.2919  0.2552
   61MOL    O5946979   7.425   2.518   4.998  0.2541 -0.3769 -0.1657
   61MOL    C6046980   7.538   2.519   5.237  0.4362 -0.7027  0.6120
   61MOL    C6146981   7.590   2.521   5.366  0.0537 -0.2923  0.0108
   61MOL    H6246982   0.042   2.562   5.796  1.7124  0.9122  0.8140
   61MOL    H6346983   7.999   2.682   5.889  0.7702 -2.3203  0.9523
   61MOL    H6446984   0.186   2.785   5.813  0.1303 -0.7774 -0.6359
   61MOL    H6546985   0.167   2.724   5.659  1.6717  1.5346  0.4021
   61MOL    H6646986   0.029   2.947   5.801  1.8383 -1.2527  1.0036
   61MOL    H6746987   0.251   3.018   5.693 -0.9680  0.0988  1.4987
   61MOL    H6846988   0.180   2.953   5.543  0.4321 -0.1280  0.5937
   61MOL    H6946989   7.924   2.995   5.582 -2.8739 -0.7911 -3.1497
   61MOL    H7046990   7.992   2.864   5.508  1.4618 -0.0041  0.9366
   61MOL    H7146991   7.762   2.804   5.613  0.8456 -0.7005 -1.4866
   61MOL    H7246992   7.835   2.845   5.770 -0.0783  1.4970 -0.5681
   61MOL    H7346993   7.963   2.629   5.594  0.3386  0.2965  0.2352
   61MOL    H7446994   7.854   2.471   5.763  1.2656  0.5439 -0.0806
   61MOL    H7546995   7.740   2.588   5.809 -0.1862 -1.2220  0.6459
   61MOL    H7646996   7.872   2.330   5.294  0.6783  1.3706 -0.3818
   61MOL    H7746997   7.767   2.325   5.066 -0.1431 -3.3595  0.8685
   61MOL    H7846998   7.442   2.567   5.232  1.0651  0.5237  0.2581
   61MOL    H7946999   7.539   2.565   5.451 -1.4327 -2.8586  0.4884
   61MOL    C8047000   7.026   2.765   4.673  0.3549 -0.0863  0.1122
   61MOL    C8147001   7.115   2.716   4.784  0.5819  0.1055  0.1792
   61MOL    C8247002   7.256   2.702   4.720 -0.1350 -0.2760 -1.3192
   61MOL    C8347003   7.364   2.664   4.819 -0.5368 -0.1034 -0.1882
   61MOL    O8447004   7.359   2.529   4.865 -0.1364 -1.3890  0.1447
   61MOL    C8547005   7.262   2.602   4.607  0.5014  0.2936  0.2687
   61MOL    C8647006   7.167   2.655   4.496  0.1136  0.2648  0.4889
   61MOL    C8747007   7.020   2.664   4.556  0.0453  0.1179 -0.3361
   61MOL    C8847008   6.920   2.706   4.446 -0.2055  0.4974 -0.3873
   61MOL    O8947009   6.790   2.705   4.493 -0.8842  0.8654  0.0605
   61MOL    C9047010   6.682   2.736   4.413 -0.2402 -0.2093  0.4195
   61MOL    O9147011   6.686   2.768   4.297  0.0769  0.3288  0.1186
   61MOL    C9247012   6.550   2.724   4.492  0.1732  0.6564 -0.3755
   61MOL    C9347013   6.425   2.756   4.430  0.9904  0.2718  0.5442
   61MOL    C9447014   6.301   2.755   4.498  0.2075 -0.1160  0.8948
   61MOL    C9547015   6.300   2.709   4.635  0.3682  0.4661 -0.5847
   61MOL    C9647016   6.171   2.705   4.707 -0.4995 -0.3874  0.5937
   61MOL    O9747017   6.068   2.738   4.658 -0.9464 -0.0188  0.3290
   61MOL    O9847018   6.192   2.658   4.833  0.5493 -0.4072 -0.4545
   61MOL    C9947019   6.417   2.669   4.695 -0.5438 -0.6426 -0.2527
   61MOL   C10047020   6.540   2.669   4.625  0.3899  0.3902 -0.5045
   61MOL   H10147021   6.927   2.778   4.717  1.0326 -1.4274  2.0917
   61MOL   H10247022   7.063   2.863   4.643  1.8635 -0.5953  0.2713
   61MOL   H10347023   7.112   2.801   4.852  1.5045  0.3125 -0.0317
   61MOL   H10447024   7.079   2.628   4.837  1.7158 -0.6896 -0.3474
   61MOL   H10547025   7.285   2.803   4.691 -1.6180  1.1184  1.8360
   61MOL   H10647026   7.458   2.682   4.767 -1.3444 -1.3772 -2.1375
   61MOL   H10747027   7.354   2.719   4.912  1.0229  1.5853 -0.9928
   61MOL   H10847028   7.366   2.590   4.575  0.4598  1.9990 -0.5906
   61MOL   H10947029   7.232   2.501   4.635 -0.7030  1.0230  1.6517
   61MOL   H11047030   7.162   2.572   4.425  1.3516 -1.4203  2.3139
   61MOL   H11147031   7.198   2.745   4.443  0.5189 -0.0374  0.2081
   61MOL   H11247032   6.982   2.567   4.588 -0.0642 -0.1893 -1.3707
   61MOL   H11347033   6.951   2.806   4.415  0.0074  0.1609 -1.2612
   61MOL   H11447034   6.926   2.635   4.364 -1.2187  0.0615 -0.0873
   61MOL   H11547035   6.423   2.789   4.328  3.7381 -2.3658 -0.4359
   61MOL   H11647036   6.213   2.796   4.450 -0.7087 -2.6256  0.3637
   61MOL   H11747037   6.425   2.632   4.796 -0.8428  0.9967  0.3806
   61MOL   H11847038   6.627   2.640   4.683 -1.4577  0.2542  2.2781
   61MOL   C11947039   5.764   2.508   5.209 -0.0965  0.5873  0.1835
   61MOL   C12047040   5.903   2.547   5.137  0.5213  0.4359  0.3699
   61MOL   C12147041   5.916   2.470   5.005  0.1383 -0.6919  0.9146
   61MOL   C12247042   6.052   2.503   4.938  0.0279 -0.0316  0.4977
   61MOL   O12347043   6.068   2.638   4.911 -0.2267 -0.3771  0.2301
   61MOL   C12447044   5.913   2.321   5.030  0.6073  0.2901 -0.2491
   61MOL   C12547045   5.783   2.275   5.100 -0.2842  0.4318  1.1775
   61MOL   C12647046   5.762   2.355   5.229 -0.4354 -0.2483 -0.5444
   61MOL   C12747047   5.634   2.304   5.307 -0.1858 -0.3093  0.1315
   61MOL   O12847048   5.518   2.301   5.223 -0.4316 -0.5754  0.0091
   61MOL   C12947049   5.420   2.235   5.263 -0.1337  0.5091 -0.3670
   61MOL   O13047050   5.387   2.224   5.384  0.7098 -0.0681 -0.6300
   61MOL   C13147051   5.333   2.186   5.154  0.3687  0.4367 -0.8413
   61MOL   C13247052   5.216   2.116   5.180  0.9079  0.1876 -0.1786
   61MOL   C13347053   5.145   2.066   5.075 -0.5457  0.4056 -0.0914
   61MOL   C13447054   5.187   2.075   4.943  1.2137  0.5329 -0.2202
   61MOL   C13547055   5.111   2.006   4.833 -0.3476  0.6655 -0.5043
   61MOL   O13647056   4.996   1.968   4.841  0.3952 -0.1109 -0.4842
   61MOL   O13747057   5.188   1.997   4.721 -0.0671  0.1733  0.2898
   61MOL   C13847058   5.303   2.143   4.916 -0.3786 -1.1046 -0.1510
   61MOL   C13947059   5.376   2.203   5.020  0.6668 -0.2461 -0.0434
   61MOL   H14047060   5.760   2.556   5.307 -0.6469 -2.7904  1.8682
   61MOL   H14147061   5.676   2.549   5.159  0.0079  0.7774  0.1536
   61MOL   H14247062   5.903   2.654   5.115 -0.8715  0.2609 -0.5837
   61MOL   H14347063   5.990   2.531   5.200  1.0662  0.3529 -0.3885
   61MOL   H14447064   5.832   2.492   4.939  0.3175 -2.0533  0.2011
   61MOL   H14547065   6.124   2.469   5.012 -0.5831 -1.5050  0.4422
   61MOL   H14647066   6.061   2.450   4.843 -0.1121 -0.5827  0.7880
   61MOL   H14747067   5.927   2.260   4.941 -1.5733  1.1899 -1.2387
   61MOL   H14847068   5.988   2.292   5.104  0.4734  0.3484 -0.0883
   61MOL   H14947069   5.784   2.171   5.133 -1.1385  0.0008 -0.1257
   61MOL   H15047070   5.705   2.296   5.027  2.0563  0.0660 -1.4976
   61MOL   H15147071   5.844   2.329   5.295  0.0137  2.1212 -0.1003
   61MOL   H15247072   5.660   2.199   5.324 -2.6443 -1.0038 -0.3309
   61MOL   H15347073   5.625   2.359   5.401  0.1518  0.1536 -0.1014
   61MOL   H15447074   5.176   2.106   5.280  1.4539 -2.3901 -0.1995
   61MOL   H15547075   5.054   2.009   5.088  0.7945 -1.2273  2.3292
   61MOL   H15647076   5.326   2.160   4.812 -0.5122 -0.9383 -0.1542
   61MOL   H15747077   5.463   2.261   4.995  0.5329 -1.0099 -2.4815
   61MOL   C15847078   5.345   1.508   4.472 -0.2942  0.1588  0.4237
   61MOL   C15947079   5.231   1.566   4.552  0.1777  0.1113  0.8025
   61MOL   C16047080   5.240   1.718   4.558 -0.3614  0.0273 -0.4788
   61MOL   C16147081   5.126   1.784   4.633  0.4157  0.4023 -0.4083
   61MOL   O16247082   5.121   1.925   4.611 -0.2222  0.4263 -0.4855
   61MOL   C16347083   5.378   1.776   4.602  0.1088  0.4535  0.0185
   61MOL   C16447084   5.489   1.711   4.514 -0.2617 -0.5808 -0.4895
   61MOL   C16547085   5.483   1.556   4.519 -0.0065  0.2840  0.1790
   61MOL   C16647086   5.598   1.496   4.432  0.2347 -0.8607 -0.5249
   61MOL   O16747087   5.729   1.535   4.469 -0.3561  0.0396 -0.1878
   61MOL   C16847088   5.837   1.495   4.390  1.2152  0.1100 -0.0595
   61MOL   O16947089   5.832   1.423   4.293 -0.1662 -0.0172  0.3411
   61MOL   C17047090   5.962   1.559   4.430 -0.2503 -0.7622  0.3636
   61MOL   C17147091   5.986   1.605   4.557  0.2696  0.0829 -0.8034
   61MOL   C17247092   6.113   1.662   4.593 -0.0441 -0.6046 -0.0432
   61MOL   C17347093   6.216   1.665   4.501 -0.3484  0.2675  0.1049
   61MOL   C17447094   6.358   1.719   4.528  0.3148 -0.2095 -0.2672
   61MOL   O17547095   6.449   1.721   4.447 -0.1661  0.1888  0.1414
   61MOL   O17647096   6.373   1.763   4.653  0.1627 -0.2074  0.6137
   61MOL   C17747097   6.194   1.611   4.373 -0.1547 -0.3741 -0.4908
   61MOL   C17847098   6.071   1.556   4.342 -0.0973 -1.4918  0.6451
   61MOL   H17947099   5.339   1.400   4.457  2.1879 -0.4027  3.1239
   61MOL   H18047100   5.330   1.542   4.369 -1.4391 -0.6529  0.3027
   61MOL   H18147101   5.130   1.547   4.516 -0.4465  2.5367  1.1689
   61MOL   H18247102   5.238   1.523   4.652 -3.8274  2.7388  2.3362
   61MOL   H18347103   5.231   1.741   4.452  0.1773  0.7756 -0.3651
   61MOL   H18447104   5.038   1.743   4.584  0.1511 -0.4339  0.7358
   61MOL   H18547105   5.114   1.762   4.739  0.7255  0.6850 -0.3123
   61MOL   H18647106   5.372   1.882   4.580 -2.4845  0.1875 -0.7863
   61MOL   H18747107   5.391   1.768   4.710  1.2106 -0.8350 -0.1906
   61MOL   H18847108   5.585   1.745   4.555 -0.2323  0.0072 -1.0446
   61MOL   H18947109   5.489   1.749   4.412  1.0587 -0.2949 -0.3912
   61MOL   H19047110   5.489   1.506   4.615  0.2697  1.4302  0.7626
   61MOL   H19147111   5.593   1.387   4.424 -3.8786 -0.9253  1.3740
   61MOL   H19247112   5.580   1.545   4.337 -0.1462  0.2384  0.1121
   61MOL   H19347113   5.907   1.606   4.632 -0.4091 -0.2806 -1.5074
   61MOL   H19447114   6.132   1.695   4.694  1.0359  1.2393 -0.8271
   61MOL   H19547115   6.271   1.609   4.298 -0.3800 -0.3674 -0.7223
   61MOL   H19647116   6.066   1.501   4.250 -0.8718 -1.4161  0.6410
   61MOL   C19747117   6.941   1.805   4.658 -0.1962 -0.6732 -0.2058
   61MOL   C19847118   6.805   1.742   4.645  0.2226 -0.2319  0.1683
   61MOL   C19947119   6.720   1.764   4.776 -0.2080  0.3538 -0.7889
   61MOL   C20047120   6.579   1.719   4.765 -0.1203 -0.2195  0.2109
   61MOL   O20147121   6.512   1.813   4.687 -0.0624  0.3978 -0.0790
   61MOL   C20247122   6.793   1.695   4.889 -0.1145 -0.4842  0.1864
   61MOL   C20347123   6.938   1.746   4.912 -0.0913  0.0081  0.5165
   61MOL   C20447124   7.022   1.748   4.782 -0.7682 -0.2775 -1.2068
   61MOL   C20547125   7.150   1.833   4.804 -0.0377  0.8814  0.1887
   61MOL   O20647126   7.223   1.796   4.925 -0.1907 -0.0926 -0.1161
   61MOL   C20747127   7.337   1.726   4.914  0.9524 -0.8195 -0.1127
   61MOL   O20847128   7.373   1.679   4.803 -0.0629 -0.3436 -0.0731
   61MOL   C20947129   7.414   1.699   5.044  0.0563 -0.4701 -0.3670
   61MOL   C21047130   7.524   1.608   5.046  0.0071  0.5708  0.0781
   61MOL   C21147131   7.586   1.570   5.166 -0.0044 -0.7422  0.0315
   61MOL   C21247132   7.541   1.630   5.285 -0.0439  0.0703 -0.0219
   61MOL   C21347133   7.615   1.600   5.412  0.0999 -0.4894 -0.2193
   61MOL   O21447134   7.727   1.548   5.414  0.1296 -0.0267 -0.2008
   61MOL   O21547135   7.545   1.618   5.526  0.2137  0.0495 -0.1906
   61MOL   C21647136   7.431   1.717   5.288 -0.1825 -0.2925  0.0426
   61MOL   C21747137   7.366   1.751   5.164 -0.2776  0.8618 -0.3125
   61MOL   H21847138   6.988   1.783   4.563 -0.6308  0.0456 -0.5849
   61MOL   H21947139   6.928   1.911   4.681  0.9696 -0.6446  0.3766
   61MOL   H22047140   6.744   1.766   4.558 -1.6695 -1.8403  1.0266
   61MOL   H22147141   6.820   1.634   4.638  0.0863 -0.2299 -0.1348
   61MOL   H22247142   6.717   1.870   4.800 -0.9966  0.5148 -1.5891
   61MOL   H22347143   6.580   1.620   4.720  2.0261 -0.2527  0.2565
   61MOL   H22447144   6.529   1.693   4.859 -1.1991 -1.3624 -0.6619
   61MOL   H22547145   6.751   1.715   4.987 -2.3416 -0.7783 -0.6752
   61MOL   H22647146   6.797   1.587   4.873 -2.0357 -0.3185 -1.6029
   61MOL   H22747147   6.984   1.672   4.977 -0.6089 -0.0190  0.8592
   61MOL   H22847148   6.937   1.839   4.968  1.1796 -0.4356  1.2763
   61MOL   H22947149   7.072   1.653   4.762  0.9066  0.0632  1.1047
   61MOL   H23047150   7.223   1.831   4.722  1.0841  2.6732  1.1221
   61MOL   H23147151   7.116   1.935   4.813 -1.1311  0.5950 -0.6339
   61MOL   H23247152   7.559   1.582   4.947 -0.4811  0.4116 -0.0542
   61MOL   H23347153   7.667   1.499   5.159  2.0124  1.7376 -2.8144
   61MOL   H23447154   7.381   1.754   5.377 -3.1556 -0.2748 -1.5574
   61MOL   H23547155   7.286   1.823   5.168  0.5789  1.8014  0.2766
   61MOL   C23647156   7.315   1.293   5.933  0.1424 -0.4040  0.0503
   61MOL   C23747157   7.444   1.298   5.839 -0.2599 -0.7171 -0.1988
   61MOL   C23847158   7.441   1.426   5.755 -1.5017 -0.5147 -0.7307
   61MOL   C23947159   7.579   1.446   5.688  1.1154  0.4430 -0.5254
   61MOL   O24047160   7.619   1.581   5.655  0.3869  0.1702  0.4157
   61MOL   C24147161   7.327   1.426   5.663  0.7073 -0.7473 -0.2642
   61MOL   C24247162   7.201   1.424   5.758 -0.0329  0.3043  0.0551
   61MOL   C24347163   7.191   1.297   5.844  0.0416  0.2184  0.1075
   61MOL   C24447164   7.060   1.308   5.923  0.2192 -0.7442 -0.8746
   61MOL   O24547165   6.950   1.289   5.838 -0.0833 -0.6025 -0.5351
   61MOL   C24647166   6.880   1.178   5.846  0.2864 -0.5014 -0.5061
   61MOL   O24747167   6.893   1.093   5.928 -0.1773 -0.7911  1.1646
   61MOL   C24847168   6.783   1.161   5.738 -0.1722  0.0984  0.5917
   61MOL   C24947169   6.793   1.232   5.614  0.6164 -0.0892 -0.6210
   61MOL   C25047170   6.706   1.207   5.505  0.4792 -0.5584 -0.0410
   61MOL   C25147171   6.600   1.112   5.517 -0.2548 -0.5542  0.5051
   61MOL   C25247172   6.510   1.093   5.400 -0.6146  0.1373 -0.1276
   61MOL   O25347173   6.521   1.167   5.302  0.5874 -0.0112  0.2087
   61MOL   O25447174   6.419   0.996   5.414 -0.1757 -0.4443 -0.0861
   61MOL   C25547175   6.587   1.047   5.646 -0.3008 -0.4208  0.5087
   61MOL   C25647176   6.674   1.077   5.755 -0.3339  1.2492 -0.6328
   61MOL   H25747177   7.315   1.206   5.998 -2.3583 -0.0250  0.6185
   61MOL   H25847178   7.324   1.370   6.009  0.1858 -0.2782 -0.0841
   61MOL   H25947179   7.531   1.289   5.904  1.1347  0.9791 -1.7822
   61MOL   H26047180   7.451   1.214   5.770  4.2445 -0.4944 -0.1435
   61MOL   H26147181   7.431   1.505   5.829 -2.5046 -0.4603 -0.9139
   61MOL   H26247182   7.655   1.421   5.762  1.0853  0.5761 -0.4490
   61MOL   H26347183   7.591   1.372   5.608 -0.6668 -0.7517  0.2780
   61MOL   H26447184   7.331   1.520   5.608 -0.4824  0.2837  1.3713
   61MOL   H26547185   7.332   1.346   5.589 -0.5392 -1.7810  0.7405
   61MOL   H26647186   7.108   1.433   5.702  0.4579 -0.6760 -0.9322
   61MOL   H26747187   7.213   1.503   5.832  1.8502 -0.1243  0.2503
   61MOL   H26847188   7.176   1.202   5.791  1.4583  0.0294  0.0171
   61MOL   H26947189   7.051   1.244   6.011  1.3157 -0.5575 -0.6162
   61MOL   H27047190   7.056   1.407   5.968  2.6508 -0.0751 -2.0368
   61MOL   H27147191   6.875   1.294   5.581  1.9145 -0.8646  1.0587
   61MOL   H27247192   6.732   1.252   5.411 -0.7524 -1.5642 -0.8819
   61MOL   H27347193   6.505   0.980   5.668 -0.9229 -0.0740 -0.7104
   61MOL   H27447194   6.656   1.028   5.850  0.4681 -1.6162 -1.8885
   61MOL   C27547195   5.888   1.059   5.114 -1.1442  0.0257 -0.2757
   61MOL   C27647196   6.011   1.107   5.196  0.3191  0.3446  0.1551
   61MOL   C27747197   6.135   1.020   5.181 -0.2493 -0.6314 -0.5559
   61MOL   C27847198   6.230   1.046   5.301  0.3065 -1.0290  0.0401
   61MOL   O27947199   6.342   0.972   5.289 -1.2821  0.9415  0.0502
   61MOL   C28047200   6.094   0.872   5.195  0.0098 -0.1505  0.1903
   61MOL   C28147201   5.974   0.831   5.108  0.3198  0.2076 -0.0410
   61MOL   C28247202   5.853   0.917   5.143  0.5192  0.4685 -0.1600
   61MOL   C28347203   5.724   0.867   5.061 -0.1831  0.4170  0.5225
   61MOL   O28447204   5.683   0.753   5.127  0.2050  0.0333  0.2641
   61MOL   C28547205   5.669   0.636   5.058 -0.8616  0.8110  0.2834
   61MOL   O28647206   5.648   0.626   4.941  0.5668  0.1621  0.1138
   61MOL   C28747207   5.669   0.514   5.144  0.2803 -0.5102  0.1800
   61MOL   C28847208   5.727   0.524   5.277 -0.2484  0.2032 -0.6045
   61MOL   C28947209   5.715   0.414   5.366  0.2509 -0.1245 -0.1972
   61MOL   C29047210   5.643   0.302   5.322 -0.4197  0.5273 -0.1346
   61MOL   C29147211   5.632   0.186   5.415  0.6792  0.3806 -0.7268
   61MOL   O29247212   5.650   0.193   5.537 -0.2025 -0.5296 -0.0451
   61MOL   O29347213   5.575   0.076   5.350  0.0699  0.5254 -0.5660
   61MOL   C29447214   5.586   0.293   5.191  0.7898 -0.0515 -0.0529
   61MOL   C29547215   5.601   0.401   5.100  0.6569  0.2500 -0.3210
   61MOL   H29647216   5.800   1.121   5.130 -1.5589 -0.0148 -2.3331
   61MOL   H29747217   5.909   1.086   5.011 -0.3788  1.8872  0.3253
   61MOL   H29847218   6.036   1.209   5.168 -0.2443  0.7837  1.2460
   61MOL   H29947219   5.981   1.115   5.300 -1.3471  0.1370 -0.2910
   61MOL   H30047220   6.175   1.044   5.083 -0.4536  1.0232 -0.2448
   61MOL   H30147221   6.247   1.153   5.304 -2.2908 -0.5900  0.6959
   61MOL   H30247222   6.184   1.033   5.399  0.0269 -1.4981 -0.1518
   61MOL   H30347223   6.181   0.808   5.182 -0.4495 -1.1685  1.8374
   61MOL   H30447224   6.049   0.846   5.291  0.4136 -1.1543  0.1192
   61MOL   H30547225   5.962   0.724   5.125 -1.5842  0.6212  1.4603
   61MOL   H30647226   6.001   0.850   5.004  0.8083 -0.0782  0.0345
   61MOL   H30747227   5.833   0.917   5.250 -0.6553 -0.1599 -0.3649
   61MOL   H30847228   5.641   0.937   5.059 -0.1652  0.4656  1.2061
   61MOL   H30947229   5.767   0.844   4.964 -0.2716  0.8867  0.3722
   61MOL   H31047230   5.783   0.613   5.303 -0.7719  0.1511  0.7164
   61MOL   H31147231   5.753   0.417   5.467 -1.7721 -2.0620  0.6580
   61MOL   H31247232   5.526   0.209   5.159  1.2398  0.5692 -2.6213
   61MOL   H31347233   5.553   0.405   5.003  1.5522  1.1569 -0.7352
   61MOL   C31447234   5.133   7.895   5.734 -0.2490 -0.4767 -0.3557
   61MOL   C31547235   5.182   7.943   5.595 -0.0659 -0.4138  0.2505
   61MOL   C31647236   5.329   7.966   5.577  0.3120 -0.0195  0.2755
   61MOL   C31747237   5.376   8.015   5.444 -0.4495  0.3076  0.2892
   61MOL   O31847238   5.523   8.008   5.443 -0.0728  0.1138 -0.4203
   61MOL   C31947239   5.370   0.033   5.686  0.8016  0.6321 -0.1273
   61MOL   C32047240   5.327   8.018   5.826 -0.6591  0.6520  0.8720
   61MOL   C32147241   5.171   7.993   5.839 -0.1028  0.2214  0.0972
   61MOL   C32247242   5.130   7.951   5.985  0.3640  0.1783 -0.8743
   61MOL   O32347243   5.143   0.024   6.075 -0.0054 -0.4545  0.5674
   61MOL   C32447244   5.031   0.061   6.147  0.6817 -0.1211  0.5777
   61MOL   O32547245   4.920   0.006   6.135  0.1007 -0.0276 -0.1720
   61MOL   C32647246   5.052   0.174   6.236  0.4176 -0.3214 -0.7767
   61MOL   C32747247   5.175   0.244   6.231  0.4748  0.1797  0.1448
   61MOL   C32847248   5.204   0.351   6.316 -0.5270 -0.3113  1.5533
   61MOL   C32947249   5.101   0.401   6.402 -0.0423 -0.7677  0.4072
   61MOL   C33047250   5.127   0.525   6.483  0.3838  0.3431  0.4388
   61MOL   O33147251   5.052   0.565   6.572 -0.5584  0.0887  0.5668
   61MOL   O33247252   5.236   0.596   6.438  0.3182 -0.1977 -0.2052
   61MOL   C33347253   4.980   0.335   6.415 -0.2193 -0.2401 -0.2839
   61MOL   C33447254   4.955   0.224   6.330 -0.1893  0.3196 -0.0673
   61MOL   H33547255   5.025   7.896   5.724 -0.3922 -1.7731  0.7431
   61MOL   H33647256   5.167   7.793   5.753  1.7526 -0.0301 -1.4448
   61MOL   H33747257   5.134   7.875   5.525  0.5421 -0.4996 -0.0799
   61MOL   H33847258   5.122   8.031   5.570  1.5318  0.5400 -0.2571
   61MOL   H33947259   5.376   7.870   5.600 -1.4643 -1.3781 -1.6125
   61MOL   H34047260   5.330   7.952   5.368 -1.6092  0.6835  0.6750
   61MOL   H34147261   5.345   0.083   5.432 -2.7834 -0.2167  1.4899
   61MOL   H34247262   5.476   0.060   5.681  1.4071 -0.5963  3.9989
   61MOL   H34347263   5.318   0.126   5.661  0.2628  0.2788 -0.3059
   61MOL   H34447264   5.351   0.064   5.895 -1.7572  1.8865 -0.1918
   61MOL   H34547265   5.384   7.931   5.860 -0.1878  0.3287 -0.7264
   61MOL   H34647266   5.133   0.056   5.811  4.5008  1.6674 -1.6990
   61MOL   H34747267   5.031   7.906   5.986  0.6593 -0.4924 -1.4132
   61MOL   H34847268   5.193   7.868   6.016  0.0043  1.0448  2.3845
   61MOL   H34947269   5.250   0.228   6.156 -0.0756 -4.3598  0.4572
   61MOL   H35047270   5.297   0.405   6.302 -0.1271 -1.1610  0.8735
   61MOL   H35147271   4.911   0.379   6.485 -1.1414 -2.0696 -0.0351
   61MOL   H35247272   4.867   0.165   6.351  0.3648  0.4774  2.8866
   61MOL   C35347273   5.485   1.154   6.445  0.0214 -0.1515  0.9409
   61MOL   C35447274   5.380   1.050   6.413  0.5084  0.5977 -0.1778
   61MOL   C35547275   5.369   0.930   6.517  1.1413 -0.2991  0.5066
   61MOL   C35647276   5.267   0.829   6.458  0.3078  0.1618 -0.0220
   61MOL   O35747277   5.261   0.710   6.535 -0.6201 -0.0078  0.5490
   61MOL   C35847278   5.507   0.864   6.538  0.0572 -0.3186 -0.0709
   61MOL   C35947279   5.613   0.972   6.570  0.4282 -0.2984 -0.0482
   61MOL   C36047280   5.618   1.088   6.467 -0.1684  0.4615 -0.3327
   61MOL   C36147281   5.744   1.175   6.500 -0.3332  0.2295 -0.3646
   61MOL   O36247282   5.776   1.253   6.385 -0.7381  0.1960  0.4886
   61MOL   C36347283   5.901   1.244   6.330  0.0383 -0.5218  0.0358
   61MOL   O36447284   5.987   1.168   6.377  0.1459 -0.6526  0.3106
   61MOL   C36547285   5.922   1.332   6.205  0.3856 -0.1150 -0.1630
   61MOL   C36647286   6.049   1.343   6.144  0.3037  0.1831 -0.7593
   61MOL   C36747287   6.064   1.418   6.027 -0.0204 -0.2713  0.0240
   61MOL   C36847288   5.952   1.480   5.963 -0.2775 -0.2104  0.4036
   61MOL   C36947289   5.971   1.550   5.836  0.2253 -0.2760 -0.5672
   61MOL   O37047290   6.085   1.567   5.776 -0.0454  0.4921  0.0727
   61MOL   O37147291   5.855   1.566   5.764  0.5101  0.3784  0.1940
   61MOL   C37247292   5.824   1.478   6.026  0.4830 -0.3959  0.4552
   61MOL   C37347293   5.813   1.401   6.145 -0.0234  1.1453 -0.1879
   61MOL   H37447294   5.501   1.233   6.372 -0.1615  1.0915  2.2097
   61MOL   H37547295   5.461   1.200   6.541 -3.3886  1.1890 -0.5129
   61MOL   H37647296   5.280   1.091   6.404  0.9378  1.5512 -0.7424
   61MOL   H37747297   5.405   0.994   6.323 -0.4507 -2.3202  1.3034
   61MOL   H37847298   5.338   0.962   6.617  1.1340 -0.7112  0.6371
   61MOL   H37947299   5.166   0.870   6.453  0.5620  0.9963  1.4158
   61MOL   H38047300   5.305   0.793   6.363  1.0224  1.5821 -0.2811
   61MOL   H38147301   5.501   0.800   6.625 -0.8967 -1.6175 -1.0828
   61MOL   H38247302   5.544   0.816   6.448 -1.2048  0.2520 -0.9093
   61MOL   H38347303   5.713   0.929   6.582  0.7836  0.9163  1.6373
   61MOL   H38447304   5.608   1.011   6.672  0.6949  2.7353 -1.1422
   61MOL   H38547305   5.648   1.043   6.372 -1.1781  0.1817 -0.5261
   61MOL   H38647306   5.716   1.247   6.577 -3.2391 -0.7451 -0.4309
   61MOL   H38747307   5.826   1.118   6.544  0.5233  1.0202 -0.9366
   61MOL   H38847308   6.130   1.294   6.196  0.8247  1.7017 -0.1199
   61MOL   H38947309   6.157   1.428   5.973 -0.1065 -0.0216 -0.0789
   61MOL   H39047310   5.731   1.521   5.992  1.5388  1.5160 -0.0701
   61MOL   H39147311   5.717   1.411   6.194 -2.1106  0.8403 -4.0080
   61MOL   C39247312   6.182   1.908   5.453 -0.3029  0.3978  0.4103
   61MOL   C39347313   6.102   1.823   5.557 -0.2053 -0.5462  0.3643
   61MOL   C39447314   5.949   1.854   5.548  0.2658  0.0541  0.5341
   61MOL   C39547315   5.866   1.774   5.649  0.6280 -0.1891 -0.1132
   61MOL   O39647316   5.875   1.632   5.632 -0.0410 -0.2244 -0.3990
   61MOL   C39747317   5.926   2.009   5.560  0.6210  0.0777 -0.3258
   61MOL   C39847318   6.003   2.083   5.449 -0.0252 -0.1246 -0.3445
   61MOL   C39947319   6.150   2.059   5.467  0.0022  0.5650  0.5067
   61MOL   C40047320   6.233   2.142   5.362 -0.3662  0.2739 -0.3850
   61MOL   O40147321   6.370   2.105   5.358  0.2165  0.4361  0.0366
   61MOL   C40247322   6.451   2.167   5.447  0.6101 -0.1830 -0.6180
   61MOL   O40347323   6.415   2.256   5.529 -0.5501  0.1516  0.2452
   61MOL   C40447324   6.591   2.112   5.438  0.2824 -0.9099 -0.3497
   61MOL   C40547325   6.636   2.027   5.335  0.1649 -0.7687 -0.1240
   61MOL   C40647326   6.772   1.986   5.320 -0.6886 -0.1689  0.6444
   61MOL   C40747327   6.865   2.036   5.412  0.1548  0.0168 -0.0052
   61MOL   C40847328   7.007   1.998   5.389 -0.1120  0.4536  0.3830
   61MOL   O40947329   7.033   1.915   5.302 -0.2113 -0.0424 -0.1397
   61MOL   O41047330   7.096   2.069   5.466 -0.6103  0.3105  0.2671
   61MOL   C41147331   6.820   2.117   5.520 -0.1738  0.1720  0.1357
   61MOL   C41247332   6.683   2.151   5.536  0.2599 -0.3801  0.8065
   61MOL   H41347333   6.290   1.902   5.468 -0.1302  4.3686  1.1431
   61MOL   H41447334   6.156   1.869   5.354 -1.1772 -0.5183  0.9974
   61MOL   H41547335   6.131   1.718   5.551 -1.1559 -0.9556  2.5874
   61MOL   H41647336   6.136   1.847   5.657  3.3467  1.9165 -1.3285
   61MOL   H41747337   5.914   1.820   5.450  0.6606 -1.3945  0.8788
   61MOL   H41847338   5.886   1.801   5.752  3.3529  0.9283 -0.9031
   61MOL   H41947339   5.760   1.801   5.647  0.7810  0.4403  0.2286
   61MOL   H42047340   5.822   2.029   5.534  0.1755  2.1500  2.7904
   61MOL   H42147341   5.950   2.045   5.660 -0.9566 -2.9368  1.2119
   61MOL   H42247342   5.976   2.189   5.446  2.7448  0.5694 -2.7623
   61MOL   H42347343   5.962   2.037   5.359  0.2853 -2.8377  0.8588
   61MOL   H42447344   6.189   2.091   5.563  0.3738  0.3758  0.4196
   61MOL   H42547345   6.190   2.121   5.263 -0.4848  0.1919 -0.3169
   61MOL   H42647346   6.210   2.248   5.370 -1.7376 -0.0502  0.0885
   61MOL   H42747347   6.569   1.988   5.260  1.7598 -1.6869 -1.1133
   61MOL   H42847348   6.803   1.925   5.236  1.3207  0.7681  0.6676
   61MOL   H42947349   6.893   2.151   5.592  0.3091  0.1328 -0.3395
   61MOL   H43047350   6.649   2.213   5.617 -0.6266 -0.6327  0.6350
   61MOL   C43147351   7.165   2.143   4.967 -0.0784  0.5872 -0.0732
   61MOL   C43247352   7.243   2.131   5.097  0.0423  0.6067  1.1530
   61MOL   C43347353   7.176   2.215   5.215 -0.1149  0.0515 -0.2040
   61MOL   C43447354   7.251   2.204   5.344 -0.1348 -0.2734  0.6538
   61MOL   O43547355   7.237   2.082   5.404 -0.2899 -0.4708  0.4828
   61MOL   C43647356   7.165   2.364   5.183  0.1475 -0.5756 -0.0182
   61MOL   C43747357   7.086   2.378   5.052  0.4273  0.5508 -0.0829
   61MOL   C43847358   7.140   2.290   4.934  0.0960  0.6393  0.4576
   61MOL   C43947359   7.049   2.302   4.809  0.5722  0.3188 -0.1124
   61MOL   O44047360   6.914   2.255   4.840 -0.4268 -0.2243 -0.1540
   61MOL   C44147361   6.825   2.356   4.872 -0.3111  0.6706  0.5741
   61MOL   O44247362   6.849   2.474   4.850 -0.1629  0.7778  0.0599
   61MOL   C44347363   6.690   2.294   4.924 -0.1577  0.4737 -0.5268
   61MOL   C44447364   6.669   2.155   4.937 -0.1142 -0.0053  0.4500
   61MOL   C44547365   6.543   2.106   4.966  0.0524 -0.0926  0.1968
   61MOL   C44647366   6.431   2.185   4.983  0.1258 -0.1326 -0.1022
   61MOL   C44747367   6.291   2.145   5.010 -0.1454  0.5967  0.4344
   61MOL   O44847368   6.213   2.229   5.051 -0.0602  0.2290  0.0559
   61MOL   O44947369   6.265   2.016   4.980 -0.1833  0.0287 -0.1367
   61MOL   C45047370   6.461   2.327   4.979  0.6075 -0.4183 -0.1250
   61MOL   C45147371   6.587   2.379   4.946  0.4928 -0.5300 -0.7734
   61MOL   H45247372   7.236   2.096   4.899 -1.6893  0.6210 -1.8065
   61MOL   H45347373   7.073   2.090   4.991  0.1930  0.3714  0.5095
   61MOL   H45447374   7.249   2.026   5.127  0.8575  0.4998  0.6229
   61MOL   H45547375   7.344   2.169   5.084  0.3659 -1.1839 -1.9763
   61MOL   H45647376   7.071   2.188   5.225  0.2818 -1.4589  0.1526
   61MOL   H45747377   7.357   2.220   5.325 -0.1403 -1.7970 -0.7731
   61MOL   H45847378   7.216   2.286   5.407 -2.9805 -2.1252  1.6189
   61MOL   H45947379   7.118   2.421   5.264 -0.3492  0.5617 -1.0829
   61MOL   H46047380   7.265   2.406   5.175 -0.5194  0.9723 -0.4180
   61MOL   H46147381   7.073   2.485   5.031  0.1929  0.4658 -0.3657
   61MOL   H46247382   6.986   2.345   5.080  1.1573 -0.6045  1.2567
   61MOL   H46347383   7.231   2.336   4.895 -0.6363  0.2292 -1.8165
   61MOL   H46447384   7.046   2.402   4.764  1.0613  0.9414  1.1997
   61MOL   H46547385   7.095   2.248   4.726  0.1071 -0.2535  0.0017
   61MOL   H46647386   6.756   2.095   4.918 -0.5040 -0.8187  1.1892
   61MOL   H46747387   6.533   1.998   4.963 -2.7502  0.1444 -0.1874
   61MOL   H46847388   6.383   2.399   4.999 -0.3982 -1.5896  0.2380
   61MOL   H46947389   6.600   2.482   4.919  0.5936 -0.4513 -0.4277
   61MOL   C47047390   5.747   1.731   5.000 -0.8521  0.1816 -0.5442
   61MOL   C47147391   5.890   1.785   4.961  0.2098  0.0987 -0.0633
   61MOL   C47247392   5.891   1.939   4.940 -0.8262 -0.3666 -0.0036
   61MOL   C47347393   6.037   1.983   4.905  0.0920  0.3287 -0.4636
   61MOL   O47447394   6.121   1.986   5.016  0.2355 -0.0913 -0.2863
   61MOL   C47547395   5.764   1.984   4.854  0.4998  0.2650 -0.7358
   61MOL   C47647396   5.637   1.943   4.930  0.0756 -0.5772 -0.5321
   61MOL   C47747397   5.624   1.795   4.938 -0.9828  1.0410  0.5611
   61MOL   C47847398   5.498   1.752   5.023 -0.7738  0.1642  0.1742
   61MOL   O47947399   5.482   1.606   5.038  0.1949 -0.7619 -0.0460
   61MOL   C48047400   5.379   1.549   4.965 -0.4855  0.5864 -0.5830
   61MOL   O48147401   5.299   1.612   4.895  0.7044  0.2451 -0.5536
   61MOL   C48247402   5.386   1.396   4.960 -0.1396  0.3325 -0.2774
   61MOL   C48347403   5.307   1.316   4.874  0.8399  0.2810 -0.6335
   61MOL   C48447404   5.305   1.175   4.879  0.7385  0.2829 -0.0725
   61MOL   C48547405   5.369   1.106   4.987 -0.4377  0.6772 -0.0611
   61MOL   C48647406   5.350   0.956   5.019 -0.1681 -0.0703  0.1106
   61MOL   O48747407   5.305   0.879   4.931 -0.3107 -0.3919 -0.0598
   61MOL   O48847408   5.394   0.910   5.139  0.9630  0.0837 -0.9495
   61MOL   C48947409   5.462   1.185   5.063 -0.8492 -0.0410  0.2438
   61MOL   C49047410   5.468   1.326   5.051 -0.3687 -0.1326 -0.1864
   61MOL   H49147411   5.742   1.628   4.965  1.1986 -0.5333  1.1461
   61MOL   H49247412   5.746   1.723   5.108 -0.8404 -0.9964 -0.6218
   61MOL   H49347413   5.964   1.752   5.034  0.3759  0.4330 -0.0782
   61MOL   H49447414   5.924   1.749   4.864  0.8528  2.8680 -0.9062
   61MOL   H49547415   5.873   1.987   5.036 -1.7955 -0.4898 -0.1245
   61MOL   H49647416   6.079   1.924   4.824  0.6038  0.0583 -0.0102
   61MOL   H49747417   6.031   2.087   4.875 -1.4214  0.1752 -0.7552
   61MOL   H49847418   5.782   2.090   4.834  1.9486  0.3652  0.9294
   61MOL   H49947419   5.768   1.946   4.752 -2.5951 -0.2600 -0.7053
   61MOL   H50047420   5.547   1.977   4.879  0.5208  0.1607 -0.8245
   61MOL   H50147421   5.642   1.982   5.031  1.5858  0.4477 -0.9869
   61MOL   H50247422   5.612   1.746   4.842 -0.8644  0.4503  0.8421
   61MOL   H50347423   5.504   1.779   5.128 -1.6041 -1.6996  0.7260
   61MOL   H50447424   5.408   1.801   4.986 -1.3371 -1.1024 -0.1722
   61MOL   H50547425   5.246   1.367   4.801 -0.0251  0.5506  0.2724
   61MOL   H50647426   5.259   1.123   4.796  0.6304  1.8211 -0.9914
   61MOL   H50747427   5.514   1.141   5.147 -0.3596  0.4755  0.2086
   61MOL   H50847428   5.524   1.379   5.127 -0.3795 -0.6425  0.1765
   61MOL   C50947429   5.147   0.368   5.188 -0.1243  0.0646 -0.2629
   61MOL   C51047430   5.153   0.517   5.155 -0.1173 -0.9190  0.3539
   61MOL   C51147431   5.217   0.597   5.268  0.4030 -0.1990 -0.6534
   61MOL   C51247432   5.247   0.737   5.216  0.2672  0.1439 -0.2493
   61MOL   O51347433   5.374   0.757   5.158 -0.1050 -0.2142  0.1961
   61MOL   C51447434   5.126   0.584   5.390  0.0350  0.0985 -0.6512
   61MOL   C51547435   5.115   0.435   5.431  0.5486  0.0065 -0.2612
   61MOL   C51647436   5.063   0.345   5.313  0.1043 -0.0567  0.0393
   61MOL   C51747437   5.061   0.196   5.345 -0.2696  0.0672 -0.2651
   61MOL   O51847438   4.976   0.141   5.247  0.3830 -0.0151 -0.0985
   61MOL   C51947439   4.938   0.008   5.256  0.7321  0.7110 -0.1317
   61MOL   O52047440   4.985   7.965   5.337 -0.0668  0.3554 -0.2338
   61MOL   C52147441   4.844   8.007   5.145 -0.6250 -0.0281  0.3621
   61MOL   C52247442   4.838   7.870   5.101  0.3678  0.4747 -0.5078
   61MOL   C52347443   4.763   7.838   4.986 -0.4529 -0.0917 -0.3616
   61MOL   C52447444   4.699   7.938   4.909 -0.7049 -0.2180  0.2612
   61MOL   C52547445   4.627   7.894   4.785  0.2119  0.4969 -0.3849
   61MOL   O52647446   4.644   7.778   4.740  0.1573  0.4915  0.0893
   61MOL   O52747447   4.541   7.994   4.728 -0.1849  0.4138  0.1680
   61MOL   C52847448   4.718   0.033   4.951  0.2798  0.0134 -0.4254
   61MOL   C52947449   4.785   0.066   5.068 -0.8288  0.3049  0.6955
   61MOL   H53047450   5.100   0.312   5.107 -0.5180 -0.8485  0.5885
   61MOL   H53147451   5.246   0.325   5.200 -0.6628 -1.0957  0.0683
   61MOL   H53247452   5.211   0.524   5.063 -0.4367  2.1000  0.3539
   61MOL   H53347453   5.054   0.557   5.136  0.3438  0.7512  1.4325
   61MOL   H53447454   5.311   0.544   5.286  0.8222  0.6952 -0.2172
   61MOL   H53547455   5.175   0.779   5.146 -1.1668  0.7441  1.5543
   61MOL   H53647456   5.245   0.801   5.305 -0.4902  1.5981 -1.2860
   61MOL   H53747457   5.172   0.641   5.472  0.1779 -0.0714 -0.6126
   61MOL   H53847458   5.029   0.631   5.374  1.6652  2.7724 -3.2125
   61MOL   H53947459   5.047   0.437   5.516  0.3476  1.5487 -0.4486
   61MOL   H54047460   5.210   0.396   5.468  0.9386 -0.7269 -1.9966
   61MOL   H54147461   4.956   0.366   5.307 -0.1229 -1.1850  0.1943
   61MOL   H54247462   5.163   0.157   5.339  0.0944  0.9532  0.1151
   61MOL   H54347463   5.021   0.156   5.438  1.8704 -4.8833 -1.3220
   61MOL   H54447464   4.878   7.795   5.167  0.0691  0.2634 -0.5645
   61MOL   H54547465   4.757   7.735   4.952  0.1508 -0.6722  1.2441
   61MOL   H54647466   4.674   0.119   4.902 -2.4626 -1.4145 -0.5416
   61MOL   H54747467   4.790   0.167   5.107  0.2649  0.7757 -0.6507
   61MOL   C54847468   4.411   0.315   4.459  0.1483 -0.3871  1.0009
   61MOL   C54947469   4.404   0.162   4.479 -0.0541 -0.0035  0.5881
   61MOL   C55047470   4.544   0.092   4.467  0.0498  0.1125 -0.2717
   61MOL   C55147471   4.534   7.978   4.493 -0.1428 -0.3290 -0.0376
   61MOL   O55247472   4.463   7.944   4.610  0.4687 -0.2138 -0.3254
   61MOL   C55347473   4.605   0.125   4.330 -0.3966  0.5685 -0.2977
   61MOL   C55447474   4.597   0.280   4.311 -0.7212  0.0244  0.1689
   61MOL   C55547475   4.462   0.347   4.323  0.3083 -0.0716 -0.0986
   61MOL   C55647476   4.452   0.496   4.313  0.3132  0.1346  0.0742
   61MOL   O55747477   4.485   0.542   4.187 -0.6058  0.1735  0.0889
   61MOL   C55847478   4.571   0.650   4.171 -0.0399  0.0999 -0.3978
   61MOL   O55947479   4.624   0.705   4.265 -0.1978  0.0156  0.5183
   61MOL   C56047480   4.610   0.681   4.030  0.2035  0.6324 -0.5684
   61MOL   C56147481   4.524   0.650   3.920  0.5902 -0.1123  0.2154
   61MOL   C56247482   4.566   0.664   3.786  0.1377 -0.2337  0.6203
   61MOL   C56347483   4.687   0.730   3.755 -0.2662  0.5037 -0.6623
   61MOL   C56447484   4.727   0.751   3.614  0.3632  0.2213  0.1615
   61MOL   O56547485   4.838   0.789   3.581 -0.6281 -0.5420  0.0212
   61MOL   O56647486   4.634   0.710   3.527 -0.7601 -0.1712  0.7077
   61MOL   C56747487   4.767   0.759   3.861 -0.3829 -0.7742  0.4844
   61MOL   C56847488   4.732   0.733   3.998  0.4999  0.1772  0.3152
   61MOL   H56947489   4.306   0.344   4.458  0.0260 -0.8180 -1.2001
   61MOL   H57047490   4.464   0.374   4.534 -0.7347  2.3284 -0.4388
   61MOL   H57147491   4.358   0.131   4.573  1.8618  1.4251  2.0573
   61MOL   H57247492   4.329   0.139   4.404 -0.7123  1.9716  0.6120
   61MOL   H57347493   4.609   0.132   4.545 -1.5705 -0.1582  1.2515
   61MOL   H57447494   4.483   7.935   4.406  0.0312 -0.0459 -0.2794
   61MOL   H57547495   4.631   7.929   4.484  1.4087  2.5713  0.5186
   61MOL   H57647496   4.705   0.088   4.310 -1.7176 -3.3273 -0.0898
   61MOL   H57747497   4.532   0.075   4.265 -2.5441  2.8096  0.3358
   61MOL   H57847498   4.643   0.294   4.213 -0.5619  1.3855  0.4250
   61MOL   H57947499   4.656   0.333   4.387 -1.3406  0.6655  0.2020
   61MOL   H58047500   4.396   0.309   4.244 -0.0005  2.3277 -1.0455
   61MOL   H58147501   4.349   0.527   4.329  0.5448  1.7611 -1.5116
   61MOL   H58247502   4.516   0.534   4.392  0.7848 -3.7678  1.6973
   61MOL   H58347503   4.436   0.591   3.940  0.3969 -0.3841 -1.3597
   61MOL   H58447504   4.507   0.621   3.707  1.3647 -0.1927 -0.3324
   61MOL   H58547505   4.861   0.811   3.847  0.7195 -2.2542  2.2057
   61MOL   H58647506   4.796   0.772   4.076  0.4980  1.8065 -0.4782
   61MOL   C58747507   4.922   0.444   3.037  0.7337 -0.1817 -0.4150
   61MOL   C58847508   4.831   0.435   3.161 -0.1793  0.0790 -0.3555
   61MOL   C58947509   4.807   0.574   3.228  0.0131 -0.5846  0.2659
   61MOL   C59047510   4.710   0.568   3.351  0.2071  0.3686  0.2333
   61MOL   O59147511   4.673   0.700   3.383 -0.2940 -0.0030 -0.2544
   61MOL   C59247512   4.948   0.638   3.263 -0.1024  0.7139  0.1442
   61MOL   C59347513   5.033   0.650   3.146  0.3190  0.0809  0.1384
   61MOL   C59447514   5.052   0.517   3.066 -0.3208  0.7733  0.0280
   61MOL   C59547515   5.139   0.550   2.944  0.4690 -0.3480 -0.8707
   61MOL   O59647516   5.202   0.441   2.878  0.4247 -0.2156 -0.1157
   61MOL   C59747517   5.151   0.407   2.758  0.9688 -0.6856  0.0415
   61MOL   O59847518   5.042   0.440   2.716 -0.2699 -0.1537  0.0014
   61MOL   C59947519   5.251   0.351   2.670 -0.3856 -0.2658 -0.3716
   61MOL   C60047520   5.227   0.338   2.532  0.5157  0.4895  0.2804
   61MOL   C60147521   5.320   0.271   2.447  0.1028 -0.1562 -0.5236
   61MOL   C60247522   5.442   0.219   2.500  0.2212  0.3149 -0.4920
   61MOL   C60347523   5.536   0.139   2.414  0.6370 -0.5287 -0.0049
   61MOL   O60447524   5.506   0.103   2.298  0.1667  0.0854 -0.4924
   61MOL   O60547525   5.640   0.096   2.483  0.4082  0.0258 -0.0732
   61MOL   C60647526   5.466   0.241   2.638 -0.7683  0.8179 -0.0068
   61MOL   C60747527   5.375   0.303   2.721 -0.2781  0.6300 -0.2049
   61MOL   H60847528   4.960   0.344   3.017 -0.1045 -0.3623 -1.1087
   61MOL   H60947529   4.884   0.482   2.943 -3.1251  2.1708  1.9398
   61MOL   H61047530   4.732   0.401   3.131 -0.1805  0.3013 -0.6092
   61MOL   H61147531   4.867   0.370   3.241 -1.5516  0.8059  0.8905
   61MOL   H61247532   4.762   0.638   3.153  0.5880  0.9208  1.1779
   61MOL   H61347533   4.621   0.509   3.328  0.6805  0.4652 -1.9054
   61MOL   H61447534   4.747   0.514   3.438 -0.1400  0.8195  0.6633
   61MOL   H61547535   4.932   0.737   3.306  0.0129  1.4638 -1.5000
   61MOL   H61647536   4.994   0.570   3.335 -1.3282 -0.5423 -0.2219
   61MOL   H61747537   5.122   0.703   3.180  1.3333 -1.7422  0.3654
   61MOL   H61847538   4.986   0.729   3.088 -0.5909 -1.1607 -0.8432
   61MOL   H61947539   5.103   0.447   3.131 -0.7052 -2.3713 -2.9369
   61MOL   H62047540   5.082   0.617   2.879  0.0629  0.5468  0.4038
   61MOL   H62147541   5.224   0.608   2.978 -0.0066  0.3533 -0.8673
   61MOL   H62247542   5.133   0.359   2.483  1.7801  2.3496 -1.3872
   61MOL   H62347543   5.306   0.246   2.343  2.3630  1.8430 -1.3597
   61MOL   H62447544   5.550   0.188   2.681 -2.5091 -0.8845  1.3882
   61MOL   H62547545   5.400   0.312   2.825  1.8448  1.0826 -0.7350
   61MOL   C62647546   5.427   7.717   2.447  1.0286 -0.1096 -0.2264
   61MOL   C62747547   5.523   7.820   2.500  0.0304  0.5236  0.3526
   61MOL   C62847548   5.638   7.833   2.397 -0.1886  0.0342  0.0008
   61MOL   C62947549   5.754   7.921   2.448  0.3741 -0.1812 -0.1543
   61MOL   O63047550   5.742   0.019   2.400  0.4024  0.0051  0.0533
   61MOL   C63147551   5.701   7.690   2.373  0.7542  0.0552 -0.0944
   61MOL   C63247552   5.593   7.598   2.311  1.0178 -0.6812 -0.4016
   61MOL   C63347553   5.477   7.581   2.411  0.4010  0.3027  0.1708
   61MOL   C63447554   5.366   7.488   2.357  0.0691 -0.1288  0.1204
   61MOL   O63547555   5.408   7.352   2.377  0.4985 -0.3686 -0.2977
   61MOL   C63647556   5.385   7.267   2.272 -0.9592  0.5390 -0.3380
   61MOL   O63747557   5.333   7.293   2.171  0.0804 -0.1626  0.7414
   61MOL   C63847558   5.428   7.128   2.302  0.0436 -0.1274  0.3479
   61MOL   C63947559   5.507   7.053   2.215 -0.4683 -0.1101 -0.3971
   61MOL   C64047560   5.539   6.922   2.249 -0.2429  0.4192 -0.1565
   61MOL   C64147561   5.510   6.871   2.385  0.3174  0.0910  1.2221
   61MOL   C64247562   5.552   6.730   2.428  0.6163 -0.3264  0.4555
   61MOL   O64347563   5.519   6.679   2.533 -0.2251 -0.0522 -0.0856
   61MOL   O64447564   5.615   6.660   2.329  0.0887 -0.3056 -0.2518
   61MOL   C64547565   5.453   6.953   2.479 -0.6917  0.0689  0.2008
   61MOL   C64647566   5.408   7.079   2.434 -0.7106 -0.4782 -0.4424
   61MOL   H64747567   5.353   7.695   2.524  1.9877 -2.7708 -0.0110
   61MOL   H64847568   5.376   7.763   2.363 -0.8672  0.8312  1.4144
   61MOL   H64947569   5.468   7.914   2.508 -1.7982 -0.4978 -0.1812
   61MOL   H65047570   5.564   7.783   2.594  2.2745  0.0448 -0.7869
   61MOL   H65147571   5.594   7.880   2.309  0.3427 -1.7713 -1.2608
   61MOL   H65247572   5.761   7.923   2.557  1.8273  1.3811 -0.2424
   61MOL   H65347573   5.852   7.882   2.421  1.1607  1.4063  0.3184
   61MOL   H65447574   5.788   7.695   2.307  0.6892  2.0374 -0.0708
   61MOL   H65547575   5.741   7.652   2.467  1.5061 -1.9526 -1.2003
   61MOL   H65647576   5.635   7.498   2.301  1.2664 -0.7212  0.8984
   61MOL   H65747577   5.567   7.650   2.219  1.4357  1.3606  0.6073
   61MOL   H65847578   5.526   7.544   2.501 -0.0492  0.8639  0.6444
   61MOL   H65947579   5.269   7.495   2.406 -0.0929 -1.0164 -0.0513
   61MOL   H66047580   5.348   7.509   2.252  1.4107 -1.1562 -0.3364
   61MOL   H66147581   5.519   7.089   2.114  0.0725 -0.0935 -0.3325
   61MOL   H66247582   5.570   6.857   2.169  0.0363 -0.8839  0.9822
   61MOL   H66347583   5.435   6.919   2.579  0.8433  0.2145  0.5358
   61MOL   H66447584   5.357   7.140   2.507  2.9009  1.5447  0.5181
   61MOL   C66547585   5.577   6.115   2.458 -0.9864  0.6390 -0.2391
   61MOL   C66647586   5.604   6.267   2.475 -1.3550  0.0268  0.4049
   61MOL   C66747587   5.717   6.309   2.384  0.7842 -0.1866 -0.4537
   61MOL   C66847588   5.722   6.465   2.374  0.4320 -0.3621 -0.2800
   61MOL   O66947589   5.599   6.512   2.332 -0.4475 -0.1839 -0.2784
   61MOL   C67047590   5.845   6.233   2.425  0.1771 -0.2116  0.8073
   61MOL   C67147591   5.825   6.080   2.423 -0.7602 -0.0556 -0.1109
   61MOL   C67247592   5.703   6.035   2.498 -0.1772 -0.3821 -0.2324
   61MOL   C67347593   5.681   5.886   2.490 -0.1978 -0.2299 -0.3244
   61MOL   O67447594   5.598   5.854   2.597 -0.4804 -0.4444  0.0907
   61MOL   C67547595   5.588   5.723   2.636 -0.3438  1.2850  0.0978
   61MOL   O67647596   5.650   5.633   2.575 -0.6371  0.1678  0.3490
   61MOL   C67747597   5.497   5.710   2.753  0.3881  0.6334  0.0861
   61MOL   C67847598   5.409   5.818   2.798  0.4326  0.0226 -0.1767
   61MOL   C67947599   5.336   5.799   2.915 -0.1442  0.3122  0.0872
   61MOL   C68047600   5.342   5.677   2.985  0.1784  0.3142  0.4624
   61MOL   C68147601   5.263   5.636   3.101 -0.1850 -0.7026 -0.7243
   61MOL   O68247602   5.284   5.543   3.174  0.2376  0.1750 -0.6233
   61MOL   O68347603   5.165   5.729   3.119 -0.0206 -0.1476 -0.1309
   61MOL   C68447604   5.416   5.567   2.935  0.5016 -0.5508 -0.4033
   61MOL   C68547605   5.494   5.590   2.821 -0.1552  0.5689 -0.4742
   61MOL   H68647606   5.497   6.090   2.528 -1.6815 -1.9763 -1.9216
   61MOL   H68747607   5.545   6.090   2.357 -0.1045  1.7757 -0.8082
   61MOL   H68847608   5.514   6.323   2.449 -0.2084  1.4479 -0.6341
   61MOL   H68947609   5.626   6.290   2.579  0.2764 -0.1792  0.1110
   61MOL   H69047610   5.688   6.278   2.284  0.3687  1.1840 -0.7740
   61MOL   H69147611   5.743   6.507   2.472  0.3760 -1.6742  0.3109
   61MOL   H69247612   5.790   6.489   2.292 -2.4153 -0.2454 -2.6758
   61MOL   H69347613   5.916   6.254   2.345 -0.0838  3.4483  1.4498
   61MOL   H69447614   5.881   6.263   2.524 -2.2916  1.6319  1.2174
   61MOL   H69547615   5.912   6.037   2.473 -0.2361  0.7163 -0.3494
   61MOL   H69647616   5.825   6.040   2.321 -1.6279 -1.6172  0.4954
   61MOL   H69747617   5.724   6.058   2.602  1.1703 -1.3641 -0.2732
   61MOL   H69847618   5.643   5.860   2.391  0.0064  1.7232 -0.9289
   61MOL   H69947619   5.781   5.843   2.496 -0.4197 -0.6860  0.1353
   61MOL   H70047620   5.413   5.915   2.750 -1.2002  1.3401  2.2732
   61MOL   H70147621   5.292   5.883   2.966 -0.1654  0.6795 -0.5359
   61MOL   H70247622   5.419   5.476   2.994 -0.6541  1.0302  2.1673
   61MOL   H70347623   5.558   5.509   2.788  2.7851  2.9497 -0.8189
   61MOL   C70447624   4.736   5.927   3.044  0.2278  0.0705  0.0961
   61MOL   C70547625   4.825   5.868   3.146  0.1258 -0.0511 -0.7066
   61MOL   C70647626   4.879   5.726   3.115  0.1220 -0.8058 -0.0768
   61MOL   C70747627   4.965   5.665   3.225 -0.8818  0.1547  0.5009
   61MOL   O70847628   5.090   5.721   3.248  0.1990 -0.0640  0.2951
   61MOL   C70947629   4.760   5.638   3.086 -0.2406  0.7296  0.2265
   61MOL   C71047630   4.687   5.689   2.965  0.2320  0.8467 -0.0636
   61MOL   C71147631   4.626   5.827   2.995 -0.2301 -0.4039 -0.1555
   61MOL   C71247632   4.547   5.887   2.884 -0.6199  0.1497  0.0104
   61MOL   O71347633   4.488   6.011   2.910  0.2763  0.3996 -0.5861
   61MOL   C71447634   4.441   6.085   2.805 -0.2816 -0.6098  0.3889
   61MOL   O71547635   4.403   6.042   2.697 -0.9323  0.8245  0.2137
   61MOL   C71647636   4.424   6.227   2.850 -0.4144  0.0775 -0.1352
   61MOL   C71747637   4.523   6.284   2.931  0.1796 -0.1084 -0.1558
   61MOL   C71847638   4.508   6.417   2.987 -0.1144  0.2161 -0.8147
   61MOL   C71947639   4.392   6.485   2.954  0.6503 -0.1566  0.1285
   61MOL   C72047640   4.374   6.617   3.016  0.0593  0.5538 -0.0006
   61MOL   O72147641   4.446   6.666   3.099  0.2900  0.2115 -0.0902
   61MOL   O72247642   4.259   6.672   2.985 -0.1725  0.1005 -0.2010
   61MOL   C72347643   4.291   6.426   2.863 -0.3355  0.6288  0.1538
   61MOL   C72447644   4.309   6.302   2.809  0.6797 -0.0773  0.3997
   61MOL   H72547645   4.690   6.021   3.074 -1.0645 -0.5943  0.2113
   61MOL   H72647646   4.790   5.947   2.951 -1.8493  0.2081 -1.1197
   61MOL   H72747647   4.911   5.933   3.165 -0.4625  0.9843 -1.5248
   61MOL   H72847648   4.782   5.870   3.246  1.7570 -1.2450  0.0511
   61MOL   H72947649   4.944   5.738   3.029 -0.1416 -1.7788 -0.4148
   61MOL   H73047650   4.909   5.666   3.318  0.6024 -0.0724  1.4230
   61MOL   H73147651   4.986   5.562   3.196  0.9478  0.1823  1.6311
   61MOL   H73247652   4.796   5.540   3.058 -0.1455  0.3894  1.4973
   61MOL   H73347653   4.695   5.636   3.174 -1.2863  2.2704 -0.4936
   61MOL   H73447654   4.611   5.623   2.923 -1.0327  2.6781 -0.7253
   61MOL   H73547655   4.757   5.679   2.881  2.0397 -1.0188  1.6021
   61MOL   H73647656   4.559   5.824   3.082 -0.0501  2.4005  0.1305
   61MOL   H73747657   4.600   5.877   2.790 -0.1710 -1.5965  0.4401
   61MOL   H73847658   4.451   5.835   2.877  0.2258 -1.7721  2.1672
   61MOL   H73947659   4.614   6.232   2.956  0.0507  1.5310  4.2254
   61MOL   H74047660   4.586   6.452   3.052 -0.5277  0.1793 -0.2992
   61MOL   H74147661   4.198   6.476   2.844 -0.1607  0.8510 -0.1105
   61MOL   H74247662   4.236   6.265   2.738  0.5880  0.7239  0.0676
   61MOL   C74347663   4.073   7.094   3.410  0.1970  0.2377 -0.5883
   61MOL   C74447664   4.085   6.955   3.342 -0.3299  0.1812 -0.3856
   61MOL   C74547665   4.148   6.956   3.203 -0.5493  0.0829 -0.5082
   61MOL   C74647666   4.156   6.813   3.143  0.1008 -0.2537 -0.6007
   61MOL   O74747667   4.249   6.815   3.040 -0.5401 -0.1496 -0.1778
   61MOL   C74847668   4.087   7.060   3.109  0.5381 -0.5539 -0.3097
   61MOL   C74947669   4.099   7.196   3.167  0.2319 -0.1824 -0.0071
   61MOL   C75047670   4.023   7.198   3.299  0.3684  0.2856 -0.5062
   61MOL   C75147671   4.023   7.341   3.363 -0.4089 -0.3014 -0.0788
   61MOL   O75247672   3.942   7.421   3.279  0.7819 -0.3053 -0.3262
   61MOL   C75347673   3.819   7.449   3.322  1.6059 -0.4566 -0.3365
   61MOL   O75447674   3.764   7.381   3.406  0.1548 -0.7236 -0.5096
   61MOL   C75547675   3.753   7.561   3.252 -0.1529  0.5641 -0.1993
   61MOL   C75647676   3.818   7.616   3.137  0.1284 -0.9529 -0.0387
   61MOL   C75747677   3.773   7.733   3.073  0.2998  0.5681 -0.4975
   61MOL   C75847678   3.656   7.798   3.123  0.1867 -0.1032 -0.1913
   61MOL   C75947679   3.595   7.914   3.048 -0.2532  0.7138  0.4014
   61MOL   O76047680   3.504   7.990   3.084 -0.3677 -0.0456 -0.1190
   61MOL   O76147681   3.647   7.926   2.922 -0.8290 -0.6390  0.2168
   61MOL   C76247682   3.591   7.741   3.234 -0.3407  0.8552  0.3945
   61MOL   C76347683   3.637   7.628   3.302 -0.3796 -0.0749 -0.5383
   61MOL   H76447684   4.009   7.078   3.496 -1.5622 -1.1025 -2.1181
   61MOL   H76547685   4.174   7.132   3.430  0.0355  1.3511 -1.8615
   61MOL   H76647686   4.146   6.899   3.414  2.5381  1.4420 -1.7460
   61MOL   H76747687   3.992   6.898   3.345  0.8858 -1.8291 -0.0243
   61MOL   H76847688   4.250   6.992   3.210 -0.9702  1.1901  0.0872
   61MOL   H76947689   4.191   6.744   3.220 -0.8705  2.2399  2.1321
   61MOL   H77047690   4.059   6.776   3.109 -0.8558  0.9286  0.7919
   61MOL   H77147691   4.146   7.053   3.017 -0.6079  1.8873 -1.2749
   61MOL   H77247692   3.985   7.035   3.080  0.9946 -1.2663 -1.3414
   61MOL   H77347693   4.045   7.264   3.100  0.9760 -0.2709 -0.7091
   61MOL   H77447694   4.201   7.232   3.184  0.2832 -0.9946  1.4930
   61MOL   H77547695   3.919   7.172   3.280 -0.8827  2.9314  2.2010
   61MOL   H77647696   3.987   7.336   3.466 -0.1537  0.9862  0.0797
   61MOL   H77747697   4.129   7.367   3.374 -0.3504  0.6506 -2.5508
   61MOL   H77847698   3.909   7.565   3.110  1.7708  1.7896  0.0835
   61MOL   H77947699   3.829   7.773   2.989 -0.0717 -0.4527 -1.2351
   61MOL   H78047700   3.510   7.794   3.282 -2.6776 -1.6257 -0.6854
   61MOL   H78147701   3.593   7.598   3.396  1.0794  0.5440  0.3740
   61MOL   H78247702   3.582   7.970   2.869  1.4514  0.0609 -2.1237
   62MOL     C147703   6.573   4.351   4.451  0.6840  0.0465  0.3800
   62MOL     C247704   6.707   4.332   4.517 -0.2096 -0.0739  0.2461
   62MOL     C347705   6.689   4.356   4.670  0.9033  0.1410 -0.3418
   62MOL     C447706   6.815   4.333   4.762 -0.6039 -0.2433 -0.1066
   62MOL     O547707   6.855   4.194   4.757 -0.1137 -0.3455  0.4646
   62MOL     C647708   6.643   4.496   4.691 -0.4189 -0.1140 -0.1005
   62MOL     C747709   6.516   4.532   4.612 -0.3409  0.2512  0.4547
   62MOL     C847710   6.524   4.495   4.461 -0.4101 -0.1441 -0.5759
   62MOL     C947711   6.392   4.531   4.387 -0.1519 -0.4980  0.3620
   62MOL    O1047712   6.404   4.528   4.246 -0.2304  0.0195  0.4595
   62MOL    C1147713   6.338   4.611   4.166 -0.1989 -0.1832 -0.0868
   62MOL    O1247714   6.258   4.700   4.201 -0.5096 -0.7733  0.4592
   62MOL    C1347715   6.379   4.593   4.027  0.4125  0.2044  0.0031
   62MOL    C1447716   6.319   4.680   3.930 -0.5210  0.0138  0.8657
   62MOL    C1547717   6.352   4.669   3.797 -0.1192 -0.1271 -0.6834
   62MOL    C1647718   6.457   4.583   3.756  0.2352 -0.1088  0.6085
   62MOL    C1747719   6.497   4.587   3.610 -0.0599 -0.5187 -0.8343
   62MOL    O1847720   6.451   4.673   3.535  0.3526  0.8750 -0.3855
   62MOL    O1947721   6.601   4.504   3.570  0.3747  0.1138  0.3039
   62MOL    C2047722   6.516   4.495   3.853 -0.7132  0.1810 -0.5579
   62MOL    C2147723   6.477   4.502   3.988  0.2484  0.2884  0.1895
   62MOL    H2247724   6.589   4.336   4.344 -0.6970  2.7885 -0.2397
   62MOL    H2347725   6.498   4.283   4.490  2.0213 -1.1447  0.9415
   62MOL    H2447726   6.741   4.229   4.504  2.1443  0.5016  1.5079
   62MOL    H2547727   6.782   4.402   4.480  1.3172 -1.0324  1.4447
   62MOL    H2647728   6.623   4.275   4.702  1.3689  0.3166  1.0606
   62MOL    H2747729   6.898   4.396   4.729 -0.9329 -0.4457 -1.3391
   62MOL    H2847730   6.793   4.361   4.865  1.0002 -3.7685  1.3027
   62MOL    H2947731   6.635   4.528   4.795  3.0964 -0.0867  0.2181
   62MOL    H3047732   6.728   4.551   4.651  0.8559 -3.2007 -1.8073
   62MOL    H3147733   6.505   4.640   4.623 -0.9804 -0.0346  3.0841
   62MOL    H3247734   6.426   4.476   4.639  0.0954 -0.3240  0.7487
   62MOL    H3347735   6.601   4.560   4.419 -0.7514  0.5561 -0.1213
   62MOL    H3447736   6.311   4.462   4.409  0.5117 -2.2862 -2.5703
   62MOL    H3547737   6.354   4.628   4.419 -0.5599 -0.9754  1.3584
   62MOL    H3647738   6.240   4.750   3.953 -1.3644  0.3703 -2.7566
   62MOL    H3747739   6.296   4.731   3.729  0.9358  0.9118 -0.6009
   62MOL    H3847740   6.588   4.420   3.825 -0.6078  0.1698 -0.2551
   62MOL    H3947741   6.519   4.448   4.071  0.3281  2.8130  1.8275
   62MOL    H4047742   6.918   4.186   4.826 -0.2423 -2.0480  0.3899
   62MOL    C4147743   6.891   4.211   3.255  0.1971  0.7635  0.6985
   62MOL    C4247744   6.818   4.343   3.279  0.3836  0.4857 -0.2140
   62MOL    C4347745   6.674   4.324   3.326  0.1943 -0.6900 -0.1445
   62MOL    C4447746   6.593   4.456   3.344 -0.0380  0.0034 -0.2138
   62MOL    O4547747   6.658   4.540   3.434 -0.2600  0.0104  0.0746
   62MOL    C4647748   6.607   4.210   3.246  0.3464  0.3854 -0.1520
   62MOL    C4747749   6.686   4.080   3.210  0.6549 -0.2614  0.2845
   62MOL    C4847750   6.821   4.124   3.153  0.0458  0.9100 -0.5517
   62MOL    C4947751   6.907   4.007   3.114 -0.4927 -0.5354 -0.3516
   62MOL    O5047752   6.844   3.927   3.009  0.5890 -0.4987 -0.5548
   62MOL    C5147753   6.891   3.912   2.882  0.3517 -0.0070  0.3199
   62MOL    O5247754   7.000   3.958   2.851  0.3862  0.4974 -0.5134
   62MOL    C5347755   6.800   3.840   2.787  0.6093 -0.1613  0.0438
   62MOL    C5447756   6.673   3.804   2.825  0.1979  0.2826 -0.4074
   62MOL    C5547757   6.579   3.757   2.732 -0.6981  0.2244  0.2510
   62MOL    C5647758   6.614   3.749   2.595  0.1183 -0.0604 -0.1712
   62MOL    C5747759   6.515   3.695   2.500  0.0847 -0.0439 -0.6052
   62MOL    O5847760   6.532   3.703   2.377 -0.2482  0.0275 -0.2777
   62MOL    O5947761   6.405   3.640   2.552  0.3874  0.1979  0.6138
   62MOL    C6047762   6.743   3.794   2.551 -1.0557  0.0145  0.0955
   62MOL    C6147763   6.836   3.833   2.650 -1.3441 -0.1105  0.2197
   62MOL    H6247764   6.997   4.221   3.234  0.2808 -2.6650 -0.9248
   62MOL    H6347765   6.902   4.162   3.351  1.1477 -0.6971 -0.1359
   62MOL    H6447766   6.876   4.408   3.344 -0.1201  0.6783  0.0447
   62MOL    H6547767   6.816   4.399   3.185 -1.7557  0.2776 -0.2990
   62MOL    H6647768   6.687   4.282   3.426  0.5891  0.0449  0.1162
   62MOL    H6747769   6.579   4.502   3.246  1.1077  0.6309 -0.0948
   62MOL    H6847770   6.505   4.420   3.398  2.3111 -1.7492  2.6311
   62MOL    H6947771   6.514   4.186   3.297 -0.6951  2.0854 -1.1809
   62MOL    H7047772   6.573   4.264   3.158  0.1527  0.5352  0.0157
   62MOL    H7147773   6.627   4.033   3.131 -2.7416  1.6887  1.5827
   62MOL    H7247774   6.706   4.009   3.291 -2.6631 -1.6470 -0.0422
   62MOL    H7347775   6.810   4.180   3.059 -1.6687  0.3079 -0.7203
   62MOL    H7447776   7.002   4.041   3.073 -1.4037  1.1170 -1.1533
   62MOL    H7547777   6.921   3.949   3.205 -0.3495  0.5661  0.3324
   62MOL    H7647778   6.650   3.818   2.930 -1.3788 -2.3525 -0.3464
   62MOL    H7747779   6.479   3.739   2.769 -0.8388 -0.5233 -0.4716
   62MOL    H7847780   6.778   3.787   2.449 -0.9905  2.7454 -0.1113
   62MOL    H7947781   6.936   3.870   2.630 -1.3176 -0.5080 -0.3992
   62MOL    C8047782   6.001   3.441   2.180  0.2210  0.2743 -0.1821
   62MOL    C8147783   6.093   3.471   2.303 -0.1557  0.0596  0.5324
   62MOL    C8247784   6.236   3.424   2.289 -0.4662 -0.3376 -0.0639
   62MOL    C8347785   6.313   3.469   2.410  0.1023 -0.1846  0.0777
   62MOL    O8447786   6.296   3.607   2.447  0.2834  0.2582 -0.3852
   62MOL    C8547787   6.239   3.274   2.252 -0.2570  0.1957 -0.3073
   62MOL    C8647788   6.154   3.241   2.127  0.0225  0.6615  0.0311
   62MOL    C8747789   6.015   3.288   2.148 -0.6863  0.0662 -0.4060
   62MOL    C8847790   5.927   3.247   2.025 -0.4043  0.3430 -0.6036
   62MOL    O8947791   5.974   3.314   1.906 -0.1888 -0.0191 -0.0676
   62MOL    C9047792   5.896   3.406   1.850  0.4272  0.9728  0.4968
   62MOL    O9147793   5.791   3.444   1.898  0.3316 -0.2384 -0.1078
   62MOL    C9247794   5.943   3.469   1.723  0.4910  0.1567  0.4584
   62MOL    C9347795   6.063   3.434   1.661 -0.9790  0.3293  0.6342
   62MOL    C9447796   6.112   3.497   1.548 -0.0997  0.2798 -0.5376
   62MOL    C9547797   6.049   3.609   1.496  0.2464  0.0351  0.5623
   62MOL    C9647798   6.107   3.698   1.386  0.4034 -0.2928  0.0019
   62MOL    O9747799   6.050   3.801   1.350  0.5538 -0.0516  0.1885
   62MOL    O9847800   6.210   3.646   1.331  0.0676 -0.2869 -0.4433
   62MOL    C9947801   5.927   3.648   1.556 -0.2382  0.2942 -0.2373
   62MOL   C10047802   5.869   3.576   1.663  1.0885 -0.1368  0.0108
   62MOL   H10147803   5.898   3.456   2.214  0.7360  1.4702  0.9148
   62MOL   H10247804   6.026   3.508   2.098 -0.0946  0.7862  0.1368
   62MOL   H10347805   6.091   3.579   2.316 -0.6121  0.1282 -0.0480
   62MOL   H10447806   6.049   3.426   2.391  0.1699 -0.2001  0.5663
   62MOL   H10547807   6.283   3.468   2.201 -0.0560 -2.6911 -1.0782
   62MOL   H10647808   6.293   3.401   2.492 -0.4916  0.6156  0.5993
   62MOL   H10747809   6.418   3.454   2.384  0.5003  0.7001  1.1704
   62MOL   H10847810   6.346   3.254   2.249 -0.1158  1.0652 -1.6033
   62MOL   H10947811   6.190   3.213   2.328 -0.4118 -1.3318 -1.5942
   62MOL   H11047812   6.167   3.134   2.108  1.9664  0.8110  0.3792
   62MOL   H11147813   6.205   3.288   2.043  1.7148  0.4722  0.9142
   62MOL   H11247814   5.976   3.231   2.232 -2.0629 -1.3488 -1.9742
   62MOL   H11347815   5.926   3.140   2.009  1.3596  0.1280  0.5747
   62MOL   H11447816   5.825   3.275   2.051 -0.4006  0.7085 -0.9802
   62MOL   H11547817   6.122   3.351   1.697  0.8169  1.4797  0.3924
   62MOL   H11647818   6.207   3.476   1.500 -1.4956 -0.9753 -2.8714
   62MOL   H11747819   5.893   3.748   1.533  1.0634  1.3665  2.2729
   62MOL   H11847820   5.780   3.617   1.708 -0.0683 -0.7281 -1.7177
   62MOL   C11947821   6.458   3.994   1.548  0.2300  0.2967 -0.8582
   62MOL   C12047822   6.431   3.937   1.407 -0.1006 -0.5951 -1.1363
   62MOL   C12147823   6.460   3.786   1.403  0.1097 -0.4350 -0.6804
   62MOL   C12247824   6.420   3.729   1.268 -0.5245  0.1202 -0.4879
   62MOL   O12347825   6.286   3.739   1.245 -0.0237  0.3067  0.2101
   62MOL   C12447826   6.613   3.766   1.434  0.2358  0.4989  0.4879
   62MOL   C12547827   6.632   3.812   1.577  0.8217  0.3864  0.7979
   62MOL   C12647828   6.597   3.961   1.601 -0.3489  0.5209 -0.2558
   62MOL   C12747829   6.600   3.994   1.753  0.1999  0.4135 -0.0567
   62MOL   O12847830   6.561   4.133   1.783 -0.1902 -0.2439  0.8909
   62MOL   C12947831   6.509   4.173   1.902 -0.5025 -0.0011  0.6572
   62MOL   O13047832   6.500   4.090   1.994 -0.6086  0.3954 -0.4123
   62MOL   C13147833   6.478   4.316   1.900 -0.1446 -0.0236 -0.5033
   62MOL   C13247834   6.483   4.394   1.783  0.3247 -0.3096 -0.5512
   62MOL   C13347835   6.463   4.534   1.795  0.2622 -0.1045 -0.1332
   62MOL   C13447836   6.426   4.595   1.919  0.6292  0.3230 -0.1064
   62MOL   C13547837   6.383   4.734   1.916  0.4275 -0.2516 -0.3688
   62MOL   O13647838   6.425   4.818   1.837  0.3826 -0.9195 -0.1581
   62MOL   O13747839   6.299   4.758   2.017  0.2223  0.1535 -0.2370
   62MOL   C13847840   6.418   4.512   2.034  0.4895 -0.5363 -0.2045
   62MOL   C13947841   6.448   4.371   2.027 -0.5363  0.2101 -0.3206
   62MOL   H14047842   6.451   4.103   1.550  0.5642  0.2991  0.6113
   62MOL   H14147843   6.384   3.953   1.617  0.2747 -0.2935 -1.1656
   62MOL   H14247844   6.324   3.951   1.387 -0.0541  2.1229  0.3416
   62MOL   H14347845   6.478   3.994   1.326 -0.5521  0.4783 -0.6532
   62MOL   H14447846   6.393   3.737   1.473 -2.4278  0.7172 -2.2235
   62MOL   H14547847   6.473   3.780   1.187  0.2981  1.8559  1.1039
   62MOL   H14647848   6.464   3.630   1.256 -0.8017 -0.3010  1.7843
   62MOL   H14747849   6.643   3.662   1.422  1.8151  0.8472  1.3460
   62MOL   H14847850   6.662   3.831   1.362 -1.4334  1.5318  0.2429
   62MOL   H14947851   6.735   3.794   1.609  1.4979 -0.8237 -1.8850
   62MOL   H15047852   6.570   3.757   1.648 -2.0648 -0.0262 -1.9227
   62MOL   H15147853   6.673   4.019   1.549  0.7673 -0.8101 -0.1364
   62MOL   H15247854   6.526   3.931   1.801  0.3925  0.2672  0.0498
   62MOL   H15347855   6.702   3.978   1.790 -0.3169 -0.2286  1.1137
   62MOL   H15447856   6.500   4.353   1.685  1.1180 -0.0420 -0.5351
   62MOL   H15547857   6.448   4.602   1.713 -2.0988  0.6189  0.8481
   62MOL   H15647858   6.373   4.556   2.122  0.8393 -1.7595  0.5940
   62MOL   H15747859   6.433   4.311   2.116 -2.2029  0.8124 -0.1805
   62MOL   C15847860   6.136   5.289   2.257  0.5214 -0.2715  0.3125
   62MOL   C15947861   6.243   5.182   2.219  0.6201  1.1151  0.2550
   62MOL   C16047862   6.188   5.081   2.117  0.2276 -0.6341  0.3045
   62MOL   C16147863   6.286   4.966   2.107  0.1526 -0.3038  0.2276
   62MOL   O16247864   6.225   4.883   2.011 -0.2976  0.2341 -0.2813
   62MOL   C16347865   6.046   5.025   2.158 -0.2471 -0.2291  0.1842
   62MOL   C16447866   5.949   5.134   2.183  0.0846 -0.4356 -0.5049
   62MOL   C16547867   5.990   5.238   2.289  0.4006  0.1552 -0.2744
   62MOL   C16647868   5.890   5.354   2.301 -0.0534 -0.3743  0.0884
   62MOL   O16747869   5.944   5.454   2.380  0.0023 -0.0731 -0.1673
   62MOL   C16847870   5.929   5.447   2.514 -0.3968 -0.7647 -0.7801
   62MOL   O16947871   5.888   5.347   2.569 -0.0214  1.1637 -0.0028
   62MOL   C17047872   5.970   5.573   2.589 -0.4010 -0.0415 -0.3645
   62MOL   C17147873   5.933   5.596   2.724  0.2582 -0.0092 -0.2841
   62MOL   C17247874   5.952   5.717   2.789 -0.6740 -0.3846  0.5686
   62MOL   C17347875   6.000   5.825   2.716  0.9216  0.1003  0.5959
   62MOL   C17447876   6.004   5.955   2.790  0.7764 -0.5337  0.0761
   62MOL   O17547877   5.964   5.978   2.905 -0.0878 -0.4445  0.7866
   62MOL   O17647878   6.044   6.053   2.712 -0.8329  1.0392 -0.8016
   62MOL   C17747879   6.043   5.802   2.581  0.1917 -0.2432 -0.1890
   62MOL   C17847880   6.030   5.680   2.520  0.6521 -0.0873  0.4116
   62MOL   H17947881   6.173   5.347   2.341 -0.8444  2.1418 -0.7069
   62MOL   H18047882   6.140   5.372   2.186  0.1837  0.9944  1.7436
   62MOL   H18147883   6.326   5.235   2.172  1.7722  1.9073  3.0655
   62MOL   H18247884   6.285   5.138   2.310 -0.2726  1.5087  0.8595
   62MOL   H18347885   6.181   5.134   2.022 -0.7115 -0.8546  0.2415
   62MOL   H18447886   6.384   4.988   2.065 -0.5347  0.0988 -1.1879
   62MOL   H18547887   6.279   4.925   2.208 -1.9129  0.6730  0.5219
   62MOL   H18647888   6.020   4.965   2.071  1.8696 -1.8598  0.6117
   62MOL   H18747889   6.047   4.957   2.244 -4.3692 -0.9082 -0.2093
   62MOL   H18847890   5.858   5.088   2.222 -1.2454  1.8689 -0.8592
   62MOL   H18947891   5.922   5.171   2.085 -2.5699  0.0626  0.3690
   62MOL   H19047892   5.999   5.185   2.384  0.0334  3.5823  1.7269
   62MOL   H19147893   5.874   5.399   2.203  0.7651 -0.7862 -0.2404
   62MOL   H19247894   5.790   5.321   2.328  0.0559 -0.7243  0.0618
   62MOL   H19347895   5.878   5.520   2.778 -0.3631 -0.4540 -1.4985
   62MOL   H19447896   5.911   5.735   2.887  0.8806  0.2719  1.0968
   62MOL   H19547897   6.090   5.887   2.533  0.8681  1.1082  2.7385
   62MOL   H19647898   6.058   5.668   2.417  0.2659 -1.2853  0.4429
   62MOL   C19747899   6.021   6.561   2.936 -0.4482  0.3367  0.2299
   62MOL   C19847900   6.060   6.448   2.841 -0.3673  0.0955  0.2662
   62MOL   C19947901   6.130   6.337   2.921  0.2079 -0.4460  0.2501
   62MOL   C20047902   6.158   6.215   2.837  0.3602 -0.0876  0.1793
   62MOL   O20147903   6.035   6.189   2.771  0.7428  0.2249  0.1892
   62MOL   C20247904   6.257   6.392   2.982  0.4027  0.3653 -0.2131
   62MOL   C20347905   6.214   6.504   3.088  0.3931 -0.2332  0.8977
   62MOL   C20447906   6.140   6.616   3.024  0.0078  0.1887  0.5952
   62MOL   C20547907   6.095   6.717   3.125 -0.3686 -1.1128  1.0484
   62MOL   O20647908   6.078   6.840   3.075 -0.0171  0.0724  0.0867
   62MOL   C20747909   5.953   6.884   3.041 -0.3529 -0.5476  0.2762
   62MOL   O20847910   5.848   6.818   3.035 -1.3500  0.5273  0.3852
   62MOL   C20947911   5.956   7.034   3.027 -0.2423  0.1245  0.9420
   62MOL   C21047912   6.072   7.102   2.990 -0.2275  0.0675 -0.2315
   62MOL   C21147913   6.067   7.243   2.982 -0.3270 -0.9116  0.3302
   62MOL   C21247914   5.950   7.310   3.022  0.5989  0.5164  0.7634
   62MOL   C21347915   5.955   7.456   3.049 -0.3012  0.5118  0.0879
   62MOL   O21447916   5.856   7.523   3.067  0.5307  0.1147  0.2471
   62MOL   O21547917   6.081   7.510   3.037 -0.1851  0.0063  0.7258
   62MOL   C21647918   5.833   7.239   3.060 -0.3332  0.2754  0.8158
   62MOL   C21747919   5.836   7.096   3.049  0.5258 -0.4188 -0.7076
   62MOL   H21847920   5.977   6.640   2.875 -0.1757  0.7988  0.6190
   62MOL   H21947921   5.947   6.519   3.004 -0.0619 -0.1951  0.3229
   62MOL   H22047922   5.963   6.421   2.799 -1.3488  2.9458  0.5537
   62MOL   H22147923   6.130   6.481   2.764 -1.1113  1.3558  0.1196
   62MOL   H22247924   6.059   6.304   2.998  2.6497 -0.8072  2.3982
   62MOL   H22347925   6.241   6.229   2.767  1.4253  0.0531  1.4601
   62MOL   H22447926   6.207   6.145   2.904  1.5017  2.3454  1.9516
   62MOL   H22547927   6.321   6.314   3.022  2.0999  0.9637 -1.6794
   62MOL   H22647928   6.318   6.445   2.909  0.8361  2.4585  1.6209
   62MOL   H22747929   6.300   6.540   3.144 -1.7652  1.1873  3.4198
   62MOL   H22847930   6.157   6.465   3.173 -0.0750  0.5955  0.9671
   62MOL   H22947931   6.210   6.674   2.965  1.4349 -2.5313 -0.4410
   62MOL   H23047932   6.003   6.677   3.168 -1.1295 -1.9244 -1.2947
   62MOL   H23147933   6.182   6.723   3.191  1.2909 -0.2571 -1.1757
   62MOL   H23247934   6.166   7.053   2.971 -0.8598 -1.1645 -0.1835
   62MOL   H23347935   6.158   7.298   2.961 -0.4904 -1.1257 -0.9651
   62MOL   H23447936   5.741   7.293   3.079 -0.8128 -0.2494  0.0441
   62MOL   H23547937   5.741   7.046   3.062 -0.2722  1.4568  1.2091
   62MOL   C23647938   6.309   7.865   3.484  0.2178 -0.3471 -0.6026
   62MOL   C23747939   6.298   7.735   3.405 -0.2273 -0.0432  0.1879
   62MOL   C23847940   6.187   7.762   3.297 -0.2218  0.0505  0.4415
   62MOL   C23947941   6.178   7.635   3.213  0.7787  0.1438  0.8995
   62MOL   O24047942   6.087   7.647   3.106 -0.2986 -0.5919 -0.0318
   62MOL   C24147943   6.056   7.787   3.362  0.9871  0.3331 -0.0599
   62MOL   C24247944   6.063   7.911   3.450 -0.0752 -0.7654 -0.3066
   62MOL   C24347945   6.175   7.907   3.555 -0.7873  0.8151 -0.1249
   62MOL   C24447946   6.192   0.008   3.621 -0.3714 -0.5634 -0.2861
   62MOL   O24547947   6.260   8.015   3.746  0.1363 -0.2512 -0.2287
   62MOL   C24647948   6.196   8.020   3.864 -0.2657 -0.1098  0.2794
   62MOL   O24747949   6.079   0.010   3.884  0.2777  0.2459  0.5772
   62MOL   C24847950   6.288   8.000   3.985  0.4739  0.9497 -0.1256
   62MOL   C24947951   6.242   7.956   4.107  0.3053  0.1499 -1.2879
   62MOL   C25047952   6.318   7.955   4.223 -0.2668 -0.8922 -0.8752
   62MOL   C25147953   6.454   7.998   4.219 -0.2991 -0.2395  0.7167
   62MOL   C25247954   6.534   8.000   4.344 -0.5673 -0.2218  0.4073
   62MOL   O25347955   6.488   7.982   4.452  0.2262  0.6449 -0.3449
   62MOL   O25447956   6.665   8.022   4.322 -0.0067 -0.4155  0.0320
   62MOL   C25547957   6.504   0.005   4.092  0.4710  0.1386  0.3056
   62MOL   C25647958   6.425   0.007   3.979  0.1506 -0.4210 -0.7787
   62MOL   H25747959   6.388   7.856   3.558 -0.7416  1.7795  0.7008
   62MOL   H25847960   6.328   7.953   3.422  1.1107 -0.7018 -0.8397
   62MOL   H25947961   6.394   7.709   3.360 -0.0138  1.2759 -0.1251
   62MOL   H26047962   6.278   7.653   3.475 -0.0692  0.9650  1.4404
   62MOL   H26147963   6.224   7.836   3.226  2.3361  0.2452  1.8962
   62MOL   H26247964   6.273   7.608   3.167  0.4814 -0.2405  0.5131
   62MOL   H26347965   6.151   7.553   3.279 -0.1737  1.5490  2.2955
   62MOL   H26447966   5.989   7.802   3.277 -0.1132 -1.2223  0.5100
   62MOL   H26547967   6.022   7.696   3.411 -0.2773  0.5230 -0.5696
   62MOL   H26647968   5.965   7.918   3.496 -0.8734 -3.3627 -1.4781
   62MOL   H26747969   6.068   7.994   3.380 -0.5674  0.6410  1.2992
   62MOL   H26847970   6.140   7.829   3.623 -0.6808 -0.2123 -1.2401
   62MOL   H26947971   6.253   0.078   3.564 -2.6022  0.2294 -1.7972
   62MOL   H27047972   6.097   0.062   3.631 -0.0858 -0.2049  0.5703
   62MOL   H27147973   6.140   7.919   4.116 -0.3942  1.8922 -1.8159
   62MOL   H27247974   6.269   7.915   4.310 -2.6117  1.2006 -1.1650
   62MOL   H27347975   6.609   0.031   4.084  0.2009  0.8614 -1.0804
   62MOL   H27447976   6.458   0.066   3.896  4.5949 -1.5059  0.0890
   62MOL   C27547977   6.978   0.076   4.821  0.2164 -0.2347  0.5800
   62MOL   C27647978   6.858   0.052   4.727  0.2169  0.3481  0.1279
   62MOL   C27747979   6.841   0.150   4.606 -0.2088 -0.2601  0.2565
   62MOL   C27847980   6.730   0.120   4.504 -0.4034 -1.0703 -0.2153
   62MOL   O27947981   6.745   8.026   4.451  0.5623 -0.2379 -0.1941
   62MOL   C28047982   6.823   0.286   4.672  0.0663 -0.0687  0.3439
   62MOL   C28147983   6.952   0.330   4.760 -0.1724  1.0420 -0.0969
   62MOL   C28247984   6.979   0.221   4.871 -0.4819  0.7240 -0.1477
   62MOL   C28347985   7.108   0.253   4.958 -0.1543 -0.1846 -0.0896
   62MOL   O28447986   7.221   0.278   4.880  0.1420 -0.5929 -0.2991
   62MOL   C28547987   7.343   0.215   4.898  0.4048 -0.2217 -0.0555
   62MOL   O28647988   7.368   0.137   4.989  1.1041  0.5375 -0.1927
   62MOL   C28747989   7.437   0.249   4.790  0.4539 -0.5600  0.2979
   62MOL   C28847990   7.387   0.278   4.657  0.2339  0.5911  0.4847
   62MOL   C28947991   7.473   0.291   4.548 -0.5439 -0.3481  0.1289
   62MOL   C29047992   7.613   0.276   4.571 -0.4493  0.4128 -0.7861
   62MOL   C29147993   7.714   0.290   4.468 -0.1750  0.2564  0.3849
   62MOL   O29247994   7.834   0.287   4.497  0.0014 -0.5954  1.1276
   62MOL   O29347995   7.654   0.312   4.349 -0.0860 -0.0079 -0.0681
   62MOL   C29447996   7.662   0.263   4.702 -0.4549 -0.2504 -0.4649
   62MOL   C29547997   7.575   0.245   4.816  0.2473  0.2828 -0.3183
   62MOL   H29647998   6.980   0.017   4.913 -2.0876  0.5165  1.1368
   62MOL   H29747999   7.066   0.052   4.761  0.9225  1.5483  0.8531
   62MOL   H29848000   6.862   7.988   4.682 -2.1548 -0.2165  1.0642
   62MOL   H29948001   6.768   0.046   4.789 -0.5299 -0.6149 -1.0287
   62MOL   H30048002   6.939   0.149   4.558 -0.2288  2.9477  0.0583
   62MOL   H30148003   6.629   0.111   4.546 -0.9678 -2.7267 -1.8759
   62MOL   H30248004   6.722   0.193   4.423 -0.5931 -3.3581 -2.2853
   62MOL   H30348005   6.806   0.361   4.595  2.5459 -0.9568 -1.0968
   62MOL   H30448006   6.736   0.277   4.737 -0.0407  0.4551  0.2800
   62MOL   H30548007   6.938   0.435   4.787 -0.7966  1.6371 -2.6249
   62MOL   H30648008   7.036   0.321   4.691 -0.7641  0.3769 -0.7306
   62MOL   H30748009   6.892   0.221   4.936  0.8346  2.0690  1.6872
   62MOL   H30848010   7.081   0.352   4.994 -2.8942 -0.0570 -2.3639
   62MOL   H30948011   7.135   0.185   5.039  1.3478 -1.1731 -1.3840
   62MOL   H31048012   7.282   0.287   4.636 -0.4758 -3.5748  1.8128
   62MOL   H31148013   7.428   0.310   4.452  1.3172  0.4731 -0.5894
   62MOL   H31248014   7.767   0.246   4.723 -0.8226 -1.2547  0.6253
   62MOL   H31348015   7.612   0.229   4.916 -2.9277 -0.8916  0.7294
   62MOL   C31448016   7.422   0.722   4.037  0.2747  0.0283  0.3641
   62MOL   C31548017   7.540   0.691   4.138  0.0076  0.5226  0.0808
   62MOL   C31648018   7.572   0.540   4.157  0.5978 -0.3157  0.1883
   62MOL   C31748019   7.688   0.526   4.249  0.5662 -0.5831  1.2715
   62MOL   O31848020   7.739   0.390   4.250 -0.3299  0.7579 -0.0919
   62MOL   C31948021   7.445   0.464   4.194  0.1990  0.4241  0.1400
   62MOL   C32048022   7.346   0.494   4.081  0.5678  1.0272  0.3692
   62MOL   C32148023   7.298   0.638   4.071  0.3397  0.1147 -0.4145
   62MOL   C32248024   7.174   0.659   3.978 -0.1542 -0.1247 -0.1553
   62MOL   O32348025   7.062   0.607   4.040  0.0581 -0.2218  0.3349
   62MOL   C32448026   6.952   0.579   3.966 -0.0032  0.0876 -0.5223
   62MOL   O32548027   6.943   0.586   3.842  0.4928 -0.3690  0.0547
   62MOL   C32648028   6.836   0.540   4.049  0.9838 -0.2076 -0.2389
   62MOL   C32748029   6.708   0.544   3.981 -0.6036 -0.9053  0.7440
   62MOL   C32848030   6.597   0.495   4.049  1.0603  0.1945  0.6518
   62MOL   C32948031   6.594   0.433   4.172 -0.2940  0.1474  0.6479
   62MOL   C33048032   6.465   0.379   4.236  0.5046 -0.2046  0.7878
   62MOL   O33148033   6.459   0.330   4.348 -0.5731 -0.8941 -1.1243
   62MOL   O33248034   6.349   0.395   4.150 -0.0671 -0.8279 -0.2937
   62MOL   C33348035   6.723   0.423   4.233  0.2622 -0.8901  0.2357
   62MOL   C33448036   6.839   0.489   4.178  0.4133  0.1933  0.2595
   62MOL   H33548037   7.410   0.831   4.039 -0.6002 -0.0602  0.4918
   62MOL   H33648038   7.444   0.701   3.933  1.7368 -0.0151  0.6744
   62MOL   H33748039   7.629   0.740   4.100  0.3433  0.1279  0.3656
   62MOL   H33848040   7.515   0.733   4.236 -2.2556  0.6559 -0.5233
   62MOL   H33948041   7.610   0.501   4.063  0.4534  0.0191 -0.0087
   62MOL   H34048042   7.766   0.589   4.206  1.1545 -2.0255  0.1951
   62MOL   H34148043   7.680   0.571   4.348 -1.4540 -0.6391  1.1572
   62MOL   H34248044   7.470   0.360   4.214  0.2032  0.9372  3.0011
   62MOL   H34348045   7.395   0.502   4.283 -1.6472  0.1836 -0.7523
   62MOL   H34448046   7.262   0.425   4.096  2.2618 -1.3152 -0.4929
   62MOL   H34548047   7.396   0.453   3.993  0.7382 -0.0581  0.9586
   62MOL   H34648048   7.267   0.661   4.173  1.9856 -0.2113  0.1762
   62MOL   H34748049   7.170   0.763   3.946  2.0363  0.5650  1.6934
   62MOL   H34848050   7.191   0.605   3.885  0.0512  0.5301 -0.5032
   62MOL   H34948051   6.695   0.592   3.885 -1.1930 -1.5849  0.4874
   62MOL   H35048052   6.509   0.503   3.988  1.3054 -2.0054 -0.0494
   62MOL   H35148053   6.716   0.375   4.330 -2.2097  1.5402  1.3209
   62MOL   H35248054   6.938   0.475   4.219  0.4724  0.2252  0.1279
   62MOL   C35348055   5.930   0.182   4.489  0.5594 -0.1190  0.3489
   62MOL   C35448056   6.054   0.231   4.421 -0.3025 -0.7504 -0.2810
   62MOL   C35548057   6.033   0.225   4.266  0.3606  0.0086  0.4793
   62MOL   C35648058   6.179   0.232   4.213  0.5380  0.0503 -0.9596
   62MOL   O35748059   6.220   0.368   4.220  0.1215 -0.1507  0.4299
   62MOL   C35848060   5.970   0.099   4.212  0.3658 -0.4797  0.6981
   62MOL   C35948061   5.826   0.093   4.280  0.6367 -0.6045 -0.5221
   62MOL   C36048062   5.841   0.065   4.430 -0.2930 -0.0413 -0.4116
   62MOL   C36148063   5.707   0.044   4.494 -0.3615  0.1615  0.2567
   62MOL   O36248064   5.745   8.015   4.614 -0.6588 -0.0823 -0.8816
   62MOL   C36348065   5.745   0.042   4.733  0.7525 -0.3202 -0.5423
   62MOL   O36448066   5.699   0.155   4.758  0.3710  0.8903 -0.1973
   62MOL   C36548067   5.806   7.996   4.842  0.3474  0.6361 -0.1688
   62MOL   C36648068   5.782   0.001   4.974  0.3206 -0.1250 -0.4040
   62MOL   C36748069   5.827   7.966   5.084 -0.5210 -0.9093  0.0319
   62MOL   C36848070   5.905   7.841   5.058  0.7853  0.1849  0.2316
   62MOL   C36948071   5.974   7.770   5.170 -0.1816 -0.6224  0.1025
   62MOL   O37048072   6.044   7.674   5.141  0.1688 -0.2173 -0.6232
   62MOL   O37148073   5.962   7.827   5.292  0.0549  1.0128 -0.5912
   62MOL   C37248074   5.921   7.795   4.926  0.8379  0.2962 -0.1715
   62MOL   C37348075   5.862   7.865   4.820  0.4326 -0.5809  0.1428
   62MOL   H37448076   5.952   0.150   4.591 -2.5397  0.7945  1.3597
   62MOL   H37548077   5.870   0.270   4.513  0.5882 -0.2146  0.7877
   62MOL   H37648078   6.095   0.324   4.457  0.4240  0.1024 -3.1354
   62MOL   H37748079   6.126   0.157   4.456  0.1356  0.1556  0.7260
   62MOL   H37848080   5.975   0.316   4.250 -2.2716 -2.1299 -2.6344
   62MOL   H37948081   6.250   0.182   4.279 -2.3579 -0.4689  1.8990
   62MOL   H38048082   6.194   0.200   4.110  0.9065 -1.5961 -0.4188
   62MOL   H38148083   5.963   0.096   4.103 -3.1619 -1.2504  0.8673
   62MOL   H38248084   6.030   0.010   4.231  2.5057  0.9034  0.4437
   62MOL   H38348085   5.785   0.007   4.229  3.6499 -1.8684 -0.9129
   62MOL   H38448086   5.771   0.186   4.262 -1.0848 -1.6625 -0.8057
   62MOL   H38548087   5.899   8.010   4.444 -0.1133 -0.3445 -2.9034
   62MOL   H38648088   5.661   0.142   4.509 -1.6524 -0.5214  0.8567
   62MOL   H38748089   5.643   8.011   4.438 -1.7788  1.4991  0.2039
   62MOL   H38848090   5.725   0.092   4.989  1.5576  0.4921  0.6588
   62MOL   H38948091   5.812   8.012   5.181  1.0591  0.1365 -0.2045
   62MOL   H39048092   5.985   7.712   4.897  2.6501  2.0400 -1.2888
   62MOL   H39148093   5.879   7.839   4.716  0.1225 -2.5613  0.5651
   62MOL   C39248094   6.503   7.668   5.560 -0.0654  0.0248  0.8454
   62MOL   C39348095   6.400   7.775   5.510  0.0345  0.1612  0.3729
   62MOL   C39448096   6.264   7.711   5.478 -0.4855  0.9214 -0.0311
   62MOL   C39548097   6.178   7.809   5.396 -0.1933 -0.1678 -0.0920
   62MOL   O39648098   6.045   7.753   5.393  0.4491 -0.4715 -0.4911
   62MOL   C39748099   6.275   7.578   5.400  0.4779 -0.5792 -0.3080
   62MOL   C39848100   6.367   7.484   5.470 -0.9695  0.4198 -0.1675
   62MOL   C39948101   6.503   7.534   5.480  0.6749  0.2585  0.0521
   62MOL   C40048102   6.589   7.436   5.543  0.4641 -0.5578  0.0572
   62MOL   O40148103   6.727   7.476   5.542 -0.0479 -0.6059 -0.0404
   62MOL   C40248104   6.815   7.449   5.644 -0.4295  0.6570 -0.0967
   62MOL   O40348105   6.786   7.377   5.739 -0.0714  0.2025 -0.4957
   62MOL   C40448106   6.943   7.519   5.626 -0.1704  0.2743 -0.9171
   62MOL   C40548107   7.022   7.501   5.509  0.0010 -0.6133  0.2127
   62MOL   C40648108   7.140   7.580   5.495  0.4224  0.2211  0.2727
   62MOL   C40748109   7.194   7.659   5.593 -0.0211 -0.3330  0.8237
   62MOL   C40848110   7.323   7.740   5.567  0.5118  0.3181  0.3884
   62MOL   O40948111   7.348   7.841   5.632  0.1032 -0.1463  0.0944
   62MOL   O41048112   7.397   7.705   5.459 -0.8865  0.4780  0.1335
   62MOL   C41148113   7.126   7.671   5.718  0.0995 -0.7437 -0.1709
   62MOL   C41248114   6.999   7.606   5.729 -0.3263  0.0628  0.4155
   62MOL   H41348115   6.601   7.716   5.550  1.8916 -3.9028 -0.2612
   62MOL   H41448116   6.493   7.638   5.664  0.7199 -2.4172  0.2608
   62MOL   H41548117   6.388   7.849   5.590  0.3216  1.6825 -0.9605
   62MOL   H41648118   6.447   7.829   5.429 -1.9780 -0.1919 -1.0757
   62MOL   H41748119   6.218   7.704   5.576  0.8725  0.0832  0.5670
   62MOL   H41848120   6.183   7.904   5.450  2.0256  0.3121 -1.1095
   62MOL   H41948121   6.224   7.820   5.298 -2.0424 -0.4901 -1.0306
   62MOL   H42048122   6.181   7.523   5.403  0.6182 -0.7795  0.4935
   62MOL   H42148123   6.312   7.598   5.300  1.7885  0.6418  0.4072
   62MOL   H42248124   6.370   7.387   5.421 -3.1011  0.7943 -1.0982
   62MOL   H42348125   6.326   7.463   5.569  0.2603 -0.7831  0.0958
   62MOL   H42448126   6.538   7.559   5.380  0.4331  1.8359  0.3460
   62MOL   H42548127   6.562   7.412   5.646 -1.3084  0.3299 -0.1818
   62MOL   H42648128   6.577   7.344   5.485  1.2484  0.1543 -1.2520
   62MOL   H42748129   6.975   7.452   5.425  0.2935  0.1129 -0.3746
   62MOL   H42848130   7.181   7.581   5.396  1.0097  2.5482  0.5198
   62MOL   H42948131   7.162   7.744   5.789 -1.4245  1.8382 -1.9707
   62MOL   H43048132   6.944   7.615   5.822  0.2270  0.6141  0.6953
   62MOL   C43148133   7.732   7.562   5.120 -0.5908  0.1757 -1.1896
   62MOL   C43248134   7.709   7.666   5.232  0.2003  0.4911 -0.0876
   62MOL   C43348135   7.670   7.593   5.366  0.0761 -0.1401 -0.1235
   62MOL   C43448136   7.642   7.704   5.475  0.3864  0.1329  0.2008
   62MOL   O43548137   7.531   7.782   5.441 -0.6445 -0.2891  0.1022
   62MOL   C43648138   7.569   7.480   5.354 -0.2386 -0.7483  0.4519
   62MOL   C43748139   7.595   7.386   5.239 -0.2102 -0.5857  0.0980
   62MOL   C43848140   7.608   7.469   5.110 -0.0149 -0.9705  0.0164
   62MOL   C43948141   7.623   7.371   4.986 -0.1334 -0.2511 -0.1378
   62MOL   O44048142   7.589   7.450   4.871 -0.4071 -0.1397 -0.0125
   62MOL   C44148143   7.678   7.461   4.773 -0.1407 -0.1285 -0.1951
   62MOL   O44248144   7.797   7.429   4.784  0.1008  0.4543  0.0540
   62MOL   C44348145   7.616   7.514   4.647  0.8663 -0.3932  0.2584
   62MOL   C44448146   7.688   7.520   4.523  0.4929  0.3856  0.6997
   62MOL   C44548147   7.634   7.586   4.410  0.0913  0.3201 -0.0617
   62MOL   C44648148   7.513   7.647   4.414 -0.3262 -0.0464  0.7977
   62MOL   C44748149   7.464   7.718   4.286 -0.7013  0.0811 -0.2066
   62MOL   O44848150   7.350   7.745   4.265 -0.0847  0.4385  0.5847
   62MOL   O44948151   7.565   7.735   4.198 -1.1573  0.7415  0.5033
   62MOL   C45048152   7.433   7.641   4.529 -0.3864  0.5286  0.0142
   62MOL   C45148153   7.478   7.568   4.645  0.1927 -0.9754  0.0206
   62MOL   H45248154   7.754   7.610   5.025  0.5042 -1.0300 -1.5456
   62MOL   H45348155   7.811   7.491   5.145  0.1798  1.3769 -0.1588
   62MOL   H45448156   7.798   7.728   5.235 -0.1383  0.9102  1.4645
   62MOL   H45548157   7.625   7.727   5.200 -0.2278 -1.7198 -3.5436
   62MOL   H45648158   7.762   7.544   5.397 -0.1009  0.4552  1.3696
   62MOL   H45748159   7.637   7.653   5.572  2.6280  1.9947  1.3398
   62MOL   H45848160   7.732   7.764   5.476  0.8678 -0.5707 -0.7059
   62MOL   H45948161   7.560   7.418   5.442  0.4051  0.9540  1.7549
   62MOL   H46048162   7.466   7.511   5.341 -0.4668 -0.7353  2.2311
   62MOL   H46148163   7.515   7.314   5.222 -0.1881 -0.1318 -2.0302
   62MOL   H46248164   7.684   7.326   5.263 -1.0857 -1.4617  1.2283
   62MOL   H46348165   7.520   7.532   5.101  1.2858  0.5044 -3.1102
   62MOL   H46448166   7.718   7.317   4.986 -0.9957 -1.8060  0.6950
   62MOL   H46548167   7.549   7.291   4.990  0.0185 -0.3485  0.8996
   62MOL   H46648168   7.786   7.475   4.521 -0.3053 -1.3355 -0.6997
   62MOL   H46748169   7.690   7.575   4.318 -2.3905  1.8919 -1.8190
   62MOL   H46848170   7.334   7.684   4.529 -0.5897  0.0990  1.6266
   62MOL   H46948171   7.419   7.574   4.735  0.2439  1.4112 -0.0797
   62MOL   C47048172   7.631   0.225   3.857  0.6828  0.1414 -0.0848
   62MOL   C47148173   7.631   0.139   3.991 -0.1459 -0.1031  0.5909
   62MOL   C47248174   7.573   8.031   3.964 -0.2311 -0.6648  0.6076
   62MOL   C47348175   7.591   7.939   4.088  0.1635 -0.8050  0.7159
   62MOL   O47448176   7.532   7.812   4.068 -0.2898  0.2976 -0.2649
   62MOL   C47548177   7.430   0.016   3.916 -0.7011  1.0498  0.1220
   62MOL   C47648178   7.428   0.099   3.785  0.0453 -0.3785 -0.9870
   62MOL   C47748179   7.487   0.233   3.804 -0.2920 -0.3198 -0.1202
   62MOL   C47848180   7.493   0.296   3.656  0.5973 -0.1338  0.5539
   62MOL   O47948181   7.373   0.286   3.590 -0.2047 -0.4442  0.2177
   62MOL   C48048182   7.268   0.377   3.622  0.7979  0.2603  0.0634
   62MOL   O48148183   7.276   0.465   3.712 -0.0316 -0.0893  0.0721
   62MOL   C48248184   7.156   0.368   3.527  0.1236 -0.9429 -0.7905
   62MOL   C48348185   7.060   0.474   3.522  0.3992  0.5299 -0.0405
   62MOL   C48448186   6.955   0.477   3.433 -0.2432  0.0739  0.0071
   62MOL   C48548187   6.945   0.379   3.332 -0.2861 -0.4466  0.9998
   62MOL   C48648188   6.842   0.378   3.227 -0.6637  0.2622  0.7999
   62MOL   O48748189   6.846   0.314   3.121  0.8162  0.0284  0.0992
   62MOL   O48848190   6.752   0.477   3.243 -0.2811  0.5558 -0.0013
   62MOL   C48948191   7.040   0.274   3.330  0.1058  0.2523  0.4958
   62MOL   C49048192   7.138   0.270   3.432 -0.5470 -0.5104  0.0942
   62MOL   H49148193   7.669   0.324   3.885 -0.0344  0.4449 -0.1691
   62MOL   H49248194   7.708   0.183   3.792  0.5716 -1.8322  1.0323
   62MOL   H49348195   7.733   0.136   4.028 -0.4660  2.1270  1.7322
   62MOL   H49448196   7.567   0.190   4.064 -0.5227 -0.2966  0.4011
   62MOL   H49548197   7.618   7.974   3.883 -0.6045 -1.3229  0.8620
   62MOL   H49648198   7.698   7.927   4.108  0.8284 -1.4037 -2.8499
   62MOL   H49748199   7.554   7.986   4.179  1.4585  0.7087  0.4953
   62MOL   H49848200   7.387   7.954   3.893 -1.8695  0.9059  2.7580
   62MOL   H49948201   7.363   0.062   3.989 -0.1993  2.2097 -0.1273
   62MOL   H50048202   7.322   0.109   3.760 -0.1471  1.8279  0.5896
   62MOL   H50148203   7.481   0.053   3.702  2.4664  2.2595 -0.9791
   62MOL   H50248204   7.417   0.293   3.862  2.2165  2.3012  0.3006
   62MOL   H50348205   7.525   0.399   3.671  1.8318 -0.8894  3.4102
   62MOL   H50448206   7.564   0.245   3.590  1.4095  0.9190  0.5994
   62MOL   H50548207   7.063   0.544   3.604 -3.5069  1.0685 -0.2938
   62MOL   H50648208   6.882   0.557   3.443 -1.4806 -1.0156 -0.1815
   62MOL   H50748209   7.041   0.200   3.252 -2.4255 -0.0665  0.7439
   62MOL   H50848210   7.203   0.185   3.420  0.3272  0.3471 -1.3161
   62MOL   C50948211   6.304   0.693   3.367 -0.2637  0.6873 -0.1906
   62MOL   C51048212   6.346   0.591   3.262 -0.5336  0.2822 -1.5940
   62MOL   C51148213   6.502   0.592   3.250 -0.9981  0.2088  0.3364
   62MOL   C51248214   6.549   0.492   3.134  0.2483 -0.5868 -0.4819
   62MOL   O51348215   6.684   0.517   3.116 -0.1344 -0.0123  0.1386
   62MOL   C51448216   6.542   0.734   3.208 -0.2179  0.0749  0.3494
   62MOL   C51548217   6.503   0.840   3.309  0.6911  0.3161  0.1050
   62MOL   C51648218   6.355   0.835   3.340 -0.1657  1.0147 -0.0690
   62MOL   C51748219   6.317   0.932   3.453 -0.1804 -0.2513  0.6433
   62MOL   O51848220   6.332   1.062   3.406 -0.1260  0.0790  0.2812
   62MOL   C51948221   6.230   1.139   3.361 -0.4818 -0.2456  0.2424
   62MOL   O52048222   6.110   1.118   3.370 -0.3346 -0.0050 -0.1626
   62MOL   C52148223   6.278   1.260   3.294 -0.1473  0.7791  0.0108
   62MOL   C52248224   6.189   1.336   3.219  0.6548  1.0483 -0.4596
   62MOL   C52348225   6.232   1.439   3.147  0.2871 -0.2750 -0.4909
   62MOL   C52448226   6.372   1.484   3.146 -0.1654 -0.2422 -0.2543
   62MOL   C52548227   6.406   1.610   3.071 -0.1122  0.1410  0.5181
   62MOL   O52648228   6.341   1.653   2.980 -0.0331 -0.4388  0.0965
   62MOL   O52748229   6.511   1.674   3.119 -0.2000  0.2007  0.3881
   62MOL   C52848230   6.465   1.409   3.223  0.1097  0.4804 -0.4354
   62MOL   C52948231   6.417   1.294   3.294 -0.0157  0.2383  0.6603
   62MOL   H53048232   6.195   0.686   3.361 -0.1044 -0.7675 -2.0865
   62MOL   H53148233   6.340   0.666   3.466 -0.7139 -1.3347 -0.5490
   62MOL   H53248234   6.314   0.494   3.300  1.0645  1.2562  2.4488
   62MOL   H53348235   6.308   0.589   3.160  0.3678 -2.3618 -1.9088
   62MOL   H53448236   6.542   0.562   3.347  1.4705  0.1405 -0.6559
   62MOL   H53548237   6.530   0.386   3.151 -1.1215 -0.6211 -2.1516
   62MOL   H53648238   6.488   0.514   3.047  1.2281  0.1761 -0.9781
   62MOL   H53748239   6.648   0.738   3.186  0.0793 -2.1616  1.2430
   62MOL   H53848240   6.494   0.756   3.112 -2.2055 -0.5527  1.1770
   62MOL   H53948241   6.537   0.939   3.277  0.7660 -0.1502 -1.3214
   62MOL   H54048242   6.543   0.813   3.406 -0.6463  0.1970  0.6307
   62MOL   H54148243   6.301   0.874   3.253 -0.2176  2.7709  0.7378
   62MOL   H54248244   6.220   0.912   3.500 -0.7442 -0.2492 -0.5212
   62MOL   H54348245   6.387   0.922   3.536 -0.4279 -1.4222  0.7209
   62MOL   H54448246   6.084   1.311   3.219  0.6737  0.8183  1.9178
   62MOL   H54548247   6.164   1.482   3.075  0.5124 -0.8779 -1.0743
   62MOL   H54648248   6.572   1.423   3.223  0.1225  0.4679 -1.7698
   62MOL   H54748249   6.487   1.227   3.340 -0.3647 -0.2946  0.4145
   62MOL   C54848250   6.561   2.286   3.033 -0.1712  0.0615  0.5033
   62MOL   C54948251   6.521   2.165   3.110  0.5361  0.9150  0.3318
   62MOL   C55048252   6.538   2.033   3.034  0.5829  0.1843  0.4235
   62MOL   C55148253   6.515   1.910   3.122  0.3746  0.4493  0.3088
   62MOL   O55248254   6.553   1.800   3.045  0.2897  0.1931 -0.2773
   62MOL   C55348255   6.463   2.034   2.902  0.1441  0.0455 -0.0307
   62MOL   C55448256   6.505   2.160   2.825 -0.3508  0.3674  0.7912
   62MOL   C55548257   6.489   2.292   2.900  0.6055 -0.5717  0.0232
   62MOL   C55648258   6.529   2.419   2.826 -0.4558 -0.2424  0.1009
   62MOL   O55748259   6.447   2.453   2.718  0.2361  0.0013 -0.1847
   62MOL   C55848260   6.464   2.409   2.590  0.0277 -0.1364 -0.4091
   62MOL   O55948261   6.561   2.342   2.557  0.3085 -0.5439 -0.7025
   62MOL   C56048262   6.355   2.453   2.499  0.4882  0.4240  0.1045
   62MOL   C56148263   6.368   2.418   2.365  0.2614  0.1347  0.5448
   62MOL   C56248264   6.264   2.453   2.276 -0.3339 -0.6321  0.4031
   62MOL   C56348265   6.153   2.538   2.319  0.3025 -0.6132 -0.3336
   62MOL   C56448266   6.050   2.598   2.229 -0.3311  0.3646  0.2113
   62MOL   O56548267   5.931   2.590   2.246  0.0198 -0.1556 -0.1487
   62MOL   O56648268   6.111   2.653   2.124 -0.0065  0.2791  0.4558
   62MOL   C56748269   6.143   2.574   2.459  0.0179  0.2410 -0.3640
   62MOL   C56848270   6.239   2.524   2.547 -0.1418 -0.1845  0.0549
   62MOL   H56948271   6.540   2.371   3.099 -0.2440  0.3932  0.0605
   62MOL   H57048272   6.668   2.284   3.011 -0.1962  0.5003  0.3242
   62MOL   H57148273   6.584   2.154   3.199 -0.2246  3.7481  1.2681
   62MOL   H57248274   6.417   2.163   3.141 -0.2122 -0.9304 -2.1823
   62MOL   H57348275   6.641   2.022   3.000  0.9969 -0.3969  1.7991
   62MOL   H57448276   6.577   1.931   3.210  0.0381  2.8010  0.0307
   62MOL   H57548277   6.411   1.904   3.153  0.9641  0.4633  2.3835
   62MOL   H57648278   6.483   1.944   2.843  2.1993 -0.3545  1.2394
   62MOL   H57748279   6.355   2.032   2.917  0.5388 -0.0155  3.0087
   62MOL   H57848280   6.456   2.160   2.727 -0.5455  0.2959  0.8898
   62MOL   H57948281   6.611   2.151   2.799 -0.8178 -0.3249 -0.9893
   62MOL   H58048282   6.383   2.285   2.924  0.6428 -1.3613 -0.0307
   62MOL   H58148283   6.525   2.500   2.899  0.5712 -0.8667  0.8635
   62MOL   H58248284   6.632   2.414   2.792 -0.4368 -0.0753  0.1343
   62MOL   H58348285   6.454   2.370   2.323  1.7376  2.3396  0.9578
   62MOL   H58448286   6.270   2.423   2.172  0.4402  1.4663 -0.1860
   62MOL   H58548287   6.066   2.638   2.500  1.1080 -0.4340  2.9206
   62MOL   H58648288   6.226   2.548   2.652 -2.0777  0.0619 -0.2292
   62MOL   C58748289   5.913   2.933   1.680 -0.9338  0.4964  0.2555
   62MOL   C58848290   5.990   2.835   1.764 -0.6774  0.0711 -0.0527
   62MOL   C58948291   5.903   2.718   1.817 -0.6957 -0.7070  0.7295
   62MOL   C59048292   5.993   2.641   1.915  0.3797  0.8961  0.0002
   62MOL   O59148293   6.015   2.719   2.028  0.2754  0.5434 -0.2361
   62MOL   C59248294   5.774   2.767   1.892  0.2411 -0.1311 -0.4410
   62MOL   C59348295   5.695   2.881   1.816 -0.2211  0.1891  0.1199
   62MOL   C59448296   5.799   2.990   1.769  0.4793 -0.3293 -0.3277
   62MOL   C59548297   5.722   3.109   1.698 -0.1818 -0.1245 -0.0671
   62MOL   O59648298   5.640   3.170   1.798 -0.0744 -0.1353  0.3070
   62MOL   C59748299   5.519   3.217   1.759 -0.2146  0.4923 -0.0465
   62MOL   O59848300   5.482   3.226   1.642  0.1666 -0.0115  0.2861
   62MOL   C59948301   5.426   3.254   1.873 -0.1377 -0.4806 -0.0658
   62MOL   C60048302   5.445   3.210   2.003 -0.3293 -0.0089 -0.8039
   62MOL   C60148303   5.346   3.238   2.106 -0.0209 -0.4261 -0.3445
   62MOL   C60248304   5.225   3.301   2.068  0.5122  0.5027  0.4256
   62MOL   C60348305   5.117   3.328   2.165  0.1219 -0.2950 -0.0471
   62MOL   O60448306   5.110   3.278   2.276  0.5914 -0.3161 -0.2145
   62MOL   O60548307   5.025   3.415   2.115  0.1213  0.1534  0.2681
   62MOL   C60648308   5.211   3.355   1.942 -0.0247 -0.1986 -0.5229
   62MOL   C60748309   5.306   3.318   1.847  0.3676  0.0760 -0.1970
   62MOL   H60848310   5.980   3.007   1.637 -0.4881 -0.5818 -0.9282
   62MOL   H60948311   5.872   2.886   1.591  0.3438 -0.9691  0.4145
   62MOL   H61048312   6.081   2.804   1.713 -0.5727  1.2062 -0.5636
   62MOL   H61148313   6.021   2.879   1.858 -0.0568 -2.4910  0.9796
   62MOL   H61248314   5.869   2.661   1.730 -0.3816 -1.9603  1.4053
   62MOL   H61348315   5.929   2.560   1.948  0.1533  0.2155 -2.0521
   62MOL   H61448316   6.085   2.597   1.876 -0.9304 -1.6125 -0.3705
   62MOL   H61548317   5.710   2.681   1.913  0.4134 -0.2352 -0.3468
   62MOL   H61648318   5.797   2.814   1.988 -3.8487  0.3350  0.4058
   62MOL   H61748319   5.632   2.928   1.892 -1.8491 -3.4147  1.1218
   62MOL   H61848320   5.649   2.837   1.728 -0.5273  0.3558  0.1951
   62MOL   H61948321   5.850   3.023   1.860 -2.5114 -0.1190  1.3476
   62MOL   H62048322   5.790   3.189   1.669  0.1281 -0.0869  0.7407
   62MOL   H62148323   5.662   3.063   1.620 -1.6697 -0.9292  1.5222
   62MOL   H62248324   5.529   3.144   2.018 -0.7170 -0.5901 -1.1507
   62MOL   H62348325   5.361   3.211   2.209  3.1374 -0.7131 -0.8137
   62MOL   H62448326   5.123   3.400   1.900 -0.0361  1.3446  1.0773
   62MOL   H62548327   5.284   3.333   1.743 -0.7808 -1.2964 -0.1727
   62MOL   C62648328   4.770   3.875   2.201  0.7478 -0.4800 -0.1903
   62MOL   C62748329   4.872   3.759   2.189 -0.0408  0.6515 -0.2929
   62MOL   C62848330   4.859   3.656   2.306 -0.7319 -0.2092 -0.3937
   62MOL   C62948331   4.957   3.540   2.305 -0.0432 -0.2990 -0.2115
   62MOL   O63048332   4.913   3.447   2.206 -0.0895  0.0850  0.0754
   62MOL   C63148333   4.851   3.723   2.443 -0.4638  0.1165  0.1086
   62MOL   C63248334   4.744   3.838   2.440 -0.2152 -0.2283  0.2526
   62MOL   C63348335   4.777   3.949   2.339 -0.2901 -0.5265  0.6145
   62MOL   C63448336   4.687   4.065   2.341  0.2693 -0.1506 -0.4532
   62MOL   O63548337   4.552   4.031   2.308  0.2914  0.2329 -0.5498
   62MOL   C63648338   4.441   4.102   2.355 -0.2353 -0.1219 -0.5748
   62MOL   O63748339   4.455   4.198   2.430  0.0127 -0.7495  0.4506
   62MOL   C63848340   4.312   4.046   2.310  0.1997  0.0680  0.7526
   62MOL   C63948341   4.289   3.923   2.243  0.1116 -0.3480  0.4752
   62MOL   C64048342   4.169   3.887   2.186 -0.3543  0.3264  0.2336
   62MOL   C64148343   4.054   3.967   2.213 -0.3873 -0.1156  0.2225
   62MOL   C64248344   3.923   3.925   2.169  0.0839  0.2294  1.0222
   62MOL   O64348345   3.904   3.834   2.081 -0.5277 -0.2314 -0.2443
   62MOL   O64448346   3.825   4.002   2.217  0.3022 -0.1037 -0.2726
   62MOL   C64548347   4.074   4.079   2.299  0.3728 -0.2964  0.4641
   62MOL   C64648348   4.198   4.125   2.343  0.0516 -0.0656  0.2094
   62MOL   H64748349   4.797   3.938   2.116 -1.2990  0.4075 -0.2065
   62MOL   H64848350   4.668   3.841   2.183 -0.9400  4.8345 -1.6669
   62MOL   H64948351   4.851   3.699   2.101  2.3210 -1.5205  0.5293
   62MOL   H65048352   4.978   3.784   2.183  0.5326 -0.3757  3.6817
   62MOL   H65148353   4.762   3.609   2.291 -1.3446  0.8221  0.3211
   62MOL   H65248354   5.060   3.572   2.293 -0.2790  0.1373 -1.1640
   62MOL   H65348355   4.947   3.480   2.396  0.0760 -2.3176 -1.4995
   62MOL   H65448356   4.813   3.660   2.523 -1.9404  0.4229 -0.3300
   62MOL   H65548357   4.938   3.776   2.482 -0.9406  2.3382 -1.7143
   62MOL   H65648358   4.749   3.888   2.537 -0.6213  2.2409 -0.9622
   62MOL   H65748359   4.650   3.789   2.416 -0.9390  0.5792  1.4165
   62MOL   H65848360   4.878   3.989   2.350  0.1140 -1.5098  0.4550
   62MOL   H65948361   4.694   4.126   2.431  3.1151 -2.4701  1.0004
   62MOL   H66048362   4.718   4.132   2.261  0.2888  0.3010 -0.0681
   62MOL   H66148363   4.369   3.855   2.220 -0.1600 -0.3720 -0.4307
   62MOL   H66248364   4.162   3.799   2.123  2.1535  0.1904  0.0703
   62MOL   H66348365   3.993   4.140   2.336  0.7672 -0.7955  2.1722
   62MOL   H66448366   4.198   4.200   2.422 -1.5507  0.4558 -0.2828
   62MOL   C66548367   3.280   4.102   2.172 -0.4090 -0.0746 -0.1221
   62MOL   C66648368   3.422   4.080   2.226  0.6877 -0.1731 -0.0399
   62MOL   C66748369   3.459   3.936   2.185  0.3124  0.1334  0.5093
   62MOL   C66848370   3.605   3.914   2.221  0.2853 -0.2019 -0.0913
   62MOL   O66948371   3.699   3.987   2.136  1.0898  0.2648  0.8761
   62MOL   C67048372   3.358   3.823   2.227 -0.0928 -0.3826 -0.3421
   62MOL   C67148373   3.213   3.853   2.196 -1.0193  0.0597 -0.2156
   62MOL   C67248374   3.177   4.001   2.236 -0.7989  0.0302 -0.0597
   62MOL   C67348375   3.033   4.037   2.186  0.7276 -0.4664  0.5121
   62MOL   O67448376   2.985   4.170   2.234  0.5656  0.4470 -0.1687
   62MOL   C67548377   2.932   4.181   2.367  0.0310 -0.0210 -0.0007
   62MOL   O67648378   2.914   4.087   2.445 -0.1873  0.3600 -0.4407
   62MOL   C67748379   2.919   4.326   2.416 -0.1422  0.2040 -0.5277
   62MOL   C67848380   2.851   4.348   2.541 -0.0214  0.0418  0.5163
   62MOL   C67948381   2.847   4.485   2.582 -0.1829  0.8419 -0.5229
   62MOL   C68048382   2.892   4.589   2.499 -0.4991 -0.4725 -0.1213
   62MOL   C68148383   2.871   4.730   2.538 -0.1554  0.5638  0.2048
   62MOL   O68248384   2.862   4.773   2.652 -0.2089 -0.0139  0.1998
   62MOL   O68348385   2.856   4.810   2.435  0.0340 -0.3656 -0.0762
   62MOL   C68448386   2.956   4.561   2.376  0.8444 -0.1064  0.4584
   62MOL   C68548387   2.973   4.432   2.335  0.5386  0.1405 -0.0250
   62MOL   H68648388   3.246   4.202   2.199 -1.0202 -0.4099  0.3674
   62MOL   H68748389   3.278   4.097   2.063  3.3875  0.6477 -0.2735
   62MOL   H68848390   3.497   4.151   2.192  0.5970  0.6447  1.4103
   62MOL   H68948391   3.416   4.088   2.335  1.0565 -1.2436  0.0670
   62MOL   H69048392   3.459   3.942   2.076 -1.2324 -1.9697  0.3610
   62MOL   H69148393   3.629   3.952   2.321  0.5006  1.5715 -0.8016
   62MOL   H69248394   3.633   3.809   2.226  1.5751  0.1103 -0.5876
   62MOL   H69348395   3.389   3.730   2.179 -1.4429 -0.6273 -0.7516
   62MOL   H69448396   3.370   3.813   2.335  0.8446  0.5429 -0.3584
   62MOL   H69548397   3.161   3.783   2.261  0.5414 -0.3862  0.5557
   62MOL   H69648398   3.191   3.830   2.092  2.1917  1.2516 -1.2168
   62MOL   H69748399   3.174   4.021   2.344  0.7424 -0.0877  0.0062
   62MOL   H69848400   3.020   4.040   2.078 -0.9091 -0.6084  0.6964
   62MOL   H69948401   2.966   3.954   2.209  1.3202 -0.6134  1.7709
   62MOL   H70048402   2.820   4.274   2.612 -1.7270 -3.1093 -3.3408
   62MOL   H70148403   2.794   4.504   2.674  0.8751  1.2866 -0.0052
   62MOL   H70248404   2.996   4.646   2.322 -0.0944  0.7023  1.0381
   62MOL   H70348405   3.014   4.420   2.236 -0.3640 -1.5985 -0.2154
   62MOL   C70448406   2.769   5.333   2.677  0.8228  0.4058 -0.2307
   62MOL   C70548407   2.808   5.188   2.662  0.5538 -0.3023 -0.6008
   62MOL   C70648408   2.849   5.172   2.514 -0.2258  0.8132 -0.4448
   62MOL   C70748409   2.897   5.032   2.474 -0.3690  0.4114 -0.4551
   62MOL   O70848410   2.790   4.942   2.472  0.1167  0.3972 -0.3195
   62MOL   C70948411   2.735   5.214   2.417  0.5742 -0.4231 -0.6202
   62MOL   C71048412   2.699   5.364   2.429  0.2562 -0.4778  0.7321
   62MOL   C71148413   2.664   5.387   2.581 -0.5918 -0.4593  0.6819
   62MOL   C71248414   2.643   5.543   2.605 -0.1110  0.3578  0.1648
   62MOL   O71348415   2.559   5.588   2.503  0.0621 -0.9590  0.1420
   62MOL   C71448416   2.502   5.701   2.507  0.7590  0.2129 -0.4936
   62MOL   O71548417   2.493   5.768   2.615  0.5361 -0.1708  0.2382
   62MOL   C71648418   2.408   5.735   2.393 -0.1568 -0.1359  0.5576
   62MOL   C71748419   2.324   5.840   2.397 -0.1033 -0.3218  0.7327
   62MOL   C71848420   2.228   5.867   2.292 -0.0923 -0.0238  0.1026
   62MOL   C71948421   2.233   5.806   2.170 -0.1571  0.3336 -0.3249
   62MOL   C72048422   2.157   5.846   2.046 -0.3084 -0.7137 -0.8239
   62MOL   O72148423   2.177   5.800   1.933  0.0493  0.1670 -0.4572
   62MOL   O72248424   2.050   5.925   2.079 -0.2860  0.0745 -0.4018
   62MOL   C72348425   2.320   5.699   2.162  0.9240 -0.4687 -0.0950
   62MOL   C72448426   2.405   5.665   2.271  0.5087  0.0675 -0.1109
   62MOL   H72548427   2.741   5.356   2.780 -0.7792 -1.3787 -0.2456
   62MOL   H72648428   2.864   5.387   2.670  1.3766 -0.3981  1.0108
   62MOL   H72748429   2.893   5.155   2.723 -0.5381  0.5997  1.4432
   62MOL   H72848430   2.726   5.118   2.680  0.9971 -0.5801  0.4172
   62MOL   H72948431   2.936   5.236   2.495  1.2580 -0.7599  0.9415
   62MOL   H73048432   2.967   5.041   2.392 -0.3442  0.6340 -0.4087
   62MOL   H73148433   2.972   5.002   2.547 -3.2957 -2.1311  1.6591
   62MOL   H73248434   2.774   5.193   2.317 -0.4326  0.9360 -1.3152
   62MOL   H73348435   2.644   5.155   2.424  0.7186 -0.5069  0.6441
   62MOL   H73448436   2.615   5.390   2.365 -1.0179 -2.5567  1.4717
   62MOL   H73548437   2.773   5.434   2.392 -0.2679 -0.1173  0.3619
   62MOL   H73648438   2.564   5.350   2.606 -0.9044 -0.3158 -0.3487
   62MOL   H73748439   2.603   5.564   2.704 -0.3691  1.3221 -0.1333
   62MOL   H73848440   2.734   5.603   2.596 -0.3851  1.0223  1.7542
   62MOL   H73948441   2.317   5.895   2.490 -0.6587  2.3528 -0.8123
   62MOL   H74048442   2.152   5.944   2.302 -2.2880 -2.0204 -0.6769
   62MOL   H74148443   2.321   5.653   2.064  0.1857  1.4236 -1.0008
   62MOL   H74248444   2.470   5.579   2.263 -0.3008 -0.7077  1.5316
   62MOL   C74348445   1.619   5.729   1.691 -0.2539  0.6485 -0.1419
   62MOL   C74448446   1.669   5.771   1.832  0.2040  0.3860  0.3965
   62MOL   C74548447   1.808   5.835   1.819  0.0269 -0.1022  0.0556
   62MOL   C74648448   1.851   5.870   1.960  0.2339 -0.1190 -0.3548
   62MOL   O74748449   1.971   5.951   1.953  0.1195 -0.3641 -0.0460
   62MOL   C74848450   1.901   5.735   1.755 -0.6718 -0.5524 -0.3278
   62MOL   C74948451   1.853   5.700   1.616 -0.0868  0.2998  0.8992
   62MOL   C75048452   1.716   5.632   1.619  0.2026  0.6954  0.4815
   62MOL   C75148453   1.658   5.595   1.479  0.4944  0.2328 -0.0496
   62MOL   O75248454   1.734   5.487   1.428  0.0319 -0.0282  0.7059
   62MOL   C75348455   1.680   5.409   1.332 -0.2297  0.2910  0.7921
   62MOL   O75448456   1.560   5.399   1.301 -0.9147 -0.0040  0.0496
   62MOL   C75548457   1.774   5.303   1.287  0.2360  0.1656  0.3799
   62MOL   C75648458   1.736   5.221   1.173  0.5645  0.3314 -0.2743
   62MOL   C75748459   1.818   5.117   1.120  0.0424  0.1057 -0.6409
   62MOL   C75848460   1.928   5.079   1.199 -0.5858 -0.2815  0.6038
   62MOL   C75948461   2.016   4.966   1.155  0.0400  0.3683  0.9831
   62MOL   O76048462   2.123   4.935   1.210  0.1057 -0.3267  0.0748
   62MOL   O76148463   1.972   4.902   1.042 -0.1756  0.6852  0.2927
   62MOL   C76248464   1.961   5.155   1.316 -0.7832 -0.2739 -0.9743
   62MOL   C76348465   1.888   5.268   1.355 -0.1818 -0.5319 -0.3097
   62MOL   H76448466   1.528   5.671   1.708 -0.1044  1.1699  2.6794
   62MOL   H76548467   1.597   5.817   1.631 -0.0766  1.1573  0.5317
   62MOL   H76648468   1.589   5.832   1.875  1.2118  2.4334 -0.5191
   62MOL   H76748469   1.665   5.676   1.883 -0.6308  0.1503 -0.1021
   62MOL   H76848470   1.791   5.923   1.756  0.0041 -1.5648 -2.0207
   62MOL   H76948471   1.774   5.931   2.007 -0.5308 -0.3695 -1.2700
   62MOL   H77048472   1.858   5.788   2.031  1.7710  0.3295  0.0347
   62MOL   H77148473   2.004   5.768   1.743  0.0425 -2.2287  1.0189
   62MOL   H77248474   1.909   5.649   1.821  0.4024  1.9712  2.9840
   62MOL   H77348475   1.928   5.639   1.566  1.1486  0.1409  2.8891
   62MOL   H77448476   1.836   5.786   1.551 -1.5877 -0.2420  0.5483
   62MOL   H77548477   1.734   5.539   1.671  3.0289 -0.0746 -1.6983
   62MOL   H77648478   1.555   5.567   1.501  0.1635  1.7060  0.2941
   62MOL   H77748479   1.651   5.677   1.407  1.4859 -1.9573 -2.7373
   62MOL   H77848480   1.652   5.249   1.110  1.7100  0.3545 -1.8178
   62MOL   H77948481   1.791   5.073   1.025 -0.8840  1.0755 -0.8234
   62MOL   H78048482   2.042   5.134   1.385 -1.7116  0.1855  0.2727
   62MOL   H78148483   1.909   5.323   1.446 -0.8627  0.9197 -1.0253
   62MOL   H78248484   2.042   4.847   1.009 -2.3620 -1.6831 -0.5712
   63MOL     C148485   2.054   3.194   3.464 -0.2887 -0.6110 -0.3879
   63MOL     C248486   1.978   3.275   3.355 -0.0230 -0.3610 -0.1862
   63MOL     C348487   1.886   3.374   3.427  0.4049 -0.1763 -0.9951
   63MOL     C448488   1.810   3.464   3.321  0.5473  0.2802  0.4035
   63MOL     O548489   1.717   3.550   3.385 -0.1907  0.3665  0.2515
   63MOL     C648490   1.791   3.303   3.523  0.1522 -0.3375 -0.3965
   63MOL     C748491   1.854   3.188   3.608 -0.0321 -0.3120 -0.0153
   63MOL     C848492   1.957   3.102   3.539  0.2426 -0.3970  0.4186
   63MOL     C948493   2.021   3.004   3.636 -0.6090  0.5280 -0.2017
   63MOL    O1048494   2.129   2.932   3.575  0.9156 -0.1558  0.0225
   63MOL    C1148495   2.210   2.869   3.651 -0.1143 -1.0060  0.8047
   63MOL    O1248496   2.187   2.831   3.761  0.0303  0.0769  0.0420
   63MOL    C1348497   2.340   2.855   3.581 -0.4594  0.1752 -0.4916
   63MOL    C1448498   2.430   2.760   3.633  0.3977 -0.1631 -0.6541
   63MOL    C1548499   2.559   2.758   3.579 -0.6814  0.1012  0.0849
   63MOL    C1648500   2.593   2.821   3.453 -0.7482 -0.5675 -0.2117
   63MOL    C1748501   2.722   2.791   3.385 -0.2443  0.0933  0.2221
   63MOL    O1848502   2.810   2.728   3.439 -0.1255  0.5012 -0.1922
   63MOL    O1948503   2.725   2.847   3.263  0.2582 -0.1186  0.0592
   63MOL    C2048504   2.498   2.909   3.396  0.3770  0.4537 -0.4198
   63MOL    C2148505   2.370   2.922   3.461 -0.4274  0.9514  0.1938
   63MOL    H2248506   2.134   3.136   3.419  0.2159 -0.5083  0.3750
   63MOL    H2348507   2.105   3.262   3.533 -0.5534  0.0481 -0.8282
   63MOL    H2448508   2.045   3.337   3.296 -1.4124  1.2375 -0.1161
   63MOL    H2548509   1.917   3.208   3.294 -1.3537  1.7352 -1.2282
   63MOL    H2648510   1.960   3.431   3.482  1.1218 -0.5294 -1.5858
   63MOL    H2748511   1.882   3.518   3.261  0.3585  0.3710  0.2592
   63MOL    H2848512   1.765   3.386   3.259  0.4067 -0.8057  1.8142
   63MOL    H2948513   1.727   3.378   3.569 -0.3302 -0.3716 -1.0019
   63MOL    H3048514   1.718   3.248   3.462 -1.5137  1.8971 -0.4736
   63MOL    H3148515   1.772   3.125   3.642 -0.9066  0.6624 -0.2766
   63MOL    H3248516   1.918   3.215   3.692 -0.6470  2.9474 -0.5381
   63MOL    H3348517   1.899   3.041   3.470 -0.7832  0.4176  0.5645
   63MOL    H3448518   2.058   3.057   3.725 -0.4214  0.6601 -0.3565
   63MOL    H3548519   1.940   2.938   3.666  0.5330 -0.6187  0.4126
   63MOL    H3648520   2.407   2.708   3.725 -0.1137 -2.1454 -1.8851
   63MOL    H3748521   2.619   2.678   3.619 -0.8240 -0.2746 -0.4455
   63MOL    H3848522   2.514   2.957   3.301 -3.7318  1.7651 -0.5179
   63MOL    H3948523   2.292   2.977   3.410 -0.5582 -0.5292 -1.2098
   63MOL    H4048524   1.761   3.580   3.463 -0.7238  1.5181  0.1233
   63MOL    C4148525   3.129   2.450   2.998 -0.0007  0.1495  0.0357
   63MOL    C4248526   2.994   2.523   3.004  0.3418  0.1409 -0.4444
   63MOL    C4348527   2.994   2.640   3.104 -0.0204  0.0356 -0.7796
   63MOL    C4448528   2.854   2.699   3.121 -0.6899 -0.2557 -0.1051
   63MOL    O4548529   2.859   2.822   3.185 -0.3513 -0.1350 -0.0282
   63MOL    C4648530   3.058   2.605   3.242 -0.5076  0.0324  0.4183
   63MOL    C4748531   3.188   2.533   3.228  0.2598 -0.0268 -0.4014
   63MOL    C4848532   3.178   2.402   3.137 -0.0089 -0.0921 -0.3392
   63MOL    C4948533   3.309   2.332   3.139 -0.3614  0.4296 -1.1760
   63MOL    O5048534   3.407   2.409   3.071  0.5521  0.0936 -0.5226
   63MOL    C5148535   3.518   2.436   3.125  0.1591 -0.5615  0.3131
   63MOL    O5248536   3.547   2.382   3.233  0.6659  0.3263  0.5380
   63MOL    C5348537   3.604   2.540   3.044  0.5794  0.4117 -0.1630
   63MOL    C5448538   3.549   2.620   2.944  0.1957  0.1909  0.0997
   63MOL    C5548539   3.617   2.713   2.865 -0.2417 -0.0678 -0.0785
   63MOL    C5648540   3.757   2.735   2.898  0.2787  0.1210 -0.1993
   63MOL    C5748541   3.850   2.815   2.810 -0.3192  0.0700 -0.0002
   63MOL    O5848542   3.974   2.798   2.808 -0.3569  0.4233 -0.2279
   63MOL    O5948543   3.790   2.895   2.728 -0.0561  0.2666 -0.4361
   63MOL    C6048544   3.816   2.662   3.004  0.3682 -0.4287  0.8929
   63MOL    C6148545   3.739   2.559   3.071 -1.0677 -0.6957  0.6556
   63MOL    H6248546   3.115   2.368   2.928  0.4234  0.0072  0.1129
   63MOL    H6348547   3.206   2.517   2.959 -0.0276  0.7411  0.9967
   63MOL    H6448548   2.963   2.567   2.908 -1.3666 -2.0751 -0.9574
   63MOL    H6548549   2.924   2.446   3.035  2.5175 -0.4578  3.1410
   63MOL    H6648550   3.060   2.714   3.060  1.6971 -1.6946 -1.1517
   63MOL    H6748551   2.791   2.710   3.033  0.7735 -0.5260 -1.1935
   63MOL    H6848552   2.797   2.630   3.184 -0.3542 -0.8950 -0.4963
   63MOL    H6948553   3.076   2.702   3.287 -2.0391  0.1829  0.7249
   63MOL    H7048554   3.001   2.552   3.318  0.6082  1.3200  2.1818
   63MOL    H7148555   3.214   2.500   3.329  1.2815 -0.3238 -0.7497
   63MOL    H7248556   3.266   2.602   3.195  1.5236 -2.0473 -1.7381
   63MOL    H7348557   3.111   2.341   3.197  1.3271 -1.2999 -0.0668
   63MOL    H7448558   3.323   2.292   3.240 -0.8000  3.1007 -0.0074
   63MOL    H7548559   3.296   2.235   3.091  1.8425 -0.4917  0.0080
   63MOL    H7648560   3.443   2.607   2.924 -0.1944  2.2227  0.7008
   63MOL    H7748561   3.566   2.752   2.779  1.1010 -0.6110 -1.1531
   63MOL    H7848562   3.917   2.687   3.031  0.1397  0.2893  1.0722
   63MOL    H7948563   3.777   2.502   3.155 -0.9396 -0.6658  0.6187
   63MOL    C8048564   3.976   3.374   2.915 -0.1242 -0.0048 -0.0787
   63MOL    C8148565   3.926   3.328   2.779  0.3234 -0.0143 -0.3758
   63MOL    C8248566   3.941   3.173   2.767 -0.6882 -0.2538 -0.3034
   63MOL    C8348567   3.862   3.118   2.649 -0.5524  0.3953  0.1061
   63MOL    O8448568   3.884   2.975   2.630  0.3355 -0.3886 -0.4246
   63MOL    C8548569   4.091   3.141   2.763  0.3906 -0.6828  0.1795
   63MOL    C8648570   4.157   3.187   2.902 -1.2079  0.9326  0.2849
   63MOL    C8748571   4.129   3.339   2.944  0.3464  0.3137  0.4421
   63MOL    C8848572   4.169   3.363   3.089  0.0268 -0.1564  0.7164
   63MOL    O8948573   4.165   3.498   3.123  0.6836 -0.2350  0.4055
   63MOL    C9048574   4.058   3.543   3.198  0.6972  0.2154 -0.1272
   63MOL    O9148575   3.968   3.473   3.245  0.0046 -0.2634 -0.6102
   63MOL    C9248576   4.047   3.686   3.185 -0.1789 -0.5757  0.1366
   63MOL    C9348577   3.917   3.744   3.183 -0.3468  0.9967 -0.5625
   63MOL    C9448578   3.905   3.881   3.163  0.1854 -0.3710  0.3248
   63MOL    C9548579   4.017   3.965   3.163 -0.0762  1.1163 -0.1504
   63MOL    C9648580   3.999   4.117   3.143 -0.9103  0.6941 -0.2704
   63MOL    O9748581   3.926   4.172   3.062 -0.0057 -0.2636  0.2586
   63MOL    O9848582   4.073   4.194   3.222 -0.1861 -0.3540  0.2246
   63MOL    C9948583   4.145   3.913   3.179 -0.8154  0.3860  0.3470
   63MOL   C10048584   4.159   3.771   3.183  0.5167 -0.5152  0.8725
   63MOL   H10148585   3.966   3.482   2.918  2.1108  0.2227 -0.1691
   63MOL   H10248586   3.918   3.333   2.997  0.2620  2.3370  1.4136
   63MOL   H10348587   3.825   3.369   2.772  0.3348  0.0282 -0.2910
   63MOL   H10448588   3.989   3.379   2.706  0.6799 -0.8416 -0.6539
   63MOL   H10548589   3.889   3.127   2.851 -1.2039  1.2063  0.2036
   63MOL   H10648590   3.753   3.125   2.646 -0.7088 -1.5639  0.4201
   63MOL   H10748591   3.897   3.171   2.561 -0.4217  0.6943  0.3368
   63MOL   H10848592   4.103   3.035   2.742 -1.0858 -0.6770 -0.7368
   63MOL   H10948593   4.141   3.178   2.673  1.5938 -3.3993 -0.3211
   63MOL   H11048594   4.261   3.157   2.886 -2.1539 -1.7786 -0.9595
   63MOL   H11148595   4.113   3.132   2.985 -0.4473  1.1452  0.8412
   63MOL   H11248596   4.194   3.402   2.885 -0.2388  1.9671  1.5358
   63MOL   H11348597   4.090   3.311   3.143 -1.0152  1.0672  0.3848
   63MOL   H11448598   4.265   3.319   3.115  0.5515  0.4777 -0.1075
   63MOL   H11548599   3.832   3.677   3.180  2.1843 -2.5294  2.1619
   63MOL   H11648600   3.808   3.928   3.164  0.2008 -0.3339 -0.0336
   63MOL   H11748601   4.235   3.973   3.187  0.2330 -0.8648 -1.7657
   63MOL   H11848602   4.258   3.730   3.195  0.6765 -0.1964  0.6367
   63MOL   C11948603   4.100   4.621   2.857 -0.2125 -0.3255  0.0715
   63MOL   C12048604   4.089   4.486   2.928 -0.1113  0.2156  0.6229
   63MOL   C12148605   4.201   4.483   3.039  0.2373  0.1326 -0.1696
   63MOL   C12248606   4.212   4.352   3.104 -0.1464  0.5043 -0.2008
   63MOL   O12348607   4.085   4.334   3.168 -0.1289 -0.3505 -0.9078
   63MOL   C12448608   4.333   4.498   2.959 -0.2510  0.2814  0.3249
   63MOL   C12548609   4.350   4.619   2.877  0.3337 -0.6394 -0.0327
   63MOL   C12648610   4.235   4.631   2.778 -0.3504 -0.6030  0.4654
   63MOL   C12748611   4.252   4.766   2.700  0.1726 -0.3395  0.1622
   63MOL   O12848612   4.159   4.794   2.602  0.0084 -0.3189 -0.4861
   63MOL   C12948613   4.151   4.925   2.569 -0.4243 -0.1529 -0.2785
   63MOL   O13048614   4.219   5.015   2.607  0.0671  0.0300  0.0511
   63MOL   C13148615   4.053   4.942   2.458  0.1276 -0.2624 -0.2793
   63MOL   C13248616   3.938   4.863   2.443  0.9430  0.2991 -0.3109
   63MOL   C13348617   3.849   4.883   2.340  0.3840 -0.1792  0.9621
   63MOL   C13448618   3.870   4.985   2.246 -0.5388 -0.2991 -1.0077
   63MOL   C13548619   3.778   5.004   2.132 -0.6799  0.1521 -0.3360
   63MOL   O13648620   3.753   5.118   2.094  0.4546 -0.1355  0.1108
   63MOL   O13748621   3.722   4.904   2.066 -0.5582  0.4638  0.4704
   63MOL   C13848622   3.991   5.065   2.256  0.6788  0.1161  0.4583
   63MOL   C13948623   4.082   5.049   2.365 -0.2485  0.4645 -0.2634
   63MOL   H14048624   4.017   4.632   2.788  1.2530  0.0879 -1.6562
   63MOL   H14148625   4.090   4.704   2.927  1.1692 -0.7557  0.7962
   63MOL   H14248626   3.992   4.479   2.977 -0.7933 -5.3651 -1.1853
   63MOL   H14348627   4.104   4.399   2.864  0.4100 -0.2885  1.4223
   63MOL   H14448628   4.186   4.555   3.120 -0.2987  0.5167 -0.6017
   63MOL   H14548629   4.223   4.275   3.028 -1.3937  0.6966 -0.5953
   63MOL   H14648630   4.292   4.347   3.178 -1.8558  0.5548  1.7078
   63MOL   H14748631   4.409   4.497   3.038 -0.2711 -0.3212  0.3359
   63MOL   H14848632   4.348   4.408   2.900 -0.1268  0.3306  0.2809
   63MOL   H14948633   4.441   4.617   2.818 -0.4149  0.5727 -1.2780
   63MOL   H15048634   4.348   4.708   2.939 -0.2204 -0.0423 -0.8823
   63MOL   H15148635   4.236   4.538   2.721  0.7338  0.0450 -0.5724
   63MOL   H15248636   4.276   4.853   2.761  1.2765 -0.4120 -0.1616
   63MOL   H15348637   4.349   4.741   2.657  0.0482  0.4354 -0.5820
   63MOL   H15448638   3.913   4.787   2.516 -0.1476 -0.3614 -1.3559
   63MOL   H15548639   3.765   4.816   2.331 -2.0096  2.7390  0.9679
   63MOL   H15648640   4.012   5.134   2.176  0.6257 -0.9296 -0.4721
   63MOL   H15748641   4.166   5.117   2.366  0.6765 -0.6750 -0.2405
   63MOL   C15848642   4.182   4.853   1.805 -0.1842  0.0392  0.1780
   63MOL   C15948643   4.045   4.783   1.813 -1.1015 -0.4044 -0.2645
   63MOL   C16048644   3.990   4.793   1.965 -0.4354 -0.1257  0.7641
   63MOL   C16148645   3.851   4.717   1.978  0.1900 -0.9097  0.1826
   63MOL   O16248646   3.786   4.767   2.096  0.7060 -0.0823  0.4078
   63MOL   C16348647   4.090   4.750   2.071 -0.2815 -0.3119  0.4115
   63MOL   C16448648   4.219   4.827   2.062  0.0610  0.0809  0.2206
   63MOL   C16548649   4.275   4.807   1.923 -0.2974  0.6401 -0.3191
   63MOL   C16648650   4.411   4.873   1.906 -0.6995 -0.2271  0.8186
   63MOL   O16748651   4.495   4.815   2.004 -0.5917 -0.4466 -0.4733
   63MOL   C16848652   4.562   4.699   1.973 -0.4121  0.3711  0.0310
   63MOL   O16948653   4.558   4.645   1.862 -0.1107 -0.3154 -0.3606
   63MOL   C17048654   4.650   4.640   2.080 -0.3563 -0.0718 -0.5630
   63MOL   C17148655   4.754   4.715   2.141 -0.7529 -0.4355  0.2264
   63MOL   C17248656   4.834   4.664   2.244 -0.2999  0.2266 -0.4648
   63MOL   C17348657   4.816   4.524   2.276  0.0096 -0.0357  0.7324
   63MOL   C17448658   4.906   4.459   2.381 -0.5231 -0.0953  0.5782
   63MOL   O17548659   4.904   4.339   2.398 -0.5773 -0.6763 -1.1236
   63MOL   O17648660   4.987   4.551   2.446 -0.1393 -0.0498  0.2822
   63MOL   C17748661   4.721   4.446   2.208  0.3730  0.1580 -0.3174
   63MOL   C17848662   4.634   4.501   2.111 -0.2676  0.9301  0.3397
   63MOL   H17948663   4.228   4.836   1.708  0.8064  0.2943  0.6011
   63MOL   H18048664   4.165   4.960   1.818  1.7148  0.5498 -1.2418
   63MOL   H18148665   3.973   4.834   1.749  0.1127  2.0346  0.2482
   63MOL   H18248666   4.050   4.680   1.777  0.1989 -0.2602 -0.5161
   63MOL   H18348667   3.971   4.900   1.958  0.0285 -0.1716 -1.4561
   63MOL   H18448668   3.786   4.752   1.898  0.7732 -2.1096 -0.8249
   63MOL   H18548669   3.854   4.609   1.965  0.5240 -0.6290 -2.3756
   63MOL   H18648670   4.046   4.760   2.170 -1.7865 -0.4784 -0.2269
   63MOL   H18748671   4.116   4.645   2.064 -3.8678 -1.2555  0.0640
   63MOL   H18848672   4.298   4.795   2.131  0.8731  1.7546  0.0848
   63MOL   H18948673   4.209   4.929   2.097  1.7392 -0.5298  2.6447
   63MOL   H19048674   4.282   4.703   1.893  1.2177  0.1196  1.7214
   63MOL   H19148675   4.453   4.873   1.805 -1.2626  0.8629  0.5782
   63MOL   H19248676   4.398   4.980   1.924 -3.1748 -0.1565 -1.1636
   63MOL   H19348677   4.769   4.818   2.112 -0.7063  0.1836  2.3387
   63MOL   H19448678   4.899   4.732   2.297 -1.7504  0.8348  0.5569
   63MOL   H19548679   4.730   4.339   2.211 -0.7815  0.0152 -1.4481
   63MOL   H19648680   4.574   4.440   2.045 -0.1148  0.9783  0.1539
   63MOL   C19748681   4.733   4.361   2.898  1.1005  0.8526  0.2049
   63MOL   C19848682   4.847   4.461   2.858  0.1608 -0.0193 -0.3896
   63MOL   C19948683   4.896   4.427   2.719  0.8285  0.9199 -0.1054
   63MOL   C20048684   5.011   4.529   2.680  0.4508  0.9368 -0.8109
   63MOL   O20148685   5.071   4.500   2.554  0.0825 -0.3053 -0.0325
   63MOL   C20248686   4.958   4.283   2.716 -0.0884 -0.3619 -0.2667
   63MOL   C20348687   4.852   4.178   2.774  0.8296  0.1660 -0.3677
   63MOL   C20448688   4.796   4.222   2.912  0.5346  0.2287  0.2017
   63MOL   C20548689   4.693   4.118   2.972 -0.0917  0.0228 -0.6558
   63MOL   O20648690   4.577   4.105   2.885  0.1712 -0.4188  0.4687
   63MOL   C20748691   4.466   4.052   2.932 -0.4270  0.4757  0.0475
   63MOL   O20848692   4.467   3.990   3.039  0.0603  0.0475  0.1785
   63MOL   C20948693   4.344   4.060   2.845  0.1643 -0.3300  0.8977
   63MOL   C21048694   4.243   3.966   2.869  0.0645  0.2005  0.4434
   63MOL   C21148695   4.123   3.985   2.805 -0.3374  0.5464  0.0993
   63MOL   C21248696   4.102   4.098   2.723  0.2276 -0.1023  0.1200
   63MOL   C21348697   3.974   4.126   2.646  0.5282  0.9033 -0.2259
   63MOL   O21448698   3.939   4.241   2.612  0.7279  0.5174 -0.4614
   63MOL   O21548699   3.896   4.019   2.621 -0.2859  0.6284  0.0345
   63MOL   C21648700   4.204   4.187   2.704 -0.1314 -0.9072 -0.2238
   63MOL   C21748701   4.329   4.173   2.766  0.0902 -0.7129 -0.5232
   63MOL   H21848702   4.681   4.391   2.989 -1.9577 -0.1362 -1.1285
   63MOL   H21948703   4.649   4.363   2.829  2.0273 -0.1220 -0.9903
   63MOL   H22048704   4.814   4.564   2.865  0.8989  0.1125  1.2725
   63MOL   H22148705   4.930   4.464   2.928  0.0135 -0.0139 -0.2127
   63MOL   H22248706   4.825   4.441   2.638 -0.2683 -0.0165  0.6757
   63MOL   H22348707   4.978   4.633   2.679 -0.0994  0.8987  3.4316
   63MOL   H22448708   5.090   4.514   2.754  0.0709  1.1620 -0.3494
   63MOL   H22548709   4.977   4.245   2.616 -1.6953 -0.9216 -0.3687
   63MOL   H22648710   5.045   4.285   2.782  0.2977 -0.9661 -0.7487
   63MOL   H22748711   4.882   4.073   2.771 -1.5029 -0.6244  1.8988
   63MOL   H22848712   4.767   4.182   2.706 -0.5091 -0.3992  1.2402
   63MOL   H22948713   4.881   4.231   2.980  0.7465  3.0393 -0.3499
   63MOL   H23048714   4.745   4.023   2.982  1.5187  1.0158  0.5472
   63MOL   H23148715   4.680   4.154   3.074  1.5000 -1.1668 -0.0185
   63MOL   H23248716   4.255   3.881   2.933 -0.0815 -0.0709  0.1143
   63MOL   H23348717   4.042   3.913   2.807 -0.6139  0.7671 -2.0772
   63MOL   H23448718   4.190   4.260   2.626 -0.0974 -0.7102 -0.0476
   63MOL   H23548719   4.412   4.242   2.767  2.0896 -3.0458 -0.5534
   63MOL   C23648720   3.633   3.840   2.902  0.3067  0.2951  0.2602
   63MOL   C23748721   3.668   3.974   2.826 -0.2811 -0.0961 -0.3193
   63MOL   C23848722   3.610   3.975   2.682  0.3623  0.0074  0.7528
   63MOL   C23948723   3.671   4.083   2.594 -0.1744 -0.1114 -0.5524
   63MOL   O24048724   3.784   4.051   2.521 -0.0484  0.0531  0.1110
   63MOL   C24148725   3.625   3.835   2.612  0.3784 -0.5963  0.3148
   63MOL   C24248726   3.589   3.710   2.690  0.1902  0.5940  0.2085
   63MOL   C24348727   3.664   3.707   2.827 -0.0712  0.0435  0.4120
   63MOL   C24448728   3.628   3.578   2.897 -0.0347  0.2807 -0.6144
   63MOL   O24548729   3.485   3.582   2.930 -0.4256  0.0932 -0.1250
   63MOL   C24648730   3.451   3.587   3.064  0.1365 -0.6779 -0.9980
   63MOL   O24748731   3.531   3.597   3.160 -0.3360 -0.8589 -0.0894
   63MOL   C24848732   3.303   3.580   3.074 -0.8612  0.0143 -0.6914
   63MOL   C24948733   3.221   3.551   2.960  0.6624 -0.0052 -0.1116
   63MOL   C25048734   3.083   3.541   2.976  0.2459  0.3436 -0.0520
   63MOL   C25148735   3.024   3.574   3.098  0.1287  0.3829  0.0689
   63MOL   C25248736   2.875   3.590   3.107 -0.8316 -0.1310 -0.3533
   63MOL   O25348737   2.794   3.556   3.019  0.1581  0.1775  0.3254
   63MOL   O25448738   2.840   3.653   3.219 -0.0964  0.0293  0.1096
   63MOL   C25548739   3.104   3.599   3.206  0.0188 -1.2980  0.5085
   63MOL   C25648740   3.244   3.598   3.201  0.1204  0.4130 -0.0200
   63MOL   H25748741   3.684   3.862   2.996  2.8123  1.4002 -1.2919
   63MOL   H25848742   3.525   3.851   2.911  0.2289  0.4601 -0.7528
   63MOL   H25948743   3.626   4.056   2.883 -2.0562 -1.2228  0.0440
   63MOL   H26048744   3.776   3.979   2.828 -0.3353  2.0667 -1.0233
   63MOL   H26148745   3.503   3.998   2.682  0.8427  2.5488 -2.0152
   63MOL   H26248746   3.602   4.124   2.519 -0.9421  1.6709  1.0825
   63MOL   H26348747   3.693   4.172   2.653 -2.3688 -1.5653  2.5991
   63MOL   H26448748   3.552   3.837   2.531 -1.9804 -0.7808  2.3845
   63MOL   H26548749   3.723   3.824   2.565  0.0775  1.1815 -0.7790
   63MOL   H26648750   3.613   3.622   2.631  1.8767  2.1772 -1.5690
   63MOL   H26748751   3.482   3.711   2.710  0.3894  0.3990  1.3517
   63MOL   H26848752   3.771   3.694   2.808 -0.0573 -1.1557  1.2882
   63MOL   H26948753   3.661   3.497   2.833  2.8074  0.1140  0.9895
   63MOL   H27048754   3.690   3.563   2.986  0.3039  1.1462 -0.6995
   63MOL   H27148755   3.264   3.518   2.867  0.3413 -0.5815 -0.0568
   63MOL   H27248756   3.016   3.507   2.898 -0.0038 -0.0589  0.3383
   63MOL   H27348757   3.059   3.612   3.303 -0.8853 -1.1092  0.0774
   63MOL   H27448758   3.310   3.631   3.280 -0.6331  0.0195  0.7693
   63MOL   C27548759   2.329   3.811   3.426  0.0536 -0.2872  0.3462
   63MOL   C27648760   2.478   3.789   3.401 -0.1219 -0.0701  0.1393
   63MOL   C27748761   2.501   3.641   3.346  0.2534  0.3245 -0.3351
   63MOL   C27848762   2.642   3.597   3.318  0.2847  0.2578 -0.2608
   63MOL   O27948763   2.695   3.691   3.230 -0.7626 -0.3548  0.0584
   63MOL   C28048764   2.431   3.538   3.445  0.4644  0.3089  0.6182
   63MOL   C28148765   2.283   3.577   3.460  0.4167 -0.1852  0.0809
   63MOL   C28248766   2.267   3.714   3.522 -0.4294  0.5175 -0.6850
   63MOL   C28348767   2.129   3.749   3.571  0.2778  0.4878  0.1909
   63MOL   O28448768   2.093   3.645   3.671  0.3901  0.3835 -0.3866
   63MOL   C28548769   1.971   3.612   3.698 -0.1819 -0.3927  0.5197
   63MOL   O28648770   1.876   3.666   3.634  0.4115 -0.2265 -0.1854
   63MOL   C28748771   1.956   3.517   3.808 -0.0546 -0.3765  0.1979
   63MOL   C28848772   2.064   3.481   3.896 -0.1647 -0.9350 -0.0007
   63MOL   C28948773   2.046   3.391   4.001 -0.0351  0.4892 -0.2623
   63MOL   C29048774   1.920   3.335   4.022 -0.6121  0.3084 -0.1197
   63MOL   C29148775   1.912   3.228   4.132 -0.6083 -0.8069  0.1160
   63MOL   O29248776   1.810   3.190   4.185 -0.0053  0.8480 -0.2427
   63MOL   O29348777   2.037   3.193   4.184  0.2212 -0.2646  0.1558
   63MOL   C29448778   1.809   3.365   3.938 -0.2518 -0.1443  1.1958
   63MOL   C29548779   1.830   3.457   3.834 -0.0136  0.2331  0.8523
   63MOL   H29648780   2.312   3.913   3.460 -1.3143 -0.8909  1.5136
   63MOL   H29748781   2.269   3.809   3.334 -1.7841  1.1072  1.4983
   63MOL   H29848782   2.518   3.865   3.335  1.2185  0.2756  1.3194
   63MOL   H29948783   2.531   3.795   3.496  0.5824 -0.5933 -0.2149
   63MOL   H30048784   2.451   3.651   3.251  1.2229  0.2902 -0.8588
   63MOL   H30148785   2.683   3.582   3.418  0.0370  1.1376 -0.0148
   63MOL   H30248786   2.638   3.501   3.267 -2.0113  0.5767 -0.7346
   63MOL   H30348787   2.443   3.445   3.389  1.1798  0.8149 -0.0832
   63MOL   H30448788   2.487   3.538   3.538  2.1016  0.4246 -0.3436
   63MOL   H30548789   2.225   3.507   3.519 -1.4794  0.2564 -1.2007
   63MOL   H30648790   2.227   3.573   3.366  0.7993  1.9373 -0.2773
   63MOL   H30748791   2.330   3.699   3.610  2.5660  1.5556 -2.5515
   63MOL   H30848792   2.121   3.850   3.609 -0.6262  0.8834 -1.0043
   63MOL   H30948793   2.071   3.747   3.479  1.0884 -1.5042 -0.3215
   63MOL   H31048794   2.164   3.522   3.894 -0.8546  0.8867  1.3641
   63MOL   H31148795   2.124   3.376   4.075  0.0525 -0.1808 -0.4900
   63MOL   H31248796   1.710   3.323   3.943 -0.6150  0.3740 -1.2356
   63MOL   H31348797   1.744   3.479   3.772 -0.0742  2.2954  1.6299
   63MOL   C31448798   2.456   3.130   4.417 -0.6293 -0.0779 -0.9108
   63MOL   C31548799   2.311   3.092   4.405 -0.0965 -0.2862 -0.0103
   63MOL   C31648800   2.213   3.209   4.420  0.2110 -0.0539 -1.0722
   63MOL   C31748801   2.064   3.174   4.413 -0.0124 -0.0867 -0.6303
   63MOL   O31848802   2.031   3.104   4.300  0.1222  0.2462 -0.0245
   63MOL   C31948803   2.250   3.295   4.543 -0.1837  0.0325 -0.0134
   63MOL   C32048804   2.397   3.321   4.569  0.0418 -0.2548  0.0476
   63MOL   C32148805   2.482   3.190   4.558  0.7393 -0.6587 -0.4721
   63MOL   C32248806   2.637   3.212   4.573 -0.0280  0.3216 -0.4462
   63MOL   O32348807   2.665   3.239   4.704  0.1549 -0.2538 -0.0758
   63MOL   C32448808   2.737   3.154   4.778 -0.1629 -0.0651 -0.0353
   63MOL   O32548809   2.801   3.061   4.725  0.0057 -0.0655 -0.7483
   63MOL   C32648810   2.729   3.179   4.927  0.2009  0.4712  0.1347
   63MOL   C32748811   2.684   3.307   4.976 -0.4098 -0.6297 -0.3094
   63MOL   C32848812   2.675   3.326   5.116 -0.5177 -0.2821 -0.0414
   63MOL   C32948813   2.700   3.215   5.204 -0.0161 -0.0930 -0.0886
   63MOL   C33048814   2.688   3.224   5.354 -0.4721  0.3628 -0.4091
   63MOL   O33148815   2.722   3.134   5.432 -1.0599  0.0904  0.0031
   63MOL   O33248816   2.634   3.334   5.396 -0.3036  0.0236  0.2782
   63MOL   C33348817   2.748   3.089   5.158  0.0499 -0.7755 -0.1206
   63MOL   C33448818   2.752   3.071   5.019  0.0044  0.2748 -0.0933
   63MOL   H33548819   2.523   3.045   4.401 -1.4846 -1.7296  3.4540
   63MOL   H33648820   2.481   3.194   4.333  0.5568  0.0155 -0.4911
   63MOL   H33748821   2.300   3.047   4.306  0.2594  2.9862 -1.5955
   63MOL   H33848822   2.282   3.011   4.473 -1.5826  0.9510  0.8704
   63MOL   H33948823   2.236   3.276   4.337  0.9211  2.4104  1.0239
   63MOL   H34048824   2.045   3.110   4.499  1.6596 -0.2232 -0.3590
   63MOL   H34148825   2.002   3.263   4.423  1.6031  0.9586  0.2337
   63MOL   H34248826   2.191   3.387   4.542  1.6461  1.2211 -0.5913
   63MOL   H34348827   2.218   3.242   4.633  0.6998 -0.1759  0.1765
   63MOL   H34448828   2.395   3.370   4.667 -0.2779 -1.7652  0.8043
   63MOL   H34548829   2.441   3.388   4.495 -0.3666 -0.2901 -0.2294
   63MOL   H34648830   2.456   3.130   4.646  1.7358 -0.6518 -0.1682
   63MOL   H34748831   2.683   3.123   4.530  1.9013  1.1054 -0.0589
   63MOL   H34848832   2.669   3.291   4.506 -0.2788  0.3747 -0.5045
   63MOL   H34948833   2.652   3.385   4.908  0.3907 -1.6544 -1.8585
   63MOL   H35048834   2.642   3.421   5.156  1.2574  0.7467 -0.9094
   63MOL   H35148835   2.762   3.008   5.227  1.9487 -1.3004 -1.0800
   63MOL   H35248836   2.787   2.975   4.983 -1.3528 -0.6302  0.9518
   63MOL   C35348837   2.602   3.728   5.819  0.2993 -1.1010  0.8258
   63MOL   C35448838   2.627   3.642   5.693 -0.0859  0.3362  0.3029
   63MOL   C35548839   2.707   3.511   5.723 -0.3457 -0.1941 -0.4644
   63MOL   C35648840   2.732   3.431   5.595 -0.9396 -0.5098  0.2039
   63MOL   O35748841   2.632   3.341   5.549  0.3949  0.0856 -0.1766
   63MOL   C35848842   2.840   3.546   5.789  0.0724  0.3715  0.0339
   63MOL   C35948843   2.816   3.628   5.923  0.2675 -0.3605 -0.3078
   63MOL   C36048844   2.730   3.762   5.901  1.1187  0.0114  0.0364
   63MOL   C36148845   2.676   3.816   6.031  0.1011  0.0279  0.6983
   63MOL   O36248846   2.781   3.871   6.109 -0.1239  0.2363 -0.4614
   63MOL   C36348847   2.764   3.944   6.218  0.8940  0.0222  0.1352
   63MOL   O36448848   2.654   3.961   6.268  0.7856  0.0676  0.1614
   63MOL   C36548849   2.896   3.994   6.277  0.0601  0.5696  0.0696
   63MOL   C36648850   2.894   4.089   6.376  0.7505 -0.0458  0.6260
   63MOL   C36748851   3.011   4.124   6.445  0.2578 -0.8868 -0.0381
   63MOL   C36848852   3.141   4.072   6.406  0.1177  0.3766 -0.4505
   63MOL   C36948853   3.268   4.116   6.474 -0.1455  0.1758 -0.5047
   63MOL   O37048854   3.375   4.056   6.472  0.6616  0.9225  0.1762
   63MOL   O37148855   3.245   4.223   6.550 -0.1325 -0.2004 -0.1399
   63MOL   C37248856   3.142   3.978   6.303 -0.1139  0.2873 -0.1653
   63MOL   C37348857   3.022   3.943   6.235  0.1882  0.0734 -0.7246
   63MOL   H37448858   2.567   3.822   5.778  0.2525 -2.2028 -1.7495
   63MOL   H37548859   2.519   3.684   5.874 -0.2124  0.2557  1.1415
   63MOL   H37648860   2.535   3.622   5.638  0.4998  0.5526 -0.7746
   63MOL   H37748861   2.679   3.706   5.621  0.1235  1.3777  1.3573
   63MOL   H37848862   2.660   3.446   5.796 -0.2286  0.8214  0.5296
   63MOL   H37948863   2.737   3.507   5.517 -1.0389 -0.0178  0.6742
   63MOL   H38048864   2.827   3.381   5.579 -0.0973  1.4520 -1.1220
   63MOL   H38148865   2.886   3.450   5.811 -1.9987 -0.9229 -1.1625
   63MOL   H38248866   2.906   3.612   5.732 -0.5991  0.2143 -0.9247
   63MOL   H38348867   2.904   3.656   5.981  0.4603 -0.5546 -0.5074
   63MOL   H38448868   2.756   3.562   5.986 -0.1387  1.0136  0.7749
   63MOL   H38548869   2.791   3.837   5.850  2.4185 -0.5708  0.7006
   63MOL   H38648870   2.601   3.894   6.019  1.7110  1.2726 -1.4853
   63MOL   H38748871   2.623   3.735   6.082  0.4705 -0.8581 -0.3098
   63MOL   H38848872   2.799   4.115   6.420 -1.5116 -0.4082 -3.7751
   63MOL   H38948873   3.004   4.195   6.526  1.9008  0.2886 -0.8941
   63MOL   H39048874   3.235   3.940   6.262 -0.3860 -1.0649  0.4441
   63MOL   H39148875   3.030   3.872   6.153  2.2113  0.9951 -1.3349
   63MOL   C39248876   3.701   4.612   6.654 -0.0882 -0.3473  0.7623
   63MOL   C39348877   3.574   4.576   6.591  0.1020 -0.1100  0.3213
   63MOL   C39448878   3.519   4.433   6.641  0.5362 -0.0524  0.2373
   63MOL   C39548879   3.386   4.401   6.574  0.2027 -0.2118  0.1589
   63MOL   O39648880   3.356   4.271   6.626  0.0044 -0.4112  0.3455
   63MOL   C39748881   3.627   4.322   6.614  0.6523  0.6156  0.1207
   63MOL   C39848882   3.758   4.359   6.675 -0.2389  0.5706  0.3124
   63MOL   C39948883   3.813   4.503   6.645 -0.5854  0.2136  0.1261
   63MOL   C40048884   3.922   4.537   6.748 -0.0889  0.0129 -0.3728
   63MOL   O40148885   3.869   4.531   6.884 -0.3278  0.1734  0.3160
   63MOL   C40248886   3.897   4.625   6.979 -0.0291 -0.0440 -0.0924
   63MOL   O40348887   3.995   4.705   6.967 -0.2262  0.3159 -0.3312
   63MOL   C40448888   3.804   4.610   7.100 -0.0830 -0.4611 -0.4010
   63MOL   C40548889   3.832   4.667   7.229 -0.1244  0.4460  0.2773
   63MOL   C40648890   3.746   4.641   7.338  0.5545 -0.5520  0.8480
   63MOL   C40748891   3.639   4.547   7.326 -0.0502 -0.2407 -0.1663
   63MOL   C40848892   3.550   4.515   7.441 -0.3732  0.5899  0.2848
   63MOL   O40948893   3.448   4.448   7.433  0.4120 -0.2169 -0.3580
   63MOL   O41048894   3.595   4.569   7.550  0.2627  0.5763 -0.3045
   63MOL   C41148895   3.607   4.502   7.198 -0.2942 -0.2948  0.2694
   63MOL   C41248896   3.692   4.532   7.089  0.1738 -0.2295 -0.2077
   63MOL   H41348897   3.743   4.687   6.586 -0.9276  2.1064  2.8692
   63MOL   H41448898   3.683   4.666   6.747 -0.7291 -0.3941  0.6674
   63MOL   H41548899   3.507   4.656   6.623  1.9616  0.2121  3.5358
   63MOL   H41648900   3.589   4.572   6.483  1.6478  0.1956  0.5211
   63MOL   H41748901   3.498   4.449   6.747 -1.8067  0.2467 -0.2628
   63MOL   H41848902   3.317   4.479   6.607  0.5696 -0.2864  1.1287
   63MOL   H41948903   3.400   4.409   6.467  0.2742  0.9317  0.2461
   63MOL   H42048904   3.585   4.226   6.645  2.8704  0.0122  1.3614
   63MOL   H42148905   3.655   4.301   6.511  0.4278  0.7047  0.0400
   63MOL   H42248906   3.827   4.278   6.653 -0.6431  0.4360 -0.4794
   63MOL   H42348907   3.740   4.342   6.781  1.6127 -1.4333  0.3199
   63MOL   H42448908   3.864   4.516   6.550 -0.3757  2.1032  0.4800
   63MOL   H42548909   4.014   4.482   6.728 -1.5108 -1.9075 -1.8017
   63MOL   H42648910   3.950   4.641   6.733  1.7822  0.1722  3.6140
   63MOL   H42748911   3.915   4.735   7.241  1.4851 -1.1239 -1.6052
   63MOL   H42848912   3.769   4.686   7.433  0.4797  1.0307  0.1365
   63MOL   H42948913   3.521   4.439   7.178  0.2120 -0.6092 -1.0019
   63MOL   H43048914   3.669   4.487   6.993 -1.3798 -1.6219  0.7891
   63MOL   C43148915   3.250   4.367   7.968  0.1329  0.1991  1.1503
   63MOL   C43248916   3.344   4.355   7.846 -0.3360  0.1527  0.0784
   63MOL   C43348917   3.490   4.405   7.868  0.0932  0.4965 -0.0813
   63MOL   C43448918   3.564   4.434   7.736 -0.4714  0.1956 -0.6385
   63MOL   O43548919   3.504   4.540   7.663  0.2075  0.2740  0.1687
   63MOL   C43648920   3.489   4.528   7.967  0.0882 -0.1885  0.3884
   63MOL   C43748921   3.401   4.518   0.057 -0.3926 -0.0634 -0.1325
   63MOL   C43848922   3.254   4.502   0.013 -0.1777  0.0807  0.6929
   63MOL   C43948923   3.151   4.518   0.125  0.2790 -0.1631  0.0026
   63MOL   O44048924   3.150   4.657   0.144  0.6933  0.6088  0.2366
   63MOL   C44148925   3.051   4.708   0.223 -0.5674  0.0685  0.5978
   63MOL   O44248926   2.965   4.639   0.267 -0.6933 -0.0821  0.3011
   63MOL   C44348927   3.063   4.855   0.249  0.0501  0.0708 -0.7375
   63MOL   C44448928   2.977   4.918   0.344 -0.2107  0.4686  1.0062
   63MOL   C44548929   2.989   5.058   0.355  0.0155 -0.3224 -0.7691
   63MOL   C44648930   3.083   5.136   0.285 -0.0234  0.4461 -0.1657
   63MOL   C44748931   3.093   5.282   0.291 -0.0863  0.3234 -0.1064
   63MOL   O44848932   3.166   5.358   0.231 -0.1162  0.0252  0.0025
   63MOL   O44948933   3.003   5.333   0.371  0.1337  0.6375 -0.4151
   63MOL   C45048934   3.174   5.071   0.201  0.2112 -0.0791 -0.0373
   63MOL   C45148935   3.159   4.929   0.176 -0.0204  0.3695  0.4792
   63MOL   H45248936   3.150   4.340   7.932 -0.3320  2.8754  0.3246
   63MOL   H45348937   3.277   4.283   8.032 -1.8304 -0.8629  0.6217
   63MOL   H45448938   3.351   4.253   7.809 -0.3789  0.6401 -1.2968
   63MOL   H45548939   3.295   4.402   7.760  0.7492 -1.4029 -1.4109
   63MOL   H45648940   3.531   4.318   7.919  0.0648 -0.2360 -1.2717
   63MOL   H45748941   3.672   4.448   7.746 -0.7373  1.1051  1.1066
   63MOL   H45848942   3.544   4.353   7.666  1.6391 -0.1569 -0.8827
   63MOL   H45948943   3.589   4.561   7.998 -0.2503  0.3922  0.8925
   63MOL   H46048944   3.468   4.622   7.915 -0.3360  0.3992  1.5932
   63MOL   H46148945   3.425   4.611   0.109 -1.8697  1.1961 -1.6590
   63MOL   H46248946   3.443   4.434   0.113 -0.4658  0.0086  0.0339
   63MOL   H46348947   3.231   4.582   7.978  3.3084  1.0914  0.5639
   63MOL   H46448948   3.054   4.476   0.098  1.2640 -2.2702 -0.3198
   63MOL   H46548949   3.187   4.466   0.214  1.9668  3.3042  1.4692
   63MOL   H46648950   2.908   4.859   0.404 -0.2937  0.4271  0.8683
   63MOL   H46748951   2.925   5.101   0.431 -1.2522  0.4842 -2.2800
   63MOL   H46848952   3.248   5.121   0.140  0.6089 -0.7232 -0.0852
   63MOL   H46948953   3.222   4.876   0.105 -1.2034 -1.2138  0.5776
   63MOL   C47048954   2.793   5.914   0.422 -0.7289 -0.1623  0.9306
   63MOL   C47148955   2.783   5.762   0.421  0.7313  0.6644  0.6963
   63MOL   C47248956   2.908   5.682   0.398 -0.3396 -0.4293  0.0504
   63MOL   C47348957   2.889   5.533   0.388 -0.1400 -0.4342 -0.1723
   63MOL   O47448958   3.011   5.479   0.401 -0.8124 -0.0467 -0.2315
   63MOL   C47548959   2.968   5.736   0.264 -0.5232 -0.0893 -0.1447
   63MOL   C47648960   2.991   5.887   0.267  0.0238  0.0048  0.4794
   63MOL   C47748961   2.866   5.964   0.294  0.0599  0.5097  0.3793
   63MOL   C47848962   2.889   6.116   0.302 -0.8526  0.3325 -0.5242
   63MOL   O47948963   2.953   6.169   0.185  0.5518 -0.4472 -0.2309
   63MOL   C48048964   2.878   6.228   0.094 -0.0141  0.4427  0.7305
   63MOL   O48148965   2.757   6.242   0.099  0.4696  0.0428  0.0679
   63MOL   C48248966   2.955   6.276   8.013  0.2562 -0.4652 -0.6397
   63MOL   C48348967   3.084   6.229   7.984 -0.7323  0.4338 -0.3311
   63MOL   C48448968   3.162   6.281   7.878 -0.2032  0.5257 -0.3561
   63MOL   C48548969   3.115   6.387   7.802 -0.1831 -0.1563 -0.7053
   63MOL   C48648970   3.197   6.452   7.694  1.0689  0.9405 -0.2881
   63MOL   O48748971   3.152   6.548   7.629  0.0774 -0.2744 -0.9112
   63MOL   O48848972   3.333   6.419   7.702  0.0586  0.0680  0.1448
   63MOL   C48948973   2.981   6.434   7.821  0.1647 -0.4985 -0.9489
   63MOL   C49048974   2.911   6.385   7.936 -0.0643  0.2755 -0.2446
   63MOL   H49148975   2.690   5.949   0.422 -0.4744  0.6031  1.1560
   63MOL   H49248976   2.844   5.943   0.514 -0.4074  1.7924  0.1596
   63MOL   H49348977   2.731   5.730   0.511  0.7901  1.2758  0.9556
   63MOL   H49448978   2.710   5.743   0.343  2.3351  0.5656 -0.8120
   63MOL   H49548979   2.981   5.702   0.477 -0.5752  0.7801 -0.0190
   63MOL   H49648980   2.827   5.494   0.469  0.9565 -0.7549  0.5219
   63MOL   H49748981   2.832   5.502   0.300 -1.3237 -3.2191  1.5286
   63MOL   H49848982   3.059   5.680   0.245 -0.6273 -0.5360  0.6459
   63MOL   H49948983   2.894   5.719   0.186 -2.0623 -0.5641  1.3916
   63MOL   H50048984   3.034   5.913   0.170  0.6078 -0.1034  0.7081
   63MOL   H50148985   3.058   5.906   0.350  0.7714 -1.5486  0.2623
   63MOL   H50248986   2.797   5.948   0.211  0.6469 -0.9056  0.1487
   63MOL   H50348987   2.794   6.165   0.321 -1.2075 -0.9443  1.1894
   63MOL   H50448988   2.953   6.140   0.387  0.2312 -0.8524 -0.9858
   63MOL   H50548989   3.129   6.158   0.016  0.7419  1.6201 -0.0458
   63MOL   H50648990   3.263   6.247   7.862  0.1113  0.7812  0.9946
   63MOL   H50748991   2.952   6.519   7.761  2.4113 -1.3535 -3.3648
   63MOL   H50848992   2.813   6.428   7.956  0.1877 -0.3167  2.4980
   63MOL   C50948993   3.584   6.873   7.445  0.5015 -0.7248  0.0288
   63MOL   C51048994   3.490   6.782   7.521  0.2542 -0.3372  0.1361
   63MOL   C51148995   3.557   6.708   7.635  0.1069  0.2344 -0.2474
   63MOL   C51248996   3.464   6.614   7.706 -0.0296 -0.3193 -0.4117
   63MOL   O51348997   3.424   6.506   7.626 -0.2658  0.0792 -0.1802
   63MOL   C51448998   3.687   6.637   7.590 -0.4634 -0.7093 -0.0804
   63MOL   C51548999   3.783   6.735   7.511 -0.1957  0.8016  0.0717
   63MOL   C51649000   3.713   6.806   7.390 -0.3443 -0.5197 -0.0195
   63MOL   C51749001   3.810   6.896   7.316  0.4846 -0.2679  0.5879
   63MOL   O51849002   3.733   6.938   7.196 -0.9038  0.0036  0.5041
   63MOL   C51949003   3.775   7.049   7.129 -0.3454 -0.8292 -0.7726
   63MOL   O52049004   3.826   7.145   7.185 -0.1451 -0.2830  0.1970
   63MOL   C52149005   3.723   7.041   6.994  0.0958  0.1680  0.7006
   63MOL   C52249006   3.687   7.158   6.923 -1.1536 -0.3742  0.4776
   63MOL   C52349007   3.639   7.147   6.790  0.2249 -0.3620  0.0039
   63MOL   C52449008   3.634   7.021   6.717  0.0431  0.2423  0.5212
   63MOL   C52549009   3.573   7.007   6.582 -0.2996 -0.3632 -0.3241
   63MOL   O52649010   3.521   7.097   6.519  0.1372 -0.1521  0.2728
   63MOL   O52749011   3.596   6.888   6.530  0.0151  0.4153 -0.2124
   63MOL   C52849012   3.680   6.905   6.789  0.0719 -0.3765 -0.0267
   63MOL   C52949013   3.723   6.916   6.922 -0.2087 -0.2793  0.0402
   63MOL   H53049014   3.536   6.917   7.358 -0.2269 -0.1809  0.7046
   63MOL   H53149015   3.609   6.963   7.501  1.5270 -0.9728 -0.0094
   63MOL   H53249016   3.406   6.843   7.554 -0.6645 -0.6544 -1.5248
   63MOL   H53349017   3.442   6.707   7.457  1.3833 -0.1270 -0.9754
   63MOL   H53449018   3.582   6.787   7.707  0.8678  0.3515 -0.6291
   63MOL   H53549019   3.515   6.580   7.796  0.7207 -2.5762 -1.6309
   63MOL   H53649020   3.374   6.670   7.730 -0.7613 -2.6683  2.7329
   63MOL   H53749021   3.733   6.606   7.684  1.8126 -2.8179 -1.8293
   63MOL   H53849022   3.672   6.547   7.530  0.0421  0.2230 -1.6412
   63MOL   H53949023   3.869   6.682   7.471 -1.0653 -0.7158  0.1593
   63MOL   H54049024   3.810   6.808   7.588  0.4081  0.5565  0.0889
   63MOL   H54149025   3.687   6.717   7.332  2.4804 -1.3591 -0.0876
   63MOL   H54249026   3.841   6.979   7.379 -1.1558  0.3302  0.6516
   63MOL   H54349027   3.905   6.848   7.293 -0.4503 -1.3044 -1.2169
   63MOL   H54449028   3.690   7.257   6.964  0.0924 -0.2083  0.0275
   63MOL   H54549029   3.600   7.236   6.742 -0.8406 -0.9097 -0.1565
   63MOL   H54649030   3.689   6.807   6.746 -1.3738 -0.5731  0.0728
   63MOL   H54749031   3.754   6.825   6.972 -0.0629 -0.4616 -0.3831
   63MOL   C54849032   3.645   6.822   5.918  0.4499  0.1414  0.4297
   63MOL   C54949033   3.697   6.844   6.062 -0.6552  0.3237  0.5714
   63MOL   C55049034   3.582   6.853   6.158  0.1050 -0.2050 -0.1500
   63MOL   C55149035   3.635   6.875   6.300 -0.2615 -0.5480  0.2110
   63MOL   O55249036   3.535   6.867   6.392 -0.2884  0.8555  0.5582
   63MOL   C55349037   3.482   6.954   6.108  0.7279 -0.0938 -0.3714
   63MOL   C55449038   3.424   6.934   5.972  0.0593 -0.5756 -0.6767
   63MOL   C55549039   3.538   6.928   5.874 -0.1175  0.4193  0.2839
   63MOL   C55649040   3.475   6.908   5.732  0.5994 -0.0369 -0.3778
   63MOL   O55749041   3.410   7.033   5.686  0.1204  0.1218  0.3244
   63MOL   C55849042   3.366   7.047   5.559 -0.3506  0.0912  0.5147
   63MOL   O55949043   3.372   6.958   5.472  0.3172  0.3291 -0.4382
   63MOL   C56049044   3.294   7.171   5.528  0.4668 -0.2525  0.1751
   63MOL   C56149045   3.247   7.255   5.633 -0.0931 -0.0230  0.4863
   63MOL   C56249046   3.176   7.372   5.601 -0.2439  0.1688  0.2484
   63MOL   C56349047   3.145   7.404   5.463 -0.0597 -0.1121  0.7314
   63MOL   C56449048   3.065   7.523   5.424  0.2900 -0.3348  0.4327
   63MOL   O56549049   3.016   7.528   5.308 -0.0685 -0.6643 -0.1234
   63MOL   O56649050   3.045   7.608   5.523  0.1297 -0.3954 -0.1325
   63MOL   C56749051   3.187   7.318   5.363  0.1338  0.4088  0.2362
   63MOL   C56849052   3.258   7.201   5.394  0.1430 -0.4082 -0.6337
   63MOL   H56949053   3.727   6.819   5.846 -1.1416  2.3487 -1.5780
   63MOL   H57049054   3.604   6.721   5.923  0.0689  0.2639 -0.1773
   63MOL   H57149055   3.782   6.784   6.093 -1.0272 -0.8177 -0.5935
   63MOL   H57249056   3.746   6.941   6.068 -0.2665  0.0723  1.5740
   63MOL   H57349057   3.537   6.755   6.173 -1.8438  0.7225  0.1370
   63MOL   H57449058   3.717   6.808   6.326 -2.0772 -3.1128 -0.4238
   63MOL   H57549059   3.671   6.978   6.307 -0.3057 -0.3776 -1.7819
   63MOL   H57649060   3.397   6.944   6.176  0.0699 -2.3988 -1.5000
   63MOL   H57749061   3.516   7.057   6.118  2.1652 -0.6635  0.7596
   63MOL   H57849062   3.356   7.016   5.952  1.1139  0.4199 -0.1940
   63MOL   H57949063   3.368   6.840   5.970  1.8987 -1.8049  1.7712
   63MOL   H58049064   3.585   7.026   5.873  1.3230 -0.2215  1.4727
   63MOL   H58149065   3.566   6.891   5.674  0.4879  0.2206 -0.6301
   63MOL   H58249066   3.407   6.824   5.723  2.2272 -1.5561  1.1826
   63MOL   H58349067   3.279   7.243   5.736  0.5795  0.4176  0.3310
   63MOL   H58449068   3.153   7.440   5.682 -1.7541  0.3431 -0.3073
   63MOL   H58549069   3.154   7.323   5.260  0.1601 -0.4764  0.1798
   63MOL   H58649070   3.284   7.131   5.316 -2.1238 -0.8442 -1.0470
   63MOL   C58749071   2.592   8.003   5.493 -0.4549 -0.7517  0.0054
   63MOL   C58849072   2.669   7.872   5.460  0.4735 -0.2743  0.1527
   63MOL   C58949073   2.759   7.842   5.581 -0.2462 -0.4942  0.0181
   63MOL   C59049074   2.827   7.700   5.569  0.0730  0.2041  0.6585
   63MOL   O59149075   2.944   7.717   5.491  0.1982 -0.3503  0.3796
   63MOL   C59249076   2.853   7.957   5.620  0.0245 -0.7227  0.0664
   63MOL   C59349077   2.784   0.055   5.652  0.4665  0.2719 -0.2353
   63MOL   C59449078   2.683   0.085   5.540  0.0080  0.1583  0.1276
   63MOL   C59549079   2.608   0.220   5.550  0.2076  0.2563  0.1067
   63MOL   O59649080   2.697   0.325   5.571 -0.1692 -0.3938  0.4001
   63MOL   C59749081   2.658   0.448   5.616  0.3646  0.4077  0.2912
   63MOL   O59849082   2.540   0.478   5.614 -0.1125 -0.0162  0.3510
   63MOL   C59949083   2.770   0.540   5.653 -0.2200 -0.7386  0.5749
   63MOL   C60049084   2.741   0.669   5.696 -0.0993  0.0129  0.3640
   63MOL   C60149085   2.846   0.757   5.730 -0.5976  0.1838 -0.3682
   63MOL   C60249086   2.980   0.709   5.747 -0.0204 -0.4595 -0.1201
   63MOL   C60349087   3.090   0.801   5.794 -0.4528 -0.2693 -0.2032
   63MOL   O60449088   3.208   0.758   5.801 -0.1427  0.4351 -0.0775
   63MOL   O60549089   3.047   0.914   5.833 -0.1357 -0.7068  0.2049
   63MOL   C60649090   3.006   0.579   5.705  0.0882  0.5379  0.3006
   63MOL   C60749091   2.902   0.493   5.654  0.1571 -0.2396  0.2194
   63MOL   H60849092   2.537   8.027   5.401  0.3258 -0.1796 -0.3197
   63MOL   H60949093   2.514   7.967   5.560 -0.1888 -3.3892 -1.0694
   63MOL   H61049094   2.593   7.797   5.440 -1.8444  2.3862 -1.3850
   63MOL   H61149095   2.729   7.884   5.369 -2.5564  0.1817 -1.8702
   63MOL   H61249096   2.701   7.839   5.674 -0.4421  2.0548  0.0119
   63MOL   H61349097   2.836   7.665   5.672 -1.8641  0.9834  1.1225
   63MOL   H61449098   2.762   7.626   5.523  2.0041 -1.9418  1.3084
   63MOL   H61549099   2.924   7.934   5.699  0.2299 -1.1995 -0.2536
   63MOL   H61649100   2.923   7.979   5.540  1.9458  0.4922  2.0186
   63MOL   H61749101   2.856   0.135   5.674 -0.2149  1.5731 -2.5612
   63MOL   H61849102   2.735   0.060   5.750 -0.6187 -0.0138 -0.7576
   63MOL   H61949103   2.750   0.091   5.454  0.0675 -0.7573  0.1053
   63MOL   H62049104   2.547   0.237   5.461 -0.0042  0.8258  0.3619
   63MOL   H62149105   2.540   0.226   5.635  0.8658 -1.5535  0.7906
   63MOL   H62249106   2.638   0.702   5.692  0.1799  0.8637  0.0363
   63MOL   H62349107   2.827   0.857   5.764  1.2418  0.1421  0.8766
   63MOL   H62449108   3.107   0.548   5.726  0.0098  0.1951  0.1691
   63MOL   H62549109   2.921   0.390   5.629  1.4374  0.4933 -1.9455
   63MOL   C62649110   3.474   0.841   6.183  0.4326  0.2414  0.4929
   63MOL   C62749111   3.345   0.855   6.105 -0.5021 -0.7546  0.0462
   63MOL   C62849112   3.298   1.005   6.087 -0.2559 -0.6923  0.5248
   63MOL   C62949113   3.153   1.005   6.023  0.0305 -0.0935  0.0451
   63MOL   O63049114   3.154   1.000   5.883  0.1755  0.8307 -0.0394
   63MOL   C63149115   3.300   1.071   6.235  0.0571  0.5962  0.6167
   63MOL   C63249116   3.429   1.057   6.317  0.0657  0.6646  0.1472
   63MOL   C63349117   3.462   0.902   6.326  0.4631 -0.3550  0.2380
   63MOL   C63449118   3.599   0.865   6.396 -0.6902 -0.3177 -0.7310
   63MOL   O63549119   3.603   0.728   6.419 -0.3235  0.0589  0.2989
   63MOL   C63649120   3.693   0.676   6.511  0.4468  0.1788 -0.2268
   63MOL   O63749121   3.765   0.743   6.587 -0.5563  0.4044  0.6723
   63MOL   C63849122   3.686   0.527   6.514 -0.6863  0.3764  0.1243
   63MOL   C63949123   3.620   0.444   6.426  0.2186  0.1057 -0.5773
   63MOL   C64049124   3.629   0.301   6.433 -0.1743  0.1196 -0.2045
   63MOL   C64149125   3.704   0.240   6.533  0.3363  0.1254  0.4608
   63MOL   C64249126   3.718   0.094   6.543  0.7930 -0.0790 -0.1301
   63MOL   O64349127   3.796   0.026   6.612  0.3689 -0.3324  0.3872
   63MOL   O64449128   3.621   0.031   6.471 -0.2687 -0.2544  0.2426
   63MOL   C64549129   3.770   0.321   6.629  0.4925  0.3236 -0.4347
   63MOL   C64649130   3.755   0.467   6.624  0.1893  0.2850 -1.2172
   63MOL   H64749131   3.502   0.736   6.179  3.8331  1.1389 -0.4483
   63MOL   H64849132   3.556   0.895   6.137  0.6810 -0.9654 -0.5136
   63MOL   H64949133   3.357   0.812   6.005  3.1144  0.4937 -0.1201
   63MOL   H65049134   3.264   0.800   6.153 -0.1390 -0.2106  1.3010
   63MOL   H65149135   3.363   1.058   6.017 -1.3646  1.6482  1.2295
   63MOL   H65249136   3.082   0.940   6.074 -0.9994  0.1366 -1.0750
   63MOL   H65349137   3.121   1.104   6.054  0.1249 -0.2767  0.7330
   63MOL   H65449138   3.287   1.177   6.211 -0.2810  0.5737  0.7012
   63MOL   H65549139   3.217   1.047   6.301 -0.6102  1.4643  0.1129
   63MOL   H65649140   3.442   1.105   6.414  0.0267  1.4630 -0.2395
   63MOL   H65749141   3.518   1.098   6.270  0.2608 -0.4245 -0.4510
   63MOL   H65849142   3.383   0.853   6.383  1.1771  0.7496  2.2147
   63MOL   H65949143   3.678   0.892   6.326 -0.4778  0.4017 -0.2118
   63MOL   H66049144   3.620   0.911   6.492 -0.2414  0.6235 -1.2693
   63MOL   H66149145   3.558   0.483   6.347 -0.8611 -1.3486 -0.4849
   63MOL   H66249146   3.589   0.241   6.352 -1.7237  1.6513 -0.5949
   63MOL   H66349147   3.830   0.279   6.709 -1.0575  0.3723  0.7706
   63MOL   H66449148   3.801   0.528   6.700 -0.4517 -0.1487 -0.4794
   63MOL   C66549149   3.398   7.700   6.201 -0.3970 -0.3556 -0.1809
   63MOL   C66649150   3.487   7.731   6.322 -0.9529 -0.1419  0.5670
   63MOL   C66749151   3.592   7.833   6.286  0.3297 -0.0128  0.0405
   63MOL   C66849152   3.685   7.852   6.401  0.0734  0.1786 -0.5726
   63MOL   O66949153   3.615   7.921   6.503 -0.5882  0.2238  0.3822
   63MOL   C67049154   3.676   7.787   6.170  0.2197 -0.3359 -0.9666
   63MOL   C67149155   3.600   7.739   6.053  0.3359 -0.3290 -0.3760
   63MOL   C67249156   3.495   7.637   6.096 -0.0479  0.2635 -0.1124
   63MOL   C67349157   3.416   7.574   5.976  0.3146  0.7204 -0.2894
   63MOL   O67449158   3.306   7.491   6.022  0.1923 -0.0749 -0.2567
   63MOL   C67549159   3.311   7.377   6.081 -0.7871 -0.7503  0.3520
   63MOL   O67649160   3.417   7.329   6.123  0.8256 -0.2538 -0.3136
   63MOL   C67749161   3.180   7.318   6.096  0.3710  0.2638 -1.0065
   63MOL   C67849162   3.066   7.393   6.075  0.7299 -0.1380 -0.5104
   63MOL   C67949163   2.935   7.351   6.112  0.4166  0.5269 -0.4302
   63MOL   C68049164   2.925   7.213   6.150  0.4278  0.3270 -0.2015
   63MOL   C68149165   2.795   7.146   6.177  0.5124 -0.3711  0.1660
   63MOL   O68249166   2.692   7.217   6.171  0.0259  0.2647 -0.5245
   63MOL   O68349167   2.800   7.012   6.195  0.1164 -0.3004 -0.4138
   63MOL   C68449168   3.039   7.135   6.160  0.1267 -0.1311 -0.0477
   63MOL   C68549169   3.165   7.187   6.141 -0.0896 -0.1778  0.3967
   63MOL   H68649170   3.321   7.629   6.231 -1.6010  0.7633 -0.5727
   63MOL   H68749171   3.347   7.788   6.161 -0.5662  0.8054  2.4994
   63MOL   H68849172   3.433   7.763   6.411  1.0424  0.0041  1.7556
   63MOL   H68949173   3.538   7.637   6.343 -0.6799 -0.0138  0.4721
   63MOL   H69049174   3.534   7.921   6.263 -0.2935 -0.5233 -0.3429
   63MOL   H69149175   3.734   7.756   6.422 -0.6445 -0.6893 -2.7665
   63MOL   H69249176   3.772   7.908   6.366  0.5843  0.7269  1.5171
   63MOL   H69349177   3.745   7.866   6.142  0.7345 -1.2069 -2.2235
   63MOL   H69449178   3.743   7.702   6.179 -1.3842 -1.5222  0.0837
   63MOL   H69549179   3.664   7.693   5.978  0.8174  0.2944 -0.3502
   63MOL   H69649180   3.551   7.824   6.005  0.4464  0.8765  1.5926
   63MOL   H69749181   3.557   7.558   6.140  1.8458  2.9164  2.1397
   63MOL   H69849182   3.385   7.653   5.907  0.2885  2.8049  2.0212
   63MOL   H69949183   3.482   7.511   5.917  2.0467  1.1275  1.1515
   63MOL   H70049184   3.076   7.498   6.051 -0.1363  0.1867  0.5422
   63MOL   H70149185   2.852   7.419   6.105  0.5936  0.9662  1.5569
   63MOL   H70249186   3.040   7.028   6.171  0.8245 -0.3571 -2.1194
   63MOL   H70349187   3.254   7.129   6.159 -0.3908 -0.4303  1.0957
   63MOL   C70449188   2.362   6.947   6.557  0.1191  0.4195 -0.1223
   63MOL   C70549189   2.495   6.981   6.485  0.2003 -0.0856  0.3295
   63MOL   C70649190   2.572   6.854   6.449  0.2339 -0.2226 -0.1916
   63MOL   C70749191   2.708   6.902   6.379 -0.1125 -0.4846  0.5407
   63MOL   O70849192   2.675   6.961   6.262  0.0429 -0.1501 -0.4962
   63MOL   C70949193   2.595   6.768   6.574  0.3502 -0.5025  0.0253
   63MOL   C71049194   2.462   6.719   6.633 -0.0732  0.0223 -0.0775
   63MOL   C71149195   2.370   6.841   6.672 -0.3272  0.4319  0.0457
   63MOL   C71249196   2.224   6.800   6.694  0.3228  0.1674  0.3953
   63MOL   O71349197   2.220   6.712   6.807 -0.1085  0.0131  0.4192
   63MOL   C71449198   2.226   6.761   6.929  0.0934  0.3494  0.1431
   63MOL   O71549199   2.216   6.879   6.952 -0.3012  0.2970  0.2027
   63MOL   C71649200   2.232   6.655   7.034  0.1533  0.0335 -0.4013
   63MOL   C71749201   2.283   6.527   7.010 -0.4456  0.7153  0.0012
   63MOL   C71849202   2.259   6.425   7.103 -0.0882  1.0199 -0.2171
   63MOL   C71949203   2.210   6.451   7.232  0.2058  0.5739  0.1118
   63MOL   C72049204   2.216   6.350   7.340 -0.0442  0.4809  0.0090
   63MOL   O72149205   2.241   6.232   7.319  0.4707  0.5880 -0.1220
   63MOL   O72249206   2.183   6.402   7.457  0.1470 -0.5156  0.3448
   63MOL   C72349207   2.169   6.582   7.256  0.4328  0.1497  0.3223
   63MOL   C72449208   2.166   6.677   7.155 -0.2144 -0.4124 -0.7603
   63MOL   H72549209   2.329   7.033   6.614 -0.2749 -0.1671  0.5404
   63MOL   H72649210   2.291   6.916   6.480  0.3641 -2.3908  0.6960
   63MOL   H72749211   2.480   7.036   6.392 -2.2266 -1.9692 -0.4463
   63MOL   H72849212   2.560   7.040   6.549  1.4330 -2.2916  1.1563
   63MOL   H72949213   2.514   6.786   6.387 -1.3455  0.6197  0.3261
   63MOL   H73049214   2.754   6.980   6.440  0.0968  0.5063 -0.8646
   63MOL   H73149215   2.779   6.824   6.353 -0.5532 -0.4666 -0.7585
   63MOL   H73249216   2.665   6.689   6.546  2.4576  1.3901 -0.1806
   63MOL   H73349217   2.641   6.824   6.655 -0.6889  0.2998  0.0818
   63MOL   H73449218   2.489   6.654   6.716  1.1124  0.6352  0.0284
   63MOL   H73549219   2.416   6.657   6.556 -1.8320  0.0598  0.9007
   63MOL   H73649220   2.405   6.885   6.766 -0.8275  0.7283  0.0944
   63MOL   H73749221   2.161   6.888   6.709 -1.5388 -1.2526  1.1002
   63MOL   H73849222   2.176   6.749   6.611 -1.6361  3.3846 -0.5643
   63MOL   H73949223   2.334   6.511   6.916 -1.9963 -1.1864 -0.5593
   63MOL   H74049224   2.292   6.323   7.085  1.5288  1.7398 -1.4982
   63MOL   H74149225   2.131   6.615   7.352  1.3285 -0.7980  1.0124
   63MOL   H74249226   2.107   6.767   7.168  0.3100 -0.1501 -0.1995
   63MOL   C74349227   2.144   5.988   7.910 -0.4554  0.6596  0.3770
   63MOL   C74449228   2.221   6.097   7.840 -0.0195  0.0422 -0.4929
   63MOL   C74549229   2.146   6.142   7.712  0.5845  0.3288 -0.1077
   63MOL   C74649230   2.219   6.256   7.641 -0.3358  0.9017 -0.2847
   63MOL   O74749231   2.121   6.310   7.548  0.0074 -0.5673  0.8288
   63MOL   C74849232   2.144   6.022   7.615 -0.1931 -0.7135  0.1697
   63MOL   C74949233   2.076   5.901   7.681  0.8296  0.2156  0.4342
   63MOL   C75049234   2.141   5.865   7.811  0.6729  0.0461 -0.3931
   63MOL   C75149235   2.058   5.750   7.874 -0.4659  0.4337 -0.7147
   63MOL   O75249236   2.127   5.684   7.975  0.2681 -0.2690 -0.0606
   63MOL   C75349237   2.075   5.581   0.002  0.1093  0.3423  0.4892
   63MOL   O75449238   1.967   5.528   8.013  0.1668 -0.4596  0.1183
   63MOL   C75549239   2.152   5.552   0.121 -0.5302 -0.0224 -0.1712
   63MOL   C75649240   2.109   5.442   0.200  0.6209 -0.1562  0.0844
   63MOL   C75749241   2.188   5.389   0.304  1.1314  0.3853 -0.5579
   63MOL   C75849242   2.314   5.448   0.335 -0.0611  0.3867  1.1498
   63MOL   C75949243   2.396   5.403   0.446 -0.1659  0.0339 -0.6918
   63MOL   O76049244   2.361   5.320   0.526 -0.2588  0.1104  0.1572
   63MOL   O76149245   2.520   5.442   0.447  0.1182 -0.1587 -0.1671
   63MOL   C76249246   2.356   5.560   0.261 -0.4123  0.2850  0.2744
   63MOL   C76349247   2.277   5.611   0.159  0.0025  0.0860 -0.3111
   63MOL   H76449248   2.194   5.956   8.001 -0.8245 -0.2763  0.2632
   63MOL   H76549249   2.036   6.004   7.921 -0.3294  2.5295 -0.9653
   63MOL   H76649250   2.240   6.182   7.906 -1.5639 -0.1025  0.1495
   63MOL   H76749251   2.315   6.062   7.797 -0.6211 -0.2870 -1.5501
   63MOL   H76849252   2.048   6.183   7.737  2.0055  3.0405  1.3121
   63MOL   H76949253   2.243   6.330   7.717 -0.5517 -0.1414  0.8083
   63MOL   H77049254   2.316   6.221   7.605 -0.3738  0.0391  0.4525
   63MOL   H77149255   2.093   6.042   7.520  0.1371 -0.8442 -0.0383
   63MOL   H77249256   2.249   6.001   7.594  0.2985  1.5370  0.3194
   63MOL   H77349257   2.087   5.814   7.616  0.0070  0.7479 -0.4366
   63MOL   H77449258   1.968   5.907   7.696  0.7947 -1.1749  0.7548
   63MOL   H77549259   2.241   5.829   7.786  0.1783  0.8028 -3.7317
   63MOL   H77649260   1.970   5.791   7.922 -1.6263 -1.8679 -0.8144
   63MOL   H77749261   2.023   5.682   7.797 -2.3373  0.2637  0.2596
   63MOL   H77849262   2.017   5.393   0.170  0.8330 -0.5325  0.0457
   63MOL   H77949263   2.160   5.303   0.364 -0.0406  1.7648  0.9024
   63MOL   H78049264   2.452   5.607   0.276  0.4214 -0.9157 -1.1162
   63MOL   H78149265   2.314   5.688   0.093  3.3455  0.7304  2.2077
   63MOL   H78249266   2.565   5.399   0.518  2.0464 -1.4033 -2.0764
   8.03541   8.03541   8.03541
