Control file title. For DL_FIELD 4.10
49956
    1MOL     C1    1   5.910   5.742   7.411 -0.1950  0.0909 -0.0800
    1MOL     C2    2   5.896   5.679   7.551 -0.2281 -0.2746 -0.5169
    1MOL     C3    3   5.961   5.540   7.560 -0.6992 -0.2908 -0.0045
    1MOL     C4    4   5.973   5.491   7.705 -0.5969 -0.3621 -0.9176
    1MOL     C5    5   6.035   5.346   7.701 -0.1041  0.1702  0.2422
    1MOL     C6    6   6.038   5.286   0.115 -0.5117  0.5240  0.0837
    1MOL     H7    7   6.011   5.743   7.369  0.4763  0.5204  1.5108
    1MOL     H8    8   5.833   5.705   7.343 -2.8892  0.1934  2.8124
    1MOL     H9    9   5.963   5.730   7.619  1.6844  1.3555 -3.5585
    1MOL    H10   10   6.058   5.545   7.511 -1.1867  0.6338 -0.8962
    1MOL    H11   11   5.902   5.476   7.495 -0.4628  1.6353 -2.1902
    1MOL    H12   12   5.876   5.477   0.025 -0.1500 -1.5732 -0.3269
    1MOL    H13   13   6.024   5.561   0.045  0.1346  0.4167 -2.2683
    1MOL    H14   14   5.983   5.291   7.623 -1.5588  1.2741  0.3953
    1MOL    H15   15   6.139   5.357   7.670 -0.6668  1.9802 -1.1305
    1MOL    H16   16   6.040   5.177   0.104 -0.5855  0.5213  0.1016
    1MOL    H17   17   5.941   5.309   0.161 -0.8591  2.7239 -1.6756
    1MOL    H18   18   6.125   5.316   0.174  0.3894 -0.5916 -0.6632
    1MOL    H19   19   5.895   5.850   7.415 -1.8803 -0.1090 -0.5681
    1MOL    C20   20   5.742   5.685   7.603 -0.3598  0.9153 -0.6094
    1MOL    C21   21   5.671   5.828   7.609 -0.6805 -0.2842  0.0673
    1MOL    C22   22   5.531   5.799   7.659  0.0773  0.3558  0.4815
    1MOL    C23   23   5.431   5.780   7.537  0.0838 -0.1773 -0.0530
    1MOL    C24   24   5.293   5.739   7.582 -0.4085  0.2456 -0.1131
    1MOL    C25   25   5.275   5.593   7.630 -0.0818  0.1649 -0.8368
    1MOL    H26   26   5.731   5.637   7.700 -1.0167 -0.7184 -1.4813
    1MOL    H27   27   5.678   5.629   7.535 -1.5212  0.8728  0.5010
    1MOL    H28   28   5.666   5.861   7.505  3.4841 -2.2227 -0.8620
    1MOL    H29   29   5.496   5.881   7.721  0.9173  2.3792 -1.6541
    1MOL    H30   30   5.523   5.711   7.723  0.5904  0.7023  1.0214
    1MOL    H31   31   5.467   5.710   7.462 -0.2429 -0.0935 -0.2889
    1MOL    H32   32   5.419   5.882   7.501 -0.7222 -0.0955  0.4284
    1MOL    H33   33   5.258   5.815   7.653 -1.9755 -0.3050 -0.2733
    1MOL    H34   34   5.227   5.770   7.501  3.2848  1.4799 -2.7542
    1MOL    H35   35   5.365   5.541   7.660  0.2126  0.7798 -0.6424
    1MOL    H36   36   5.203   5.597   7.712  0.3139  1.5914 -0.5323
    1MOL    H37   37   5.232   5.530   7.552 -1.8240  1.5918 -1.0678
    1MOL    C38   38   5.746   5.927   7.701  0.3454 -0.2812 -0.1577
    1MOL    C39   39   5.772   6.080   7.664 -0.4132  0.1474  0.3527
    1MOL    C40   40   5.868   6.082   7.539 -0.6224 -0.1051 -0.4047
    1MOL    C41   41   5.944   6.218   7.523 -0.1313  0.1320 -0.4914
    1MOL    C42   42   6.022   6.213   7.388  0.1278  0.4724 -0.4920
    1MOL    C43   43   6.101   6.338   7.363  0.5970 -0.0315 -0.1581
    1MOL    H44   44   5.834   5.867   7.724 -0.1479 -0.9577  0.0014
    1MOL    H45   45   5.702   5.916   0.074  0.8220  0.1347  0.0961
    1MOL    H46   46   5.801   6.135   0.027 -0.0103  2.1426 -0.9808
    1MOL    H47   47   5.949   6.013   7.567 -0.5822  0.4455  0.8821
    1MOL    H48   48   5.813   6.049   7.451 -1.3589 -1.8408  0.6721
    1MOL    H49   49   5.878   6.305   7.528  0.0861  0.3674 -1.6513
    1MOL    H50   50   6.010   6.229   7.609 -0.0992  0.6879 -0.5930
    1MOL    H51   51   6.094   6.131   7.390 -2.1160 -1.5249  0.4277
    1MOL    H52   52   5.954   6.201   7.303  0.1445 -3.9098  0.0002
    1MOL    H53   53   6.170   6.370   7.441  1.4678 -0.7585 -0.6216
    1MOL    H54   54   6.023   6.413   7.349 -0.1164 -1.3410 -3.6593
    1MOL    H55   55   6.165   6.343   7.275  2.0844 -2.1059  0.7760
    1MOL    C56   56   5.646   6.152   7.621 -0.5480  0.0480 -0.3000
    1MOL    C57   57   5.570   6.204   0.011  0.7235  0.0255 -0.2472
    1MOL    C58   58   5.422   6.217   7.701 -0.1720 -0.2677  0.2361
    1MOL    C59   59   5.321   6.257   0.089 -0.7534  0.5899 -0.7386
    1MOL    C60   60   5.170   6.267   0.051 -0.4256  0.1994 -0.2827
    1MOL    C61   61   5.068   6.271   0.170 -1.3785 -0.1671 -0.1972
    1MOL    H62   62   5.660   6.240   7.558 -0.9516  0.5204  0.2714
    1MOL    H63   63   5.594   6.076   7.562  0.9378 -0.5986 -0.8129
    1MOL    H64   64   5.584   6.128   0.087 -1.4739  0.4850  0.6633
    1MOL    H65   65   5.407   6.293   7.623  2.2843 -1.2003 -1.1722
    1MOL    H66   66   5.402   6.117   7.662 -0.8462 -0.2297  0.4795
    1MOL    H67   67   5.359   6.341   0.146  2.8045 -1.2168 -0.2869
    1MOL    H68   68   5.322   6.181   0.168  0.5588  0.6336 -0.6929
    1MOL    H69   69   5.149   6.351   7.713 -0.4884 -0.7695 -1.5357
    1MOL    H70   70   5.141   6.181   7.718 -0.7250  0.0219  0.1098
    1MOL    H71   71   5.103   6.212   0.254  1.3207  3.7064  1.5672
    1MOL    H72   72   5.064   6.369   0.218  2.7364 -0.3555  0.6798
    1MOL    H73   73   4.963   6.248   0.149 -1.7832  2.0546 -0.7435
    1MOL    C74   74   5.616   6.338   0.070 -0.0886  0.3626  0.3507
    1MOL    C75   75   5.678   6.326   0.206 -0.1314  0.5453 -0.4104
    1MOL    C76   76   5.748   6.456   0.246 -0.0171  0.6250 -0.5268
    1MOL    C77   77   5.887   6.490   0.177 -0.1201 -0.1037 -0.4150
    1MOL    C78   78   5.964   6.612   0.215  0.0185 -0.3307  0.3787
    1MOL    C79   79   6.096   6.612   0.145  0.2511 -0.0945  0.2309
    1MOL    H80   80   5.698   6.377   0.010 -0.7458 -0.2039 -0.9424
    1MOL    H81   81   5.540   6.415   0.059  2.0220  2.2279 -1.7110
    1MOL    H82   82   5.754   6.248   0.202 -0.9470 -0.2738 -0.2599
    1MOL    H83   83   5.673   6.535   0.240 -0.6898  0.0827  0.6906
    1MOL    H84   84   5.779   6.441   0.349 -1.1347  0.8145 -0.1538
    1MOL    H85   85   5.937   6.395   0.196  0.9176  0.0477 -2.2783
    1MOL    H86   86   5.871   6.491   0.069 -2.7930 -1.1105 -0.0799
    1MOL    H87   87   5.990   6.607   0.320  1.4089  0.2378  0.0740
    1MOL    H88   88   5.907   6.704   0.204  0.5137 -0.1123 -0.4548
    1MOL    H89   89   6.084   6.634   0.039 -1.2711  0.1044  0.4353
    1MOL    H90   90   6.154   6.698   0.180  1.3372 -0.4708 -0.5947
    1MOL    H91   91   6.157   6.525   0.170 -0.1199 -0.4744 -0.2009
    1MOL    C92   92   5.569   6.284   0.308 -0.1060 -0.2206 -0.9468
    1MOL    C93   93   5.629   6.232   0.443  0.2920  0.0970 -0.3845
    1MOL    C94   94   5.572   6.305   0.565 -0.3137  0.0136  0.0623
    1MOL    C95   95   5.643   6.305   0.701  0.1078 -0.3805  0.1434
    1MOL    C96   96   5.602   6.419   0.796  0.7168  0.4126  0.0339
    1MOL    C97   97   5.679   6.426   0.920 -0.0613  0.6467  0.1791
    1MOL    H98   98   5.522   6.379   0.335 -0.4061 -0.9090  1.0146
    1MOL    H99   99   5.499   6.211   0.269 -0.9816  0.0098  0.1612
    1MOL   H100  100   5.733   6.265   0.443  0.6558 -1.0245 -1.1483
    1MOL   H101  101   5.466   6.284   0.582 -0.0047 -0.6214  1.2584
    1MOL   H102  102   5.570   6.411   0.537 -1.2811 -0.1860 -0.6425
    1MOL   H103  103   5.654   6.215   0.762 -0.4405  0.9390  2.2533
    1MOL   H104  104   5.746   6.329   0.673 -0.3978 -1.3640 -2.6458
    1MOL   H105  105   5.605   6.510   0.737 -0.3279  0.0080 -0.6685
    1MOL   H106  106   5.499   6.397   0.825  0.3690  0.2712 -1.2855
    1MOL   H107  107   5.661   6.333   0.974  0.2633 -0.8547 -2.2049
    1MOL   H108  108   5.785   6.436   0.895 -0.5829  1.5734 -1.7773
    1MOL   H109  109   5.642   6.509   0.980 -0.3210  1.4901 -1.1379
    1MOL   C110  110   5.630   6.076   0.457  0.2481  0.3054 -0.0962
    1MOL   C111  111   5.757   6.025   0.532 -0.3637  0.1410 -0.3939
    1MOL   C112  112   5.877   6.020   0.440  0.4998  0.0786  0.1904
    1MOL   C113  113   6.013   6.006   0.508  0.2223 -0.0443 -0.5483
    1MOL   C114  114   6.138   6.034   0.428  0.5884 -0.3535  0.4220
    1MOL   C115  115   6.254   6.083   0.513  0.1747  0.5224  0.8545
    1MOL   H116  116   5.542   6.050   0.517 -1.0914  1.4787 -1.5132
    1MOL   H117  117   5.616   6.037   0.357 -1.1944  2.1423 -0.6553
    1MOL   H118  118   5.781   6.089   0.616 -0.9353 -2.0264  1.4942
    1MOL   H119  119   5.889   6.111   0.381  0.7583 -0.2989 -0.3463
    1MOL   H120  120   5.861   5.940   0.368  0.2714  0.3381 -0.0440
    1MOL   H121  121   6.031   5.911   0.558  0.7423  1.5351  2.3774
    1MOL   H122  122   6.009   6.088   0.579 -1.0797  0.9966 -1.7854
    1MOL   H123  123   6.109   6.111   0.357 -2.8434 -2.0163 -0.0815
    1MOL   H124  124   6.170   5.942   0.379  0.4827 -0.4333  0.5050
    1MOL   H125  125   6.326   6.119   0.440  1.0565 -2.3458  0.2681
    1MOL   H126  126   6.223   6.174   0.565  0.2067  1.7443 -1.1950
    1MOL   H127  127   6.291   5.997   0.569  2.0017 -0.4704 -1.7670
    1MOL   C128  128   5.746   5.886   0.596 -0.2214  0.6345 -0.9560
    1MOL   C129  129   5.640   5.864   0.709 -0.2024  0.1385  0.0832
    1MOL   C130  130   5.692   5.772   0.821  0.6597  0.7596 -0.9507
    1MOL   C131  131   5.793   5.831   0.926  0.5777  0.2745 -0.0119
    1MOL   C132  132   5.824   5.737   1.046 -0.0986 -0.3668 -0.1294
    1MOL   C133  133   5.883   5.807   1.172 -0.5112  0.0413  0.3528
    1MOL   H134  134   5.840   5.866   0.647 -1.1642  0.6873  0.8175
    1MOL   H135  135   5.732   5.806   0.523  2.2356 -0.5803 -0.1596
    1MOL   H136  136   5.614   5.964   0.745  1.7975  0.9017 -0.5095
    1MOL   H137  137   5.607   5.730   0.875 -0.5948  3.9423 -0.3449
    1MOL   H138  138   5.743   5.685   0.780 -1.2651  0.0667 -1.9606
    1MOL   H139  139   5.743   5.922   0.957 -2.4929 -2.3741  3.2869
    1MOL   H140  140   5.885   5.863   0.878 -0.5544  2.6069 -0.6648
    1MOL   H141  141   5.729   5.694   1.078  1.0303 -1.9528  1.1905
    1MOL   H142  142   5.892   5.661   1.007 -0.1539 -0.8316  0.6659
    1MOL   H143  143   5.832   5.890   1.220 -0.8562 -0.5258  0.9626
    1MOL   H144  144   5.979   5.854   1.151  0.1925 -1.7530 -0.5634
    1MOL   H145  145   5.900   5.735   1.252 -0.0920 -1.0811 -0.7280
    1MOL   C146  146   5.507   5.805   0.653 -0.9382 -0.2053 -0.6180
    1MOL   C147  147   5.371   5.834   0.729  0.3474 -0.2760  0.1858
    1MOL   C148  148   5.255   5.742   0.671 -0.4497  0.0254 -0.0130
    1MOL   C149  149   5.283   5.591   0.672 -0.1520  0.2402 -0.7536
    1MOL   C150  150   5.315   5.539   0.806 -0.3453 -0.3579  0.0938
    1MOL   C151  151   5.293   5.389   0.794 -0.1037  0.5447  0.3229
    1MOL   H152  152   5.495   5.842   0.551  2.6165 -0.3586 -1.1613
    1MOL   H153  153   5.526   5.698   0.638  1.0300 -0.1274  1.0815
    1MOL   H154  154   5.381   5.805   0.834  0.4754  1.3764  0.6514
    1MOL   H155  155   5.242   5.780   0.569 -2.6396  3.3138  1.3999
    1MOL   H156  156   5.161   5.752   0.725  0.8727  1.2838  2.1130
    1MOL   H157  157   5.195   5.549   0.624  0.4915 -0.2551 -1.5162
    1MOL   H158  158   5.365   5.560   0.607  0.3967 -0.0119  0.0489
    1MOL   H159  159   5.252   5.580   0.885  1.1645 -0.5699  1.4455
    1MOL   H160  160   5.417   5.567   0.834  0.2713 -0.1296 -2.3452
    1MOL   H161  161   5.339   5.333   0.876  1.6601  1.4001 -0.0690
    1MOL   H162  162   5.190   5.352   0.796  0.5295 -1.5699 -2.8321
    1MOL   H163  163   5.346   5.339   0.714 -0.5107 -0.4019  0.6271
    1MOL   C164  164   5.331   5.979   0.720  0.3675  0.5153 -0.5965
    1MOL   C165  165   5.238   6.040   0.831  0.2151  0.2206 -0.0101
    1MOL   C166  166   5.312   6.051   0.970  0.6337  0.5294 -0.2009
    1MOL   C167  167   5.440   6.136   0.992  0.2518  0.3222 -0.3739
    1MOL   C168  168   5.481   6.145   1.140 -0.5446  0.6013 -0.0182
    1MOL   C169  169   5.490   6.020   1.223  0.0340 -0.2733  0.4606
    1MOL   H170  170   5.417   6.045   0.726  0.1704  0.5179  4.7181
    1MOL   H171  171   5.297   6.008   0.620  2.2567  0.5899 -1.2281
    1MOL   H172  172   5.159   5.966   0.844 -1.0131  1.5162  0.1316
    1MOL   H173  173   5.329   5.953   1.015 -2.6456  0.4301  1.0367
    1MOL   H174  174   5.242   6.093   1.043  1.8007 -0.3333  1.4484
    1MOL   H175  175   5.441   6.231   0.939  0.0607  0.3130 -0.3941
    1MOL   H176  176   5.524   6.081   0.949 -0.7555 -2.1987  0.7954
    1MOL   H177  177   5.412   6.210   1.193 -0.6891  1.1996 -0.9253
    1MOL   H178  178   5.580   6.190   1.144  0.5053 -1.7164  0.6555
    1MOL   H179  179   5.562   5.956   1.173  0.3583 -1.0995  1.9430
    1MOL   H180  180   5.397   5.964   1.231 -0.2689 -0.0181 -1.1455
    1MOL   H181  181   5.533   6.033   1.323  0.5182  0.8103  0.1264
    1MOL   C182  182   5.189   6.187   0.793  0.2106  0.5559  0.4069
    1MOL   C183  183   5.079   6.188   0.685 -0.2037 -0.3062  0.0744
    1MOL   C184  184   5.084   6.326   0.613  1.1876 -0.1961 -0.1456
    1MOL   C185  185   5.015   6.433   0.694 -0.4282  0.3086  0.2449
    1MOL   C186  186   5.014   6.571   0.618  0.3051  0.4545  0.6211
    1MOL   C187  187   4.918   6.682   0.689 -0.0657 -0.5794  0.3841
    1MOL   H188  188   5.145   6.240   0.878 -0.5914  0.0115  0.3377
    1MOL   H189  189   5.274   6.244   0.756 -0.0458  0.4693 -0.3094
    1MOL   H190  190   5.092   6.107   0.614  0.5100  0.1565 -0.3206
    1MOL   H191  191   5.189   6.344   0.590  0.8408  0.7404 -1.0325
    1MOL   H192  192   5.037   6.309   0.516 -1.2359 -1.5622  1.2172
    1MOL   H193  193   5.081   6.454   0.778 -0.1206 -1.2645  0.4061
    1MOL   H194  194   4.917   6.405   0.731 -0.6722 -3.2471 -2.8283
    1MOL   H195  195   4.960   6.548   0.527 -0.1469 -0.6673  1.1593
    1MOL   H196  196   5.110   6.615   0.594  0.7892 -0.5060  0.7759
    1MOL   H197  197   4.931   6.779   0.641 -0.3990 -0.9826 -0.5357
    1MOL   H198  198   4.956   6.691   0.791 -2.4806  2.9086  1.0560
    1MOL   H199  199   4.814   6.647   0.691 -0.3001 -0.0856 -1.7427
    1MOL   C200  200   4.942   6.151   0.749  0.4636 -0.6184 -0.6091
    1MOL   C201  201   4.821   6.135   0.649  0.1910  0.2515  0.0971
    1MOL   C202  202   4.852   6.038   0.534  0.4607  0.1089 -0.0556
    1MOL   C203  203   4.910   5.904   0.576  0.0524  0.4165  0.0678
    1MOL   C204  204   4.950   5.808   0.461  0.3027 -0.3428  0.1681
    1MOL   C205  205   5.055   5.855   0.364 -0.4921  0.4954 -0.8380
    1MOL   H206  206   4.910   6.222   0.825  0.7006  0.3355 -1.3842
    1MOL   H207  207   4.961   6.059   0.803  1.1054 -0.1367 -0.0028
    1MOL   H208  208   4.804   6.230   0.600 -1.5210 -1.2860 -2.3807
    1MOL   H209  209   4.912   6.082   0.455 -0.3102  0.7895 -0.2681
    1MOL   H210  210   4.758   6.020   0.482 -0.8787  2.4273  1.4942
    1MOL   H211  211   4.834   5.846   0.629  1.2203  2.1493  3.8003
    1MOL   H212  212   4.989   5.922   0.648 -0.1708 -0.4431  0.5375
    1MOL   H213  213   4.855   5.790   0.410  0.1656 -0.8692  0.6109
    1MOL   H214  214   4.986   5.717   0.506  0.3926  0.1262  1.0481
    1MOL   H215  215   5.145   5.887   0.415 -1.1781  1.6043 -0.3081
    1MOL   H216  216   5.081   5.782   0.287 -0.6401  0.1138 -0.5256
    1MOL   H217  217   5.018   5.945   0.316  2.9831  1.2536 -2.2479
    1MOL   C218  218   4.701   6.104   0.737 -0.3720  0.0282 -0.6844
    1MOL   C219  219   4.556   6.100   0.684 -1.2126  0.1655  0.1609
    1MOL   C220  220   4.508   6.245   0.680  0.7856  0.2810 -0.2907
    1MOL   C221  221   4.399   6.272   0.575 -0.1374 -0.1036 -0.0566
    1MOL   C222  222   4.338   6.407   0.601 -0.1775 -0.2246 -0.4317
    1MOL   C223  223   4.231   6.452   0.493 -0.6502  0.0592  0.2173
    1MOL   H224  224   4.726   6.009   0.784  0.9403  0.3070 -0.8078
    1MOL   H225  225   4.698   6.158   0.831  0.5868 -1.1646  0.0403
    1MOL   H226  226   4.552   6.065   0.581  0.9119  1.3318 -0.3444
    1MOL   H227  227   4.588   6.310   0.645  0.8157  0.9676  1.0214
    1MOL   H228  228   4.476   6.279   0.779  0.5602 -1.6992  0.3505
    1MOL   H229  229   4.324   6.193   0.579  0.1022 -0.2648  1.5685
    1MOL   H230  230   4.432   6.272   0.471 -1.8310  0.9465 -0.6099
    1MOL   H231  231   4.298   6.398   0.702  2.6845 -0.3893  0.7401
    1MOL   H232  232   4.419   6.479   0.596  0.4317 -1.0250 -2.2343
    1MOL   H233  233   4.143   6.387   0.490 -0.0085 -0.9148  1.7690
    1MOL   H234  234   4.276   6.460   0.395 -1.2938 -0.6724 -0.1489
    1MOL   H235  235   4.196   6.554   0.508  0.8005  0.8824 -1.8899
    1MOL   C236  236   4.465   6.007   0.774 -0.2951  0.1483  0.9642
    1MOL   C237  237   4.420   5.874   0.704  0.3028 -0.0405  0.2033
    1MOL   C238  238   4.314   5.808   0.792 -0.0237  0.3066  0.3762
    1MOL   C239  239   4.184   5.889   0.772  0.0808 -0.2036 -0.0881
    1MOL   C240  240   4.068   5.862   0.876 -0.4004  0.4847  0.0741
    1MOL   C241  241   4.035   5.713   0.905 -0.7745 -0.3625 -0.2980
    1MOL   H242  242   4.517   5.982   0.867  0.0449 -1.4536  0.3552
    1MOL   H243  243   4.385   6.063   0.822  0.5695  0.4713  2.0414
    1MOL   H244  244   4.370   5.904   0.612 -1.5705 -3.5720 -0.0366
    1MOL   H245  245   4.303   5.705   0.758 -0.8344  0.2167  0.8861
    1MOL   H246  246   4.340   5.807   0.898 -0.4733 -1.6438  0.4931
    1MOL   H247  247   4.144   5.871   0.672  0.5654 -1.5315 -0.0497
    1MOL   H248  248   4.200   5.996   0.764  1.9626 -0.4787 -0.1096
    1MOL   H249  249   4.078   5.913   0.972 -2.6989  2.5367 -0.7262
    1MOL   H250  250   3.971   5.896   0.840 -0.0875  0.5432 -0.7354
    1MOL   H251  251   4.118   5.666   0.957  0.0707 -0.3914 -1.6758
    1MOL   H252  252   3.946   5.700   0.968  0.1944 -2.2633  0.7113
    1MOL   H253  253   4.016   5.652   0.817 -4.6714  0.5999 -0.2473
    1MOL   C254  254   4.548   5.796   0.686 -0.1014 -0.5652 -0.0715
    1MOL   C255  255   4.536   5.653   0.618  0.0518  0.8915 -0.2907
    1MOL   C256  256   4.661   5.568   0.655 -0.0389 -0.4190  0.7039
    1MOL   C257  257   4.656   5.515   0.798 -0.2825 -0.3861  0.4402
    1MOL   C258  258   4.779   5.430   0.835 -0.3392  0.0608 -0.2682
    1MOL   C259  259   4.905   5.507   0.849  0.3471 -0.0427  0.5543
    1MOL   H260  260   4.599   5.781   0.782  2.6688  0.5896 -1.3177
    1MOL   H261  261   4.623   5.854   0.633 -1.4303 -0.6887 -2.1051
    1MOL   H262  262   4.451   5.597   0.657  2.3389 -1.8940  0.8711
    1MOL   H263  263   4.679   5.480   0.593  0.2052 -0.1517  0.3938
    1MOL   H264  264   4.750   5.626   0.630 -0.6614  0.0926 -0.3508
    1MOL   H265  265   4.644   5.596   0.870  0.0327  0.1076 -0.0579
    1MOL   H266  266   4.562   5.461   0.802 -2.1438  2.5470 -1.6368
    1MOL   H267  267   4.791   5.352   0.759 -1.7933  1.1953 -1.7028
    1MOL   H268  268   4.764   5.381   0.931  0.3619  1.6704  0.6767
    1MOL   H269  269   4.954   5.519   0.752 -1.0526 -0.0170 -0.1560
    1MOL   H270  270   4.980   5.448   0.902  1.3664  0.7577  0.0424
    1MOL   H271  271   4.889   5.605   0.893 -1.3403 -0.3135  0.5548
    1MOL   C272  272   4.509   5.667   0.476 -0.3494 -0.3250 -0.2903
    1MOL   C273  273   4.442   5.541   0.410  0.3730  0.1677  0.1725
    1MOL   C274  274   4.437   5.543   0.259 -0.7029 -1.0083  0.2267
    1MOL   C275  275   4.575   5.494   0.204 -0.3191  0.0558  0.0478
    1MOL   C276  276   4.578   5.488   0.054  0.2806 -0.1309  0.5788
    1MOL   C277  277   4.712   5.443   7.715  0.8194  0.2917 -0.3801
    1MOL   H278  278   4.449   5.754   0.448  2.1738  1.2181 -1.1961
    1MOL   H279  279   4.604   5.687   0.425 -3.0608  2.8336 -4.4049
    1MOL   H280  280   4.500   5.453   0.440  0.0613 -0.6151 -1.4976
    1MOL   H281  281   4.410   5.640   0.218 -0.1250 -2.1253 -2.9947
    1MOL   H282  282   4.366   5.472   0.216  0.5274 -1.1878 -1.5776
    1MOL   H283  283   4.602   5.397   0.246  0.3090  0.5418  0.7831
    1MOL   H284  284   4.664   5.554   0.218 -0.2186  0.3653 -1.7744
    1MOL   H285  285   4.504   5.411   0.033 -0.3157 -0.1127  2.5199
    1MOL   H286  286   4.541   5.582   0.013  2.3935  0.3739 -0.2307
    1MOL   H287  287   4.745   5.349   0.029  2.9725  1.3646  0.3926
    1MOL   H288  288   4.702   5.442   7.606 -0.9005  2.0303 -0.2749
    1MOL   H289  289   4.793   5.511   0.015 -0.6938  0.9421  2.6747
    1MOL   C290  290   4.298   5.504   0.471 -0.2507 -0.2937  0.6408
    1MOL   C291  291   4.289   5.376   0.563 -0.6470  0.9935  0.6497
    1MOL   C292  292   4.184   5.394   0.670 -0.4464  0.2057 -0.1576
    1MOL   C293  293   4.054   5.467   0.619 -0.6328  0.2456 -0.3994
    1MOL   C294  294   3.928   5.434   0.694 -0.0382  0.5625  0.0103
    1MOL   C295  295   3.817   5.526   0.654  0.5993 -0.7285  0.5747
    1MOL   H296  296   4.224   5.477   0.396  0.1963  1.2357 -0.3766
    1MOL   H297  297   4.269   5.597   0.521  1.0305  0.4553  0.0303
    1MOL   H298  298   4.387   5.380   0.610  0.0382  1.7427 -0.8027
    1MOL   H299  299   4.223   5.450   0.755 -1.5473  0.2687  0.3165
    1MOL   H300  300   4.156   5.300   0.718  3.6004 -0.4950  0.9932
    1MOL   H301  301   4.073   5.574   0.621 -2.2964  0.5424 -0.5379
    1MOL   H302  302   4.036   5.448   0.513 -1.5600 -1.9714  0.1222
    1MOL   H303  303   3.940   5.427   0.803  1.0437 -2.4567 -0.2641
    1MOL   H304  304   3.905   5.334   0.659 -0.7729  0.4711  0.7247
    1MOL   H305  305   3.797   5.509   0.548  0.1211 -2.2873  0.9080
    1MOL   H306  306   3.835   5.633   0.667 -1.4886  0.1012 -2.7014
    1MOL   H307  307   3.725   5.506   0.710 -0.9648 -0.0696 -1.6690
    1MOL   C308  308   4.278   5.248   0.479 -0.6241  0.1830  0.8267
    1MOL   C309  309   4.326   5.125   0.555  0.7185  0.0265 -0.1589
    1MOL   C310  310   4.477   5.126   0.580  0.2841 -0.0782  0.4248
    1MOL   C311  311   4.577   5.143   0.454  0.8338  1.4913 -0.0326
    1MOL   C312  312   4.720   5.140   0.483 -0.3447  0.1798 -0.3949
    1MOL   C313  313   4.752   5.029   0.582 -0.0571 -0.3105 -0.2641
    1MOL   H314  314   4.171   5.237   0.465 -0.4108  0.7839 -1.5358
    1MOL   H315  315   4.327   5.259   0.382  0.2075 -0.7789  1.1255
    1MOL   H316  316   4.275   5.131   0.651  1.3390  1.8873  0.0815
    1MOL   H317  317   4.504   5.037   0.637 -1.0722 -0.2041  0.8936
    1MOL   H318  318   4.502   5.204   0.651 -4.6991  0.5165  1.7468
    1MOL   H319  319   4.551   5.237   0.405  0.7068  1.2255 -0.4772
    1MOL   H320  320   4.560   5.070   0.376  0.2874  2.2992 -0.6752
    1MOL   H321  321   4.775   5.124   0.390 -2.3001 -1.1360 -1.3566
    1MOL   H322  322   4.763   5.230   0.526  2.8354 -1.3544 -0.2051
    1MOL   H323  323   4.720   5.064   0.680 -0.3739 -0.0007 -0.4751
    1MOL   H324  324   4.860   5.017   0.587  0.3506  3.2189  1.2031
    1MOL   H325  325   4.703   4.934   0.565 -0.2477 -0.8680  3.0868
    1MOL   C326  326   4.281   4.994   0.493 -0.2022  0.3423 -0.0008
    1MOL   C327  327   4.129   4.966   0.511 -0.3705  0.5998 -0.0540
    1MOL   C328  328   4.058   4.969   0.375 -0.5866  0.2346  0.6287
    1MOL   C329  329   3.903   4.961   0.380  0.2728  0.0724  0.1486
    1MOL   C330  330   3.831   5.081   0.459  0.0902  0.1294  0.4115
    1MOL   C331  331   3.848   5.225   0.399  0.1337 -0.6260 -0.2772
    1MOL   H332  332   4.341   4.912   0.534  1.7610  1.9095  0.3808
    1MOL   H333  333   4.312   4.979   0.390  1.6719  0.8452  0.4567
    1MOL   H334  334   4.096   5.046   0.577  0.5139  0.7685  0.1889
    1MOL   H335  335   4.074   5.067   0.328  0.2288  0.2421  0.9035
    1MOL   H336  336   4.097   4.889   0.312  0.1041  0.8326  0.2812
    1MOL   H337  337   3.860   4.868   0.418  0.1131 -0.5596 -1.5258
    1MOL   H338  338   3.863   4.964   0.278  0.8985 -0.6599 -0.1272
    1MOL   H339  339   3.722   5.070   0.454 -0.0357  1.3033  0.5597
    1MOL   H340  340   3.865   5.085   0.562  2.0461 -0.7354 -0.1851
    1MOL   H341  341   3.799   5.237   0.303 -0.3785 -3.6155 -0.4410
    1MOL   H342  342   3.953   5.255   0.393 -0.0301  0.3245  1.2127
    1MOL   H343  343   3.799   5.298   0.463 -1.5215 -2.4305  0.5653
    1MOL   C344  344   4.097   4.833   0.584  0.1825 -0.3990  0.0260
    1MOL   C345  345   4.149   4.812   0.728 -0.1640 -0.2415  1.5973
    1MOL   C346  346   4.116   4.666   0.781  0.1643 -0.1580  0.0839
    1MOL   C347  347   4.140   4.638   0.933 -0.2142 -0.2757  0.0532
    1MOL   C348  348   4.143   4.487   0.973  0.2675  0.0669 -0.0710
    1MOL   C349  349   4.180   4.453   1.120 -0.5066 -0.5069 -0.2218
    1MOL   H350  350   3.988   4.840   0.580  0.2257  0.0212 -0.4501
    1MOL   H351  351   4.137   4.745   0.534  3.2410 -0.7690  2.9473
    1MOL   H352  352   4.125   4.894   0.796 -1.7655 -0.2488  1.0593
    1MOL   H353  353   4.014   4.638   0.755  0.8204  0.8551 -3.9715
    1MOL   H354  354   4.176   4.598   0.720  0.6893  1.0344 -0.7452
    1MOL   H355  355   4.239   4.676   0.958 -0.0327  1.0809 -2.6287
    1MOL   H356  356   4.063   4.686   0.993 -0.1204  1.3117 -1.0876
    1MOL   H357  357   4.049   4.443   0.942  0.0324 -0.4719  1.3281
    1MOL   H358  358   4.226   4.450   0.913 -0.2197  2.5344 -2.3499
    1MOL   H359  359   4.111   4.484   1.199  0.8401 -1.5550  1.3868
    1MOL   H360  360   4.197   4.346   1.119  1.6283 -0.1854 -2.0731
    1MOL   H361  361   4.279   4.490   1.147 -0.2811 -1.5624  0.4109
    1MOL   H362  362   4.257   4.818   0.716 -0.3995 -0.5388 -0.9830
    2MOL     C1  363   0.829   5.963   6.996  0.6358 -0.2055  0.7798
    2MOL     C2  364   0.820   5.826   7.062 -0.5600  0.0010  0.6327
    2MOL     C3  365   0.937   5.808   7.162  0.1148 -0.0019 -0.6501
    2MOL     C4  366   0.886   5.755   7.294 -0.7984 -0.0187  0.4593
    2MOL     C5  367   0.973   5.775   7.416 -0.4509  0.7028 -0.0229
    2MOL     C6  368   0.934   5.698   7.542  0.3945  0.1785  0.1951
    2MOL     H7  369   0.924   5.977   6.944  0.4627 -0.2086  0.4625
    2MOL     H8  370   0.752   5.976   6.920  1.7839  1.9592 -0.0803
    2MOL     H9  371   0.722   5.830   7.109 -1.1566  0.9457 -0.6761
    2MOL    H10  372   1.006   5.891   7.176 -0.6529  0.6246 -0.4974
    2MOL    H11  373   1.015   5.741   7.125 -1.5978 -3.8495  2.3358
    2MOL    H12  374   0.875   5.646   7.292 -1.5917  0.0897 -1.5122
    2MOL    H13  375   0.787   5.780   7.329 -0.9058 -1.7241  1.4448
    2MOL    H14  376   1.070   5.728   7.398 -1.1706 -1.1262  0.7419
    2MOL    H15  377   0.990   5.881   7.437 -1.6964  0.7881  0.6349
    2MOL    H16  378   0.929   5.590   7.530 -0.1046  0.2966 -0.7860
    2MOL    H17  379   0.834   5.738   7.559  0.6348  1.0625 -0.4001
    2MOL    H18  380   0.997   5.721   7.627 -1.2853  3.0765  0.7286
    2MOL    H19  381   0.814   6.048   7.062 -1.3185 -0.3126  0.4871
    2MOL    C20  382   0.808   5.726   6.941 -1.0196 -0.2991  0.1976
    2MOL    C21  383   0.778   5.579   6.973  0.4283 -0.3931  0.2197
    2MOL    C22  384   0.660   5.539   7.063 -0.2564 -0.4057  0.8183
    2MOL    C23  385   0.681   5.396   7.118  0.5516 -0.1263 -0.2722
    2MOL    C24  386   0.589   5.367   7.242 -0.5413  0.4504  0.3290
    2MOL    C25  387   0.641   5.424   7.374  0.4757  0.2315  0.6527
    2MOL    H26  388   0.898   5.738   6.881 -0.6256  0.7728  0.9782
    2MOL    H27  389   0.727   5.762   6.876 -1.8908 -1.9766  0.3465
    2MOL    H28  390   0.867   5.544   7.024  1.8223  1.4112 -0.9248
    2MOL    H29  391   0.569   5.560   7.007  0.0562  2.6542  1.3461
    2MOL    H30  392   0.655   5.611   7.145 -2.3064  1.8816 -1.2142
    2MOL    H31  393   0.777   5.361   7.153 -1.5390 -3.3683  2.5512
    2MOL    H32  394   0.655   5.322   7.041 -1.5713  0.0650  0.2291
    2MOL    H33  395   0.489   5.405   7.218 -1.3567 -1.4497  0.6138
    2MOL    H34  396   0.590   5.259   7.252  4.1029  0.2867 -0.8250
    2MOL    H35  397   0.579   5.415   7.464 -0.1780 -1.4925  0.0421
    2MOL    H36  398   0.738   5.382   7.400  0.2324 -0.4747  0.4248
    2MOL    H37  399   0.665   5.529   7.362 -0.5433  0.2968 -0.8946
    2MOL    C38  400   0.770   5.496   6.839 -0.2731 -0.2770 -1.0058
    2MOL    C39  401   0.890   5.487   6.743  0.5090  0.2827 -0.0095
    2MOL    C40  402   1.025   5.416   6.794  0.0685  0.4773  0.0457
    2MOL    C41  403   1.004   5.273   6.856 -0.3526 -0.3385  0.6606
    2MOL    C42  404   1.129   5.226   6.933  0.1271 -0.6831  0.1821
    2MOL    C43  405   1.098   5.128   7.039 -0.1421  0.6052 -0.1039
    2MOL    H44  406   0.686   5.531   6.779 -0.8524  2.3098  1.2253
    2MOL    H45  407   0.739   5.393   6.854 -1.9851  0.2701 -0.6942
    2MOL    H46  408   0.917   5.590   6.723 -1.8928  1.1845  1.2635
    2MOL    H47  409   1.100   5.420   6.714  2.1031  0.0608  1.8884
    2MOL    H48  410   1.056   5.481   6.875 -1.1822  0.5503  0.4706
    2MOL    H49  411   0.911   5.273   6.913 -1.2239 -0.3551 -0.7370
    2MOL    H50  412   0.982   5.199   6.779 -0.2751  0.4839 -0.1623
    2MOL    H51  413   1.217   5.206   6.872  1.3990  3.4967  0.4926
    2MOL    H52  414   1.161   5.319   6.979 -0.0815  0.5075 -1.9888
    2MOL    H53  415   1.173   5.121   7.118 -1.6189 -0.5761  1.2290
    2MOL    H54  416   1.083   5.028   6.998  0.6510 -0.1689  1.4228
    2MOL    H55  417   1.009   5.154   7.095 -1.6037 -1.9815 -1.1330
    2MOL    C56  418   0.857   5.437   6.601  0.3850 -0.4124  0.0847
    2MOL    C57  419   0.917   5.521   6.484  0.2188  0.0016  0.3217
    2MOL    C58  420   0.825   5.643   6.448 -0.3911 -0.3419 -0.0159
    2MOL    C59  421   0.882   5.752   6.355  0.0167  0.4959 -0.7681
    2MOL    C60  422   0.803   5.885   6.375  0.1666  0.1663  0.6065
    2MOL    C61  423   0.821   5.980   6.258  0.1291 -0.8319 -0.4932
    2MOL    H62  424   0.901   5.337   6.597  0.1352 -0.5237  0.1825
    2MOL    H63  425   0.750   5.431   6.586  0.4742  1.3663 -1.4583
    2MOL    H64  426   1.014   5.564   6.512 -0.2660  0.0686  1.9501
    2MOL    H65  427   0.728   5.607   6.413 -0.4961  1.4589 -1.6922
    2MOL    H66  428   0.800   5.683   6.546 -1.2800 -1.6502  0.3052
    2MOL    H67  429   0.881   5.730   6.248 -0.9018  1.5999 -0.9893
    2MOL    H68  430   0.986   5.777   6.372  0.2437  0.8176 -2.5103
    2MOL    H69  431   0.698   5.858   6.375 -0.2544  1.5388 -2.4132
    2MOL    H70  432   0.825   5.939   6.467  0.7600  0.9966 -0.0087
    2MOL    H71  433   0.751   6.063   6.253  0.6755 -0.1787  1.9803
    2MOL    H72  434   0.923   6.018   6.263  0.2142 -1.2957  4.1567
    2MOL    H73  435   0.814   5.923   6.166 -1.5941  1.0906 -1.5890
    2MOL    C74  436   0.935   5.431   6.364  0.3143 -0.0583 -0.2972
    2MOL    C75  437   1.085   5.387   6.342 -0.6096 -0.0024  0.0295
    2MOL    C76  438   1.113   5.284   6.237  0.7833  0.9750 -0.4137
    2MOL    C77  439   1.017   5.165   6.251  0.4377 -0.3535  0.3462
    2MOL    C78  440   1.062   5.030   6.196  0.4717 -0.2514 -0.0175
    2MOL    C79  441   1.068   5.030   6.046  0.2166 -1.0697 -0.8939
    2MOL    H80  442   0.863   5.351   6.352  1.5786 -0.9482 -2.3480
    2MOL    H81  443   0.895   5.489   6.281  0.2132 -0.9101 -0.8469
    2MOL    H82  444   1.110   5.349   6.441 -0.1780  0.7616  0.2200
    2MOL    H83  445   1.095   5.322   6.137  1.8785 -2.0132 -1.8126
    2MOL    H84  446   1.219   5.259   6.245 -0.1207 -3.0468 -0.0348
    2MOL    H85  447   1.003   5.136   6.355  0.8030  0.3719  0.5990
    2MOL    H86  448   0.919   5.192   6.210 -0.3993 -3.5317  0.1134
    2MOL    H87  449   0.994   4.954   6.234  0.5633 -1.4414 -2.1401
    2MOL    H88  450   1.161   5.009   6.235  0.5632 -0.1375 -0.1834
    2MOL    H89  451   1.085   4.927   6.016  1.5025 -0.7055 -1.4507
    2MOL    H90  452   0.975   5.065   6.000  0.3914  0.5309 -0.0537
    2MOL    H91  453   1.144   5.093   5.999 -0.3340 -0.2879 -0.7618
    2MOL    C92  454   1.175   5.513   6.314 -0.1432 -0.0796  0.5403
    2MOL    C93  455   1.326   5.504   6.337  0.3196  0.3195 -0.7350
    2MOL    C94  456   1.405   5.606   6.247  0.3171  0.0161  0.1250
    2MOL    C95  457   1.363   5.753   6.251  0.5503  0.3974  0.4091
    2MOL    C96  458   1.419   5.842   6.137 -0.8602  0.1474  0.6364
    2MOL    C97  459   1.557   5.901   6.151  0.8174  0.1534 -0.6009
    2MOL    H98  460   1.151   5.542   6.211  2.0119 -1.2050 -0.3186
    2MOL    H99  461   1.152   5.605   6.367 -0.7434  0.9802 -1.4739
    2MOL   H100  462   1.353   5.401   6.312 -0.1799  0.2314 -0.9191
    2MOL   H101  463   1.388   5.569   6.146 -0.2748  3.4288 -1.0698
    2MOL   H102  464   1.511   5.608   6.272  0.2913  1.9781  0.1418
    2MOL   H103  465   1.255   5.756   6.238  0.2038 -3.3158  2.0273
    2MOL   H104  466   1.380   5.800   6.348 -0.2846  0.9684  0.2882
    2MOL   H105  467   1.422   5.786   6.043  0.8860 -0.6496  1.1589
    2MOL   H106  468   1.357   5.931   6.123 -0.3444  0.4475  0.2731
    2MOL   H107  469   1.580   5.962   6.063 -2.8986  1.4662 -0.7402
    2MOL   H108  470   1.567   5.973   6.232 -0.5657  0.8071 -0.9962
    2MOL   H109  471   1.627   5.818   6.158 -0.8909 -1.3579 -1.0801
    2MOL   C110  472   1.348   5.513   6.496 -0.1440  0.1020 -1.1388
    2MOL   C111  473   1.492   5.484   6.549  0.5913 -0.0672 -0.2800
    2MOL   C112  474   1.526   5.327   6.540  0.3186  0.3312 -0.3826
    2MOL   C113  475   1.682   5.297   6.540  0.0329 -0.7049  0.3514
    2MOL   C114  476   1.708   5.150   6.522  0.2835  0.5757 -0.0436
    2MOL   C115  477   1.681   5.107   6.375  0.6908  1.0322 -0.0359
    2MOL   H116  478   1.305   5.609   6.523 -1.7712 -0.5515 -1.3575
    2MOL   H117  479   1.285   5.436   6.541  0.4065  0.1048 -0.3549
    2MOL   H118  480   1.559   5.533   6.478 -1.7198  1.1244 -1.7318
    2MOL   H119  481   1.483   5.290   6.447  0.3609 -0.2662 -0.1641
    2MOL   H120  482   1.468   5.274   6.615 -1.0654 -0.8525 -2.2448
    2MOL   H121  483   1.729   5.323   6.635  1.7996 -3.0029  0.1511
    2MOL   H122  484   1.718   5.358   6.458 -1.2953  0.5095  0.6494
    2MOL   H123  485   1.632   5.097   6.579 -0.3059  1.9075  0.4400
    2MOL   H124  486   1.810   5.127   6.554 -0.0156 -2.6008 -1.2028
    2MOL   H125  487   1.576   5.124   6.349  0.3187 -2.2492 -0.9578
    2MOL   H126  488   1.736   5.166   6.302 -1.2653  0.0066 -2.4234
    2MOL   H127  489   1.693   4.999   6.364 -0.8677  0.2780  4.7014
    2MOL   C128  490   1.520   5.551   6.685 -0.3814 -1.0833 -0.3857
    2MOL   C129  491   1.609   5.678   6.683 -0.5931  0.0734  0.4666
    2MOL   C130  492   1.748   5.649   6.622  0.0552  0.1385  0.1114
    2MOL   C131  493   1.814   5.766   6.555 -0.0686 -0.1054 -0.1893
    2MOL   C132  494   1.934   5.735   6.462 -0.4960 -0.9102 -0.4851
    2MOL   C133  495   1.886   5.687   6.325  0.5580  0.1374  0.4775
    2MOL   H134  496   1.568   5.477   6.750  1.0157  1.3412  1.4134
    2MOL   H135  497   1.428   5.572   6.740  0.7109  3.0246 -0.0107
    2MOL   H136  498   1.560   5.753   6.621  0.8730  0.6115 -0.0615
    2MOL   H137  499   1.816   5.607   6.696  0.9870 -0.3593 -1.0110
    2MOL   H138  500   1.743   5.574   6.544  2.0492  0.3926 -0.2936
    2MOL   H139  501   1.859   5.830   6.631  1.7496 -1.2369 -0.2777
    2MOL   H140  502   1.743   5.824   6.496 -0.8356  0.8795  1.6690
    2MOL   H141  503   1.995   5.826   6.454 -0.1713 -0.9723  1.2033
    2MOL   H142  504   1.999   5.659   6.504  0.6715 -0.5129 -1.5252
    2MOL   H143  505   1.822   5.769   6.293 -1.1671 -0.9559  1.0275
    2MOL   H144  506   1.837   5.590   6.329  0.1265  0.3141 -0.5045
    2MOL   H145  507   1.967   5.684   6.252  0.4937  0.6763  0.3847
    2MOL   C146  508   1.622   5.750   6.819 -0.2126  0.2565  0.6293
    2MOL   C147  509   1.487   5.784   6.891 -0.1907 -0.0572  0.1323
    2MOL   C148  510   1.400   5.882   6.810 -0.3533 -0.1688  0.0175
    2MOL   C149  511   1.267   5.811   6.778 -0.7398 -0.0044  0.2504
    2MOL   C150  512   1.173   5.913   6.716  0.3966  0.2371  0.2598
    2MOL   C151  513   1.084   5.859   6.609  0.5957  0.3900 -0.2287
    2MOL   H152  514   1.689   5.707   6.894 -0.7846 -1.3527  0.2225
    2MOL   H153  515   1.675   5.843   6.799 -0.6900  0.2332 -0.8020
    2MOL   H154  516   1.429   5.694   6.907 -0.3150 -0.1852 -0.9989
    2MOL   H155  517   1.462   5.916   6.727 -1.0848 -1.5613 -1.1154
    2MOL   H156  518   1.381   5.971   6.870  0.5855  0.7487 -1.0073
    2MOL   H157  519   1.283   5.726   6.712 -0.6745  1.3965 -1.5823
    2MOL   H158  520   1.220   5.777   6.870  1.8725  2.7147  2.6806
    2MOL   H159  521   1.220   6.008   6.688  0.2665 -0.3025 -1.8223
    2MOL   H160  522   1.111   5.939   6.802  1.6437  0.5795  1.0719
    2MOL   H161  523   1.124   5.772   6.557 -0.2032 -1.2696  1.8723
    2MOL   H162  524   0.997   5.825   6.665 -2.1709 -1.4934 -5.2917
    2MOL   H163  525   1.049   5.929   6.532 -0.6093  2.7529  2.3789
    2MOL   C164  526   1.518   5.847   7.030  0.3011 -0.3016 -0.3728
    2MOL   C165  527   1.406   5.820   7.136 -1.0686 -0.4812  0.1500
    2MOL   C166  528   1.406   5.665   7.170 -0.1529 -0.2839 -0.2883
    2MOL   C167  529   1.265   5.603   7.171 -0.0760  0.1689  0.1891
    2MOL   C168  530   1.252   5.467   7.247  0.0133  0.1169  0.9329
    2MOL   C169  531   1.107   5.412   7.279 -0.1486  0.3538  0.1642
    2MOL   H170  532   1.609   5.823   7.086  0.6613 -0.8186 -1.1705
    2MOL   H171  533   1.537   5.954   7.024 -0.1793 -0.3160 -2.3621
    2MOL   H172  534   1.317   5.854   7.084 -0.7719 -1.6499 -1.1528
    2MOL   H173  535   1.462   5.652   7.263  0.8609  1.2805 -0.6575
    2MOL   H174  536   1.471   5.604   7.107 -0.3084 -0.3740 -0.3624
    2MOL   H175  537   1.219   5.594   7.073 -2.0151  2.3360  0.8638
    2MOL   H176  538   1.208   5.668   7.237  3.0754  0.9795  2.2378
    2MOL   H177  539   1.304   5.482   7.342 -0.2742  1.5733  0.8609
    2MOL   H178  540   1.317   5.403   7.187 -0.6753 -0.8112  1.1454
    2MOL   H179  541   1.063   5.371   7.187 -4.0206  1.1311  1.5916
    2MOL   H180  542   1.048   5.486   7.332  1.4831  1.5988  0.2801
    2MOL   H181  543   1.113   5.326   7.346 -0.4410  1.5180  1.6879
    2MOL   C182  544   1.424   5.913   7.264 -0.6312  0.8987 -0.5741
    2MOL   C183  545   1.308   5.998   7.303 -0.0345 -0.5424 -0.5992
    2MOL   C184  546   1.270   6.102   7.199  0.2128 -0.8027  0.0614
    2MOL   C185  547   1.145   6.182   7.239 -0.1310 -0.0487  0.2811
    2MOL   C186  548   1.074   6.235   7.115  0.0429  0.7662  0.3509
    2MOL   C187  549   0.941   6.315   7.140  0.7702  0.0256  0.6511
    2MOL   H188  550   1.448   5.849   7.349  2.5066  3.0339  0.2205
    2MOL   H189  551   1.515   5.974   7.263 -0.6240  1.0993  3.2624
    2MOL   H190  552   1.221   5.933   7.300  0.4708 -1.2791  0.1539
    2MOL   H191  553   1.351   6.173   7.182 -1.1898  1.3735  2.0435
    2MOL   H192  554   1.252   6.050   7.105 -0.5835 -2.3466  1.0625
    2MOL   H193  555   1.174   6.262   7.307  0.2367  0.2551 -0.2291
    2MOL   H194  556   1.079   6.112   7.291  0.8170 -0.7215  0.5889
    2MOL   H195  557   1.042   6.160   7.043  1.3525  2.3897 -1.9834
    2MOL   H196  558   1.144   6.298   7.061 -1.5598  1.7230 -0.6644
    2MOL   H197  559   0.862   6.252   7.181 -1.3639  2.5739  0.6503
    2MOL   H198  560   0.901   6.365   7.052 -0.7904 -0.8529  0.8499
    2MOL   H199  561   0.946   6.393   7.217 -3.4175  0.7748  0.2882
    2MOL   C200  562   1.327   6.064   7.444  0.2034 -0.3121  0.0855
    2MOL   C201  563   1.278   5.992   7.566  0.5708  0.3203  0.7757
    2MOL   C202  564   1.307   5.844   7.571  0.5430  0.6769 -0.2885
    2MOL   C203  565   1.446   5.819   7.606 -0.2033 -0.3212  0.6266
    2MOL   C204  566   1.476   5.671   7.587 -0.2665  0.0824  0.3797
    2MOL   C205  567   1.614   5.630   7.614 -1.2169 -0.4113  0.3378
    2MOL   H206  568   1.289   6.166   7.445  0.3184 -0.2150 -2.0940
    2MOL   H207  569   1.433   6.084   7.456  0.3734 -0.7952 -0.5456
    2MOL   H208  570   1.172   6.003   7.544  0.4759  1.6904  1.8934
    2MOL   H209  571   1.283   5.789   7.480 -1.6685 -0.0393  0.7197
    2MOL   H210  572   1.251   5.784   7.642  2.2720  0.0110  0.5429
    2MOL   H211  573   1.453   5.844   7.711  0.7419  0.6277  0.3391
    2MOL   H212  574   1.523   5.875   7.553 -0.3452  1.2768  2.0937
    2MOL   H213  575   1.456   5.639   7.485  1.1022  0.3901  0.0144
    2MOL   H214  576   1.409   5.607   7.646  0.6076 -1.5801 -0.3932
    2MOL   H215  577   1.682   5.694   7.556  1.0348 -1.6062  1.6341
    2MOL   H216  578   1.624   5.642   7.721 -1.3534 -1.5558  0.4843
    2MOL   H217  579   1.625   5.527   7.580  0.4175  0.4301 -1.8095
    2MOL   C218  580   1.305   6.065   7.697  0.2523 -0.7936  0.6204
    2MOL   C219  581   1.243   6.014   0.099 -0.1969 -0.0764  0.2393
    2MOL   C220  582   1.094   6.024   0.104 -0.4513  0.0467  0.2300
    2MOL   C221  583   1.019   5.944   0.204  0.5887  0.0553 -0.1749
    2MOL   C222  584   0.864   5.948   0.183 -0.3733 -0.1948  0.1828
    2MOL   C223  585   0.791   5.903   0.315 -0.2122  0.0292  0.5703
    2MOL   H224  586   1.414   6.071   7.706  0.2578 -2.5433  1.8071
    2MOL   H225  587   1.267   6.167   7.698 -0.9379 -1.2159 -0.1637
    2MOL   H226  588   1.267   5.907   0.104 -0.4770 -0.1890 -0.6733
    2MOL   H227  589   1.053   5.994   0.007 -2.7825  1.6096  0.6717
    2MOL   H228  590   1.060   6.126   0.123 -2.1894  0.0774 -2.5783
    2MOL   H229  591   1.039   5.978   0.305  0.1766  0.0117 -0.0765
    2MOL   H230  592   1.069   5.847   0.212  0.9958  0.2811 -0.0299
    2MOL   H231  593   0.826   6.048   0.162 -1.1204 -0.5836 -0.3604
    2MOL   H232  594   0.835   5.885   0.099  3.9652 -0.1650 -1.4281
    2MOL   H233  595   0.808   5.795   0.318  0.3294  0.1138  0.6701
    2MOL   H234  596   0.687   5.933   0.318 -0.2895 -0.3101  1.2017
    2MOL   H235  597   0.835   5.945   0.406  1.1120 -0.1992  0.0566
    2MOL   C236  598   1.313   6.097   0.208  0.0048  0.4392 -0.5400
    2MOL   C237  599   1.326   6.009   0.339  0.4577 -0.4891 -0.1815
    2MOL   C238  600   1.332   6.094   0.467  0.1409  0.0923 -0.1999
    2MOL   C239  601   1.181   6.113   0.518 -0.6508 -0.0868 -0.3790
    2MOL   C240  602   1.170   6.197   0.643 -0.5081  0.2250 -0.4339
    2MOL   C241  603   1.213   6.342   0.620  0.3562  0.0028  0.1060
    2MOL   H242  604   1.414   6.126   0.177  2.0689 -1.5781  3.8885
    2MOL   H243  605   1.273   6.193   0.241 -0.4423 -0.3940  1.4108
    2MOL   H244  606   1.240   5.942   0.348  1.4011 -1.8317 -0.9519
    2MOL   H245  607   1.379   6.043   0.552  3.5262  1.3983 -1.2179
    2MOL   H246  608   1.399   6.178   0.452 -1.7950  1.3734 -1.8556
    2MOL   H247  609   1.138   6.015   0.539 -1.5002  0.5545  0.9516
    2MOL   H248  610   1.109   6.146   0.443  0.1642 -0.6448 -1.4311
    2MOL   H249  611   1.074   6.185   0.693 -0.2629  0.9206  0.2096
    2MOL   H250  612   1.237   6.160   0.721  0.3466  0.8347 -0.8701
    2MOL   H251  613   1.235   6.393   0.714  1.9315 -1.6191  0.6447
    2MOL   H252  614   1.286   6.361   0.542 -0.6327 -0.4140 -0.9250
    2MOL   H253  615   1.131   6.400   0.578 -1.0888 -1.1602  1.2540
    2MOL   C254  616   1.447   5.915   0.328  0.2764  0.2518 -0.2516
    2MOL   C255  617   1.431   5.781   0.409 -0.3277 -0.5781 -0.2274
    2MOL   C256  618   1.560   5.722   0.470 -0.3532  0.8431  0.6717
    2MOL   C257  619   1.614   5.792   0.593 -0.2707  0.5482  0.0710
    2MOL   C258  620   1.520   5.799   0.722  0.3062 -0.4319 -0.1177
    2MOL   C259  621   1.579   5.868   0.854  0.1680  0.6036  0.0306
    2MOL   H260  622   1.527   5.976   0.370 -0.5536  0.1892  1.4607
    2MOL   H261  623   1.475   5.892   0.225  1.8233 -0.4976  0.3183
    2MOL   H262  624   1.367   5.814   0.491  0.7308  1.5575 -0.2436
    2MOL   H263  625   1.538   5.619   0.496 -1.8153  0.9641  0.0065
    2MOL   H264  626   1.639   5.731   0.395  1.6446  2.3285  2.9014
    2MOL   H265  627   1.703   5.736   0.621 -1.9436 -2.1474  0.1203
    2MOL   H266  628   1.645   5.893   0.566  0.9605  0.7548  2.1610
    2MOL   H267  629   1.504   5.693   0.742 -1.0919  0.0626  1.4780
    2MOL   H268  630   1.418   5.838   0.724  0.4948  0.1366  4.8508
    2MOL   H269  631   1.502   5.841   0.926 -0.9061  3.1637 -0.1147
    2MOL   H270  632   1.586   5.974   0.831  1.2410  0.9151  1.6907
    2MOL   H271  633   1.675   5.832   0.891  0.3553  1.4298  0.3542
    2MOL   C272  634   1.365   5.675   0.317  0.4148  0.2375  0.5986
    2MOL   C273  635   1.269   5.576   0.390 -0.4029 -0.5810  0.1476
    2MOL   C274  636   1.253   5.458   0.299  0.4730  0.1653 -1.1131
    2MOL   C275  637   1.214   5.490   0.151  1.0568  0.0757 -0.0713
    2MOL   C276  638   1.169   5.364   0.080 -0.8312  0.4577 -0.8364
    2MOL   C277  639   1.128   5.399   7.662  0.0628 -0.2999  0.1958
    2MOL   H278  640   1.309   5.728   0.241 -0.4196 -2.5361 -0.7933
    2MOL   H279  641   1.447   5.634   0.258 -0.7027 -1.8298  0.4555
    2MOL   H280  642   1.321   5.533   0.476  1.0222  1.3550  0.2959
    2MOL   H281  643   1.181   5.388   0.341  1.2389  0.0330 -0.0047
    2MOL   H282  644   1.349   5.407   0.306  1.8393  3.0020  2.4651
    2MOL   H283  645   1.306   5.514   0.097  2.2731  0.4462  2.0793
    2MOL   H284  646   1.147   5.574   0.135  1.3573  0.2232 -0.5583
    2MOL   H285  647   1.252   5.296   0.058 -0.8023  1.1473 -3.0435
    2MOL   H286  648   1.087   5.310   0.126 -0.2329  0.4813  0.2707
    2MOL   H287  649   1.045   5.470   7.658  1.2121  1.0361 -0.7929
    2MOL   H288  650   1.213   5.436   7.604  0.1569 -1.5961 -0.4985
    2MOL   H289  651   1.099   5.303   7.620 -0.3625 -0.6698  1.3272
    2MOL   C290  652   1.127   5.630   0.426 -0.0920 -0.4497 -0.0944
    2MOL   C291  653   1.057   5.558   0.546  0.1571  0.4179 -0.3106
    2MOL   C292  654   1.116   5.580   0.687 -0.2080 -0.5546 -0.4091
    2MOL   C293  655   1.102   5.728   0.747  0.2878 -0.2125  0.5197
    2MOL   C294  656   1.173   5.752   0.883 -0.2304 -0.2431 -0.3017
    2MOL   C295  657   1.160   5.898   0.928 -0.8649  0.1059 -0.0034
    2MOL   H296  658   1.073   5.620   0.332 -1.9551  1.4557  0.7306
    2MOL   H297  659   1.147   5.734   0.450  2.1144 -0.5394 -1.4345
    2MOL   H298  660   1.085   5.456   0.521  1.1113  1.3242 -3.0563
    2MOL   H299  661   1.223   5.559   0.686 -0.2416 -0.7793 -3.2010
    2MOL   H300  662   1.076   5.509   0.760 -1.4397  1.1072  0.5872
    2MOL   H301  663   1.141   5.795   0.670 -0.9021 -1.8508 -1.5782
    2MOL   H302  664   0.995   5.749   0.739 -0.3958 -3.6848 -0.5272
    2MOL   H303  665   1.277   5.721   0.869 -0.1303 -0.7162  1.3687
    2MOL   H304  666   1.124   5.691   0.959 -0.4435  1.0011  0.5611
    2MOL   H305  667   1.188   5.916   1.031  2.6097 -0.3550 -0.8070
    2MOL   H306  668   1.054   5.925   0.920 -0.8638 -0.2989 -1.5651
    2MOL   H307  669   1.217   5.962   0.861  0.1454 -2.7946 -2.0150
    2MOL   C308  670   0.900   5.580   0.529 -0.0674 -0.8661  0.2783
    2MOL   C309  671   0.819   5.477   0.598  0.3998  0.2577 -0.5284
    2MOL   C310  672   0.858   5.326   0.563  0.8157  0.4055 -0.2514
    2MOL   C311  673   0.934   5.252   0.674 -0.2794  0.4730  0.1599
    2MOL   C312  674   0.967   5.103   0.635  0.1769  0.0572 -0.1822
    2MOL   C313  675   1.059   5.082   0.511  0.0116 -0.6823 -0.3823
    2MOL   H314  676   0.868   5.677   0.565  0.0943 -0.2249 -1.2736
    2MOL   H315  677   0.870   5.576   0.425 -0.0617 -1.8524  0.3110
    2MOL   H316  678   0.835   5.484   0.705  0.7787  2.3820 -0.7061
    2MOL   H317  679   0.904   5.335   0.464  0.5870 -0.9364 -0.4813
    2MOL   H318  680   0.769   5.270   0.535  1.2136  0.4270 -1.6300
    2MOL   H319  681   0.882   5.269   0.768  0.2898 -0.3734  0.6359
    2MOL   H320  682   1.023   5.312   0.693  1.1330 -2.1302  2.0348
    2MOL   H321  683   1.008   5.054   0.723 -0.2811 -0.7381 -0.4028
    2MOL   H322  684   0.873   5.050   0.621 -0.3059  0.1761  2.3556
    2MOL   H323  685   1.082   4.976   0.493 -0.9323 -0.9436 -0.0771
    2MOL   H324  686   1.147   5.140   0.535 -0.8346  0.3699  0.2183
    2MOL   H325  687   1.014   5.127   0.423 -1.1835 -0.8060  0.1491
    2MOL   C326  688   0.668   5.513   0.573  0.0921 -0.3581  0.5504
    2MOL   C327  689   0.606   5.640   0.640 -0.4876 -0.2849  0.0348
    2MOL   C328  690   0.459   5.675   0.594  0.2239  0.4597  0.2318
    2MOL   C329  691   0.408   5.820   0.611  0.5974  0.0507  0.3761
    2MOL   C330  692   0.271   5.851   0.542  0.7298 -0.5770 -0.7946
    2MOL   C331  693   0.202   5.960   0.621 -0.2827 -0.4861  0.3381
    2MOL   H332  694   0.608   5.425   0.597 -0.5666 -0.5393 -1.6480
    2MOL   H333  695   0.664   5.522   0.464 -0.8970  1.4695  0.7315
    2MOL   H334  696   0.669   5.718   0.598  0.7039 -2.1388 -1.7148
    2MOL   H335  697   0.463   5.646   0.489  2.6901 -1.4651  0.8045
    2MOL   H336  698   0.393   5.601   0.640  0.9119 -0.3867 -0.1489
    2MOL   H337  699   0.484   5.886   0.570  1.4728 -2.4321 -2.1123
    2MOL   H338  700   0.403   5.851   0.716 -1.3124 -0.6646  0.5152
    2MOL   H339  701   0.293   5.888   0.441 -1.6114  1.7493 -0.4975
    2MOL   H340  702   0.207   5.764   0.532  0.1101  0.1879 -4.5030
    2MOL   H341  703   0.255   6.054   0.631  1.3277 -1.1176 -2.0177
    2MOL   H342  704   0.172   5.925   0.720  1.1921 -1.2753  0.5257
    2MOL   H343  705   0.103   5.987   0.583  0.1329  1.3740  0.5193
    2MOL   C344  706   0.630   5.646   0.789 -0.3848  0.0333 -0.5542
    2MOL   C345  707   0.572   5.531   0.880  0.4308 -0.0798  0.2601
    2MOL   C346  708   0.615   5.551   1.026 -0.2581 -0.7530  0.3326
    2MOL   C347  709   0.549   5.462   1.125  0.2260  0.2456 -0.1332
    2MOL   C348  710   0.584   5.505   1.265  0.0855 -0.5558 -0.0938
    2MOL   C349  711   0.541   5.391   1.364 -0.0342  0.1734  0.0289
    2MOL   H350  712   0.738   5.652   0.808 -0.7538  0.5945  1.4249
    2MOL   H351  713   0.586   5.732   0.839 -0.9478 -0.3509 -0.3981
    2MOL   H352  714   0.607   5.432   0.853 -0.1549  0.2151 -1.6672
    2MOL   H353  715   0.722   5.532   1.026 -0.2268 -0.5860  1.0597
    2MOL   H354  716   0.612   5.655   1.059 -4.6805 -0.0201 -2.0198
    2MOL   H355  717   0.441   5.460   1.112  0.3301 -1.1042 -0.9254
    2MOL   H356  718   0.587   5.361   1.113  1.1671  0.5484  0.2724
    2MOL   H357  719   0.691   5.524   1.272  0.1329 -1.0058  0.4218
    2MOL   H358  720   0.537   5.602   1.280 -3.0355 -1.1903 -4.7365
    2MOL   H359  721   0.554   5.403   1.471  0.2962 -2.9245  0.3687
    2MOL   H360  722   0.434   5.370   1.351 -0.0476  1.0617 -1.5283
    2MOL   H361  723   0.590   5.298   1.338 -0.5008 -0.4178  1.2370
    2MOL   H362  724   0.463   5.534   0.872  0.5404  1.5166 -0.8743
    3MOL     C1  725   7.377   6.007   2.782  0.0427 -0.3471  0.1099
    3MOL     C2  726   7.358   5.931   2.915  0.3230 -0.4679  0.0537
    3MOL     C3  727   7.414   5.788   2.901 -0.1140  0.2960 -0.5180
    3MOL     C4  728   7.562   5.770   2.955  1.0007 -0.0250 -0.0582
    3MOL     C5  729   7.612   5.629   2.935 -0.2838  0.0297 -0.2268
    3MOL     C6  730   0.031   5.608   2.978 -0.4416 -0.4435  0.1131
    3MOL     H7  731   7.484   6.013   2.759  0.0282  1.4575  0.4762
    3MOL     H8  732   7.326   5.961   2.697 -1.6029 -0.2358  1.0200
    3MOL     H9  733   7.421   5.999   2.972  1.3707 -0.9567 -0.5226
    3MOL    H10  734   7.415   5.743   2.802  0.1190 -1.0093  0.0684
    3MOL    H11  735   7.362   5.712   2.959  0.9328 -0.2793 -0.3099
    3MOL    H12  736   7.576   5.791   3.061  2.6975  2.0310 -0.6492
    3MOL    H13  737   7.632   5.840   2.908  1.2101  0.1452  0.4958
    3MOL    H14  738   7.557   5.560   3.000 -1.2588  3.2769  2.5263
    3MOL    H15  739   7.594   5.616   2.828 -1.8595  1.6500 -0.1883
    3MOL    H16  740   0.056   5.504   2.957  0.0873 -0.5034  1.0361
    3MOL    H17  741   0.036   5.606   3.087 -1.8110  0.1981  0.2079
    3MOL    H18  742   0.101   5.677   2.932  1.6679 -0.4225  3.2138
    3MOL    H19  743   7.341   6.109   2.792  1.1476 -0.1565  2.3764
    3MOL    C20  744   7.214   5.940   2.969  0.4217  0.2399 -0.6776
    3MOL    C21  745   7.204   5.970   3.122 -0.5084  0.1875 -0.4902
    3MOL    C22  746   7.276   5.863   3.217 -0.1169  0.4483  0.1712
    3MOL    C23  747   7.194   5.735   3.210  0.2057 -0.0834 -0.3733
    3MOL    C24  748   7.262   5.621   3.285 -0.4049 -0.6004  0.1820
    3MOL    C25  749   7.176   5.487   3.294 -0.2383 -0.6282 -0.1028
    3MOL    H26  750   7.158   5.849   2.951  0.4970  0.2888 -1.1611
    3MOL    H27  751   7.151   6.015   2.922 -0.2960  0.7130  0.9941
    3MOL    H28  752   7.100   5.975   3.153 -0.2938  1.8054  0.0016
    3MOL    H29  753   7.274   5.892   3.322 -3.2237 -1.5887  0.7392
    3MOL    H30  754   7.379   5.854   3.182 -1.3128 -0.2627 -3.3146
    3MOL    H31  755   7.186   5.710   3.105 -1.2885  0.4388 -0.3992
    3MOL    H32  756   7.092   5.751   3.246  0.8303 -0.9036  1.8940
    3MOL    H33  757   7.344   5.597   3.218 -1.2287  1.2605 -1.5217
    3MOL    H34  758   7.317   5.653   3.374  2.0321 -1.1440 -1.0840
    3MOL    H35  759   7.145   5.447   3.198  2.4951  0.0705 -1.3486
    3MOL    H36  760   7.242   5.413   3.340  1.1847  1.0161  0.5821
    3MOL    H37  761   7.092   5.503   3.361 -0.0538  0.1713 -0.0448
    3MOL    C38  762   7.249   6.111   3.161 -1.2336 -0.2517  0.3154
    3MOL    C39  763   7.149   6.230   3.147 -0.3456 -0.0434 -0.2048
    3MOL    C40  764   7.038   6.217   3.254  0.0298 -0.5970 -0.3100
    3MOL    C41  765   6.922   6.301   3.227  0.2470  0.5019  0.4296
    3MOL    C42  766   6.797   6.279   3.310  0.1976 -0.1857 -0.2818
    3MOL    C43  767   6.805   6.305   3.460  0.1472 -0.6431 -0.2864
    3MOL    H44  768   7.337   6.145   3.106 -1.8501 -0.8969 -1.0986
    3MOL    H45  769   7.286   6.108   3.264 -1.5154 -2.1226  0.3738
    3MOL    H46  770   7.105   6.224   3.048 -1.8295 -2.5619  0.5731
    3MOL    H47  771   6.994   6.118   3.261 -3.2902  0.8857  0.7317
    3MOL    H48  772   7.084   6.241   3.350 -2.2903 -2.3957  1.3337
    3MOL    H49  773   6.939   6.408   3.241 -0.8154  0.5822  1.1465
    3MOL    H50  774   6.896   6.294   3.121  1.9448 -0.8303  0.0772
    3MOL    H51  775   6.720   6.344   3.268  0.3225 -0.8689 -1.6139
    3MOL    H52  776   6.745   6.185   3.292 -0.2670 -0.2891  1.5094
    3MOL    H53  777   6.876   6.239   3.510  1.9985  1.3502 -0.2409
    3MOL    H54  778   6.700   6.305   3.489 -0.6976  0.9330 -3.1648
    3MOL    H55  779   6.832   6.407   3.486 -0.5879 -1.2231  2.9691
    3MOL    C56  780   7.214   6.368   3.162 -0.4819  0.1559 -0.6315
    3MOL    C57  781   7.294   6.401   3.032 -0.4858 -0.4495 -0.1217
    3MOL    C58  782   7.448   6.414   3.065  0.1317  0.0079 -0.2186
    3MOL    C59  783   7.538   6.404   2.937  0.8189 -0.3995 -0.9284
    3MOL    C60  784   7.680   6.445   2.970  0.0996 -0.5871 -0.1433
    3MOL    C61  785   0.054   6.474   2.861 -0.2481 -0.1318  0.2516
    3MOL    H62  786   7.134   6.440   3.178 -2.1519 -1.3702 -1.8943
    3MOL    H63  787   7.278   6.380   3.250 -0.1088  0.5509 -0.9559
    3MOL    H64  788   7.288   6.308   2.976  2.6846  0.5904 -2.3781
    3MOL    H65  789   7.469   6.508   3.116  1.3795 -0.0769 -0.5794
    3MOL    H66  790   7.485   6.341   3.137  0.5503 -0.8231 -1.2696
    3MOL    H67  791   7.495   6.467   2.860  0.1371  1.4089  0.8995
    3MOL    H68  792   7.541   6.300   2.904 -3.7852 -1.2654  0.9499
    3MOL    H69  793   7.670   6.545   3.014 -1.3241 -1.4735  1.5846
    3MOL    H70  794   0.002   6.386   3.047  1.0902 -0.3991 -0.6166
    3MOL    H71  795   0.064   6.395   2.788  2.8938  0.9188 -0.5217
    3MOL    H72  796   0.018   6.557   2.800  1.3731  0.4236  0.0328
    3MOL    H73  797   0.152   6.501   2.900 -0.6367  1.1355  0.3704
    3MOL    C74  798   7.237   6.523   2.953  0.8366  0.1434 -0.4702
    3MOL    C75  799   7.096   6.503   2.896  0.1412  0.2751  0.1003
    3MOL    C76  800   7.034   6.637   2.863 -0.1186  0.1571 -0.1869
    3MOL    C77  801   6.997   6.730   2.980  0.3391  0.2295 -0.5770
    3MOL    C78  802   6.942   6.868   2.943  0.2171 -0.4454 -0.0282
    3MOL    C79  803   6.806   6.838   2.890  0.1490  0.0793 -0.2971
    3MOL    H80  804   7.245   6.605   3.024  0.1071 -0.7094  0.6224
    3MOL    H81  805   7.299   6.529   2.865  2.3553 -2.8310  0.3375
    3MOL    H82  806   7.027   6.474   2.975  0.2213 -2.5753 -0.8349
    3MOL    H83  807   7.111   6.683   2.802 -1.0052  1.2811 -0.4759
    3MOL    H84  808   6.946   6.622   2.799  0.0627  1.0130 -0.6452
    3MOL    H85  809   6.939   6.684   3.060  0.1445  1.7501  0.1632
    3MOL    H86  810   7.095   6.764   3.014  0.0073  0.0815  0.5222
    3MOL    H87  811   7.009   6.917   2.873  0.8101  0.0619  0.8877
    3MOL    H88  812   6.925   6.932   3.030  1.2276 -0.8284  0.4604
    3MOL    H89  813   6.814   6.794   2.791 -2.0135  1.0049 -0.9151
    3MOL    H90  814   6.762   6.763   2.956  2.4201 -1.0637 -0.0652
    3MOL    H91  815   6.745   6.929   2.884 -3.2464 -1.9312  1.9537
    3MOL    C92  816   7.104   6.409   2.773 -0.0885 -0.0239  0.1315
    3MOL    C93  817   6.976   6.365   2.703  0.7714 -0.4014  0.7374
    3MOL    C94  818   7.015   6.297   2.568 -0.6502 -0.5133  0.9908
    3MOL    C95  819   7.066   6.403   2.459 -1.0697 -0.1862  0.0465
    3MOL    C96  820   6.966   6.508   2.397  0.1694  0.1789  0.0912
    3MOL    C97  821   7.036   6.619   2.310 -0.1633  0.7068 -0.8529
    3MOL    H98  822   7.165   6.463   2.701 -0.9524  1.4762  0.5200
    3MOL    H99  823   7.163   6.321   2.799 -0.9205 -0.1442  1.6801
    3MOL   H100  824   6.906   6.444   2.679  1.7563 -0.0198 -0.9316
    3MOL   H101  825   6.923   6.250   2.533 -1.1048  1.0127  0.1006
    3MOL   H102  826   7.089   6.220   2.594  0.4674 -0.5272 -2.0802
    3MOL   H103  827   7.152   6.455   2.502 -0.4991 -2.4231  1.6731
    3MOL   H104  828   7.124   6.352   2.382  0.0940  2.2724 -0.7778
    3MOL   H105  829   6.888   6.451   2.347 -1.5387  3.0282 -0.6220
    3MOL   H106  830   6.902   6.554   2.473  0.6645 -0.1616  0.7223
    3MOL   H107  831   6.965   6.684   2.258 -1.9473  0.5873  1.3540
    3MOL   H108  832   7.086   6.689   2.377  0.3975 -1.8568  1.4979
    3MOL   H109  833   7.108   6.581   2.238 -0.6263 -2.1730  0.1457
    3MOL   C110  834   6.898   6.271   2.796 -0.0257 -0.7291  0.0520
    3MOL   C111  835   6.744   6.284   2.777 -0.1877  0.0711  0.0382
    3MOL   C112  836   6.688   6.422   2.835  0.2865 -0.2033 -0.3471
    3MOL   C113  837   6.576   6.477   2.747 -1.1142 -0.6851 -0.8552
    3MOL   C114  838   6.511   6.598   2.823 -0.2791 -0.1898  0.2770
    3MOL   C115  839   6.371   6.614   2.759 -0.3186 -0.1396 -0.0501
    3MOL   H116  840   6.941   6.171   2.788 -0.0966 -0.6105 -2.2632
    3MOL   H117  841   6.912   6.299   2.900 -0.8658  1.6275 -0.4327
    3MOL   H118  842   6.720   6.305   2.673 -1.4751  1.4781  0.5946
    3MOL   H119  843   6.770   6.493   2.845  0.9842 -0.9348 -0.7222
    3MOL   H120  844   6.658   6.397   2.937  1.8675  0.4600  0.3085
    3MOL   H121  845   6.503   6.399   2.722  1.1738 -3.8752  1.8572
    3MOL   H122  846   6.617   6.505   2.650  0.3114 -0.2086 -0.1301
    3MOL   H123  847   6.563   6.694   2.817 -2.8771  1.2877  0.6476
    3MOL   H124  848   6.512   6.577   2.930  2.2000  1.3859  0.6025
    3MOL   H125  849   6.317   6.526   2.794  0.0979 -0.1134  0.6622
    3MOL   H126  850   6.314   6.701   2.793  2.0385  1.8173 -0.9685
    3MOL   H127  851   6.375   6.621   2.650  0.2080 -0.9353 -0.0824
    3MOL   C128  852   6.666   6.160   2.834 -0.1326  0.5216  0.1619
    3MOL   C129  853   6.707   6.020   2.803 -1.1596  0.0770 -0.7197
    3MOL   C130  854   6.712   6.005   2.648 -0.0171 -0.1679  0.3555
    3MOL   C131  855   6.804   5.888   2.603  0.0056  0.0417  0.2513
    3MOL   C132  856   6.797   5.840   2.460  0.2875  0.0301 -0.1925
    3MOL   C133  857   6.865   5.709   2.441  0.4031  0.8113  0.3517
    3MOL   H134  858   6.560   6.169   2.809 -0.3767 -2.6731 -0.1196
    3MOL   H135  859   6.664   6.165   2.943  2.5854 -1.2309  0.3228
    3MOL   H136  860   6.808   6.001   2.840 -1.3390  0.1271 -0.2094
    3MOL   H137  861   6.611   5.986   2.614  0.1317 -0.0767 -0.1428
    3MOL   H138  862   6.742   6.096   2.595  2.0000 -0.4969  0.8800
    3MOL   H139  863   6.789   5.802   2.669 -0.1073  0.3052  0.5683
    3MOL   H140  864   6.907   5.919   2.613 -0.1152  0.3232  0.6272
    3MOL   H141  865   6.692   5.832   2.434  0.5164 -0.7012 -0.9439
    3MOL   H142  866   6.846   5.895   2.380 -1.2125  0.7424 -0.6356
    3MOL   H143  867   6.966   5.717   2.479 -0.5643  2.5334  2.6290
    3MOL   H144  868   6.885   5.679   2.338  1.7470  0.7280  0.6243
    3MOL   H145  869   6.807   5.627   2.483 -0.9569  1.6350  0.1104
    3MOL   C146  870   6.605   5.921   2.865  0.2280  0.0753  0.2145
    3MOL   C147  871   6.611   5.882   3.018  0.0066 -0.3935 -0.0280
    3MOL   C148  872   6.733   5.782   3.046 -0.0579 -0.3678 -0.3216
    3MOL   C149  873   6.733   5.647   2.976 -0.4650  0.3172  0.4608
    3MOL   C150  874   6.870   5.577   2.980  0.2538  0.2880 -0.3017
    3MOL   C151  875   6.971   5.628   2.875  0.7298  0.0098 -0.1802
    3MOL   H152  876   6.509   5.969   2.848 -1.1064 -2.5920 -0.1186
    3MOL   H153  877   6.594   5.830   2.806 -0.6273 -0.3113  0.9447
    3MOL   H154  878   6.628   5.976   3.070  0.9109 -1.5027  1.7363
    3MOL   H155  879   6.739   5.769   3.154 -1.2453 -1.3231 -0.3545
    3MOL   H156  880   6.822   5.838   3.019  1.2245 -1.1078  2.2549
    3MOL   H157  881   6.661   5.580   3.022 -1.5932  1.0061 -0.2706
    3MOL   H158  882   6.707   5.666   2.871 -3.1605  1.9510  1.3765
    3MOL   H159  883   6.866   5.468   2.967 -0.8340  0.1014  1.4468
    3MOL   H160  884   6.917   5.588   3.077 -0.2554 -2.4297  0.3041
    3MOL   H161  885   6.935   5.603   2.775 -1.8521  1.0032  0.4686
    3MOL   H162  886   6.953   5.734   2.888 -1.7480 -0.3504 -0.4098
    3MOL   H163  887   7.070   5.588   2.897  0.5556 -2.4439 -3.3745
    3MOL   C164  888   6.480   5.818   3.073 -0.2396  0.4683 -0.0869
    3MOL   C165  889   6.465   5.805   3.229 -0.0376 -0.1433  0.5894
    3MOL   C166  890   6.485   5.940   3.302 -0.1952 -0.5600 -0.0682
    3MOL   C167  891   6.610   5.950   3.395 -0.6059 -0.1659  0.4204
    3MOL   C168  892   6.627   5.848   3.512  0.7596  0.3655 -0.1003
    3MOL   C169  893   6.764   5.856   3.576  0.1079 -0.1288  0.1144
    3MOL   H170  894   6.388   5.866   3.037 -0.4265  2.2843  2.6548
    3MOL   H171  895   6.460   5.716   3.040 -1.0796 -0.7130  3.7605
    3MOL   H172  896   6.540   5.731   3.254  0.4230 -0.9210 -2.8251
    3MOL   H173  897   6.406   5.956   3.376 -0.8653 -0.5640 -0.7723
    3MOL   H174  898   6.487   6.024   3.233  1.6660 -0.0206  0.5919
    3MOL   H175  899   6.627   6.051   3.434  0.8879  0.0637 -0.7811
    3MOL   H176  900   6.687   5.928   3.321  0.3831  3.1522  0.3630
    3MOL   H177  901   6.604   5.743   3.492 -2.7890  1.0492  0.0706
    3MOL   H178  902   6.546   5.871   3.581  0.1464  0.2543 -0.7782
    3MOL   H179  903   6.755   5.796   3.667 -1.5875  0.0506  0.0802
    3MOL   H180  904   6.805   5.957   3.582  1.6561 -0.6941 -0.5355
    3MOL   H181  905   6.848   5.812   3.523  0.2220  1.7871 -1.3454
    3MOL   C182  906   6.328   5.748   3.258  0.1603 -0.3982 -0.2001
    3MOL   C183  907   6.295   5.703   3.409 -0.0567  0.2494 -0.0810
    3MOL   C184  908   6.360   5.569   3.445 -0.5494  0.7720  0.0013
    3MOL   C185  909   6.382   5.546   3.598 -0.2270 -0.1474  0.0235
    3MOL   C186  910   6.466   5.418   3.633  0.5756  0.0296 -0.0386
    3MOL   C187  911   6.487   5.423   3.789 -1.1021 -0.2574 -0.0074
    3MOL   H188  912   6.244   5.806   3.218 -0.2914  0.0421  1.3686
    3MOL   H189  913   6.310   5.663   3.192  1.8952 -0.2485 -0.8923
    3MOL   H190  914   6.328   5.775   3.484  3.1709 -2.2006  0.9599
    3MOL   H191  915   6.330   5.478   3.393  1.3206  0.3883 -0.4551
    3MOL   H192  916   6.466   5.586   3.423 -0.2436  0.0021  0.8551
    3MOL   H193  917   6.286   5.554   3.651  0.1166 -0.7431  0.7490
    3MOL   H194  918   6.446   5.626   3.635  1.9391 -1.5681 -0.6100
    3MOL   H195  919   6.567   5.418   3.594  0.8245 -1.9529  0.5685
    3MOL   H196  920   6.419   5.325   3.601 -0.0155  0.3317 -0.0686
    3MOL   H197  921   6.392   5.410   3.841 -0.6190 -3.1591  0.2495
    3MOL   H198  922   6.530   5.516   3.826  0.3003  0.1592 -2.5474
    3MOL   H199  923   6.554   5.344   3.824 -0.5556 -0.2349 -0.9811
    3MOL   C200  924   6.145   5.681   3.418  0.6871 -0.2620 -0.6800
    3MOL   C201  925   6.048   5.799   3.382 -0.5008  0.1313 -0.5077
    3MOL   C202  926   5.909   5.762   3.441  0.7286 -0.0521 -0.1570
    3MOL   C203  927   5.842   5.656   3.347 -1.0376 -0.3851 -0.1822
    3MOL   C204  928   5.691   5.650   3.352 -0.4143 -0.1722  0.7167
    3MOL   C205  929   5.629   5.642   3.495  0.7237 -0.2541 -0.2328
    3MOL   H206  930   6.130   5.649   3.521  1.0987  0.4752 -0.3940
    3MOL   H207  931   6.111   5.602   3.351  1.5013  0.5802 -2.1017
    3MOL   H208  932   6.038   5.807   3.274 -1.9906  0.7573 -0.3316
    3MOL   H209  933   5.845   5.848   3.425 -2.8039 -2.4758  0.4512
    3MOL   H210  934   5.914   5.735   3.547 -1.9930 -0.7792 -0.1904
    3MOL   H211  935   5.883   5.560   3.379  0.2830 -0.6201 -2.5145
    3MOL   H212  936   5.870   5.672   3.243 -0.9150  0.9832  0.0569
    3MOL   H213  937   5.662   5.563   3.292 -0.4560 -0.0844  0.6103
    3MOL   H214  938   5.653   5.728   3.287 -0.1630 -0.6633 -0.0233
    3MOL   H215  939   5.682   5.574   3.562 -2.5142 -1.4700  1.2479
    3MOL   H216  940   5.631   5.741   3.542  0.1085 -0.0322 -0.6697
    3MOL   H217  941   5.524   5.613   3.492  0.7200 -0.1918 -0.6627
    3MOL   C218  942   6.098   5.935   3.446  0.3168 -0.5984  0.0536
    3MOL   C219  943   6.005   6.061   3.411 -0.2174 -0.2681 -0.0736
    3MOL   C220  944   5.994   6.080   3.257  0.4338 -0.1437 -0.7168
    3MOL   C221  945   5.891   6.186   3.209  0.4878  0.8900 -0.4740
    3MOL   C222  946   5.864   6.160   3.064 -0.9407  0.5824  0.5580
    3MOL   C223  947   5.740   6.228   3.009  0.9395 -0.1230  0.1081
    3MOL   H224  948   6.111   5.931   3.554  0.4499 -1.0347  0.0194
    3MOL   H225  949   6.199   5.960   3.414 -0.2589 -0.8932 -2.0675
    3MOL   H226  950   5.908   6.035   3.453 -1.4163  0.9738 -2.0054
    3MOL   H227  951   5.978   5.987   3.202  1.9490 -0.5470 -0.5061
    3MOL   H228  952   6.092   6.103   3.216  0.0573  2.3261 -0.2807
    3MOL   H229  953   5.923   6.288   3.229  0.3737  0.9282 -0.4833
    3MOL   H230  954   5.802   6.187   3.272  1.0609 -0.1243  0.3803
    3MOL   H231  955   5.945   6.197   3.002  0.0454 -2.2849  0.0446
    3MOL   H232  956   5.849   6.052   3.057  0.8348  0.2745  1.3990
    3MOL   H233  957   5.643   6.195   3.046  0.4375 -0.9199 -1.8362
    3MOL   H234  958   5.732   6.200   2.904 -1.5582 -1.3511  0.5851
    3MOL   H235  959   5.751   6.336   3.010 -2.4485  0.2507  0.8026
    3MOL   C236  960   6.042   6.199   3.483 -0.2207 -0.0807 -0.0294
    3MOL   C237  961   6.060   6.203   3.640 -0.5125  0.1628  0.2145
    3MOL   C238  962   5.924   6.176   3.722 -0.1967  0.4771  0.0936
    3MOL   C239  963   5.805   6.274   3.701  0.2777 -0.7199 -0.2408
    3MOL   C240  964   5.682   6.257   3.790 -0.3221  0.6745  0.5086
    3MOL   C241  965   5.579   6.363   3.755  0.0154 -0.0669 -0.1788
    3MOL   H242  966   6.125   6.242   3.428 -1.8975  2.0880 -0.9186
    3MOL   H243  967   5.964   6.270   3.456 -0.3522 -0.0013  0.5476
    3MOL   H244  968   6.130   6.120   3.655 -0.1243  0.1928 -1.3274
    3MOL   H245  969   5.890   6.080   3.683  0.2874  0.0624  0.6842
    3MOL   H246  970   5.946   6.159   3.828  2.0140  0.2619 -0.3730
    3MOL   H247  971   5.791   6.260   3.593 -0.0856  1.1475 -0.4476
    3MOL   H248  972   5.848   6.374   3.705 -2.9452  0.6423  2.0542
    3MOL   H249  973   5.636   6.160   3.770 -1.4718  1.4724 -0.7222
    3MOL   H250  974   5.712   6.268   3.894 -0.4230  3.9244  0.2298
    3MOL   H251  975   5.619   6.465   3.758  0.1831 -0.1260 -0.4436
    3MOL   H252  976   5.532   6.329   3.663 -0.1964 -0.4706  0.0770
    3MOL   H253  977   5.509   6.376   3.838 -1.2310  1.0351 -1.3875
    3MOL   C254  978   6.127   6.329   3.695 -0.7562 -0.3352  0.2022
    3MOL   C255  979   6.282   6.319   3.685  0.1824  0.7611  0.7896
    3MOL   C256  980   6.343   6.229   3.800  0.2469 -1.0157  0.1872
    3MOL   C257  981   6.478   6.166   3.749  0.2156 -0.2584 -0.2255
    3MOL   C258  982   6.550   6.093   3.861 -1.2352 -0.9745  0.4474
    3MOL   C259  983   6.629   6.191   3.953 -0.0181  0.9017  0.7214
    3MOL   H260  984   6.120   6.341   3.803  0.7820 -2.6422  0.5833
    3MOL   H261  985   6.094   6.421   3.646 -0.4745 -0.1558  0.3438
    3MOL   H262  986   6.312   6.271   3.591  1.6947  0.0116  1.6459
    3MOL   H263  987   6.366   6.282   3.893  2.0605 -1.2530 -0.1071
    3MOL   H264  988   6.278   6.147   3.830 -0.9207  0.5152  1.8982
    3MOL   H265  989   6.461   6.087   3.675  1.3045  0.6644 -1.4909
    3MOL   H266  990   6.541   6.244   3.705  0.6274  1.0715  2.6081
    3MOL   H267  991   6.628   6.027   3.822 -1.6272 -1.9880  1.3495
    3MOL   H268  992   6.476   6.036   3.916 -0.6277 -1.0274  1.2155
    3MOL   H269  993   6.553   6.232   4.020  0.2961 -0.5095  1.9856
    3MOL   H270  994   6.685   6.269   3.902  0.9941 -0.1919  0.1140
    3MOL   H271  995   6.704   6.142   4.014  0.2065 -0.3895 -0.5585
    3MOL   C272  996   6.347   6.456   3.684 -0.1248 -0.1807 -0.4586
    3MOL   C273  997   6.376   6.507   3.541  0.3742  0.4528  0.0537
    3MOL   C274  998   6.483   6.620   3.538  0.4963  0.9315  0.1846
    3MOL   C275  999   6.470   6.735   3.634  0.0222  0.0399 -0.3044
    3MOL   C276 1000   6.369   6.848   3.595 -0.3844 -0.2861 -1.2346
    3MOL   C277 1001   6.385   6.964   3.695 -0.1296 -0.0119  0.2954
    3MOL   H278 1002   6.291   6.535   3.734 -1.2834 -0.6345 -1.0298
    3MOL   H279 1003   6.446   6.460   3.731 -2.0619  1.3833  3.7096
    3MOL   H280 1004   6.411   6.430   3.473  1.8287  1.6570 -0.5923
    3MOL   H281 1005   6.503   6.657   3.437  0.6014  1.9189  0.5586
    3MOL   H282 1006   6.567   6.562   3.577 -0.6985 -0.3861  0.8332
    3MOL   H283 1007   6.565   6.788   3.635  0.3473 -0.5300 -1.1318
    3MOL   H284 1008   6.448   6.689   3.731 -1.9543 -0.9776 -1.2081
    3MOL   H285 1009   6.390   6.885   3.495  1.3470  0.3510 -0.6451
    3MOL   H286 1010   6.267   6.810   3.587 -1.2000  1.3215  1.2365
    3MOL   H287 1011   6.336   7.058   3.668 -0.6521 -0.5265 -0.6027
    3MOL   H288 1012   6.327   6.934   3.782  0.5081  1.4125  1.2255
    3MOL   H289 1013   6.486   6.986   3.729 -0.4398  0.6319  0.8160
    3MOL   C290 1014   6.242   6.528   3.467 -0.1013 -0.0735 -0.8594
    3MOL   C291 1015   6.241   6.596   3.329  0.1484  0.4792 -0.2790
    3MOL   C292 1016   6.326   6.531   3.223 -0.3567 -0.6782 -0.3954
    3MOL   C293 1017   6.278   6.389   3.170 -0.4852 -0.3798  0.4642
    3MOL   C294 1018   6.354   6.337   3.048  0.1915  0.7840  0.0936
    3MOL   C295 1019   6.309   6.190   3.009  0.8974  0.0687  0.5957
    3MOL   H296 1020   6.169   6.572   3.534  0.8916  0.8236 -0.3532
    3MOL   H297 1021   6.205   6.426   3.456  0.6019 -0.5530  0.9786
    3MOL   H298 1022   6.291   6.690   3.353 -0.2122  0.3881  0.8727
    3MOL   H299 1023   6.429   6.539   3.256 -0.8310  1.8541  0.6088
    3MOL   H300 1024   6.311   6.587   3.130 -0.2330  0.2624  0.1483
    3MOL   H301 1025   6.293   6.318   3.251  1.0365 -2.1203 -1.2960
    3MOL   H302 1026   6.171   6.392   3.153 -0.6131  1.0910  1.3974
    3MOL   H303 1027   6.459   6.349   3.073 -0.3046  2.1462  1.6237
    3MOL   H304 1028   6.344   6.408   2.965  0.6007  0.4373 -0.2528
    3MOL   H305 1029   6.315   6.128   3.098 -0.6339  0.2737  0.8608
    3MOL   H306 1030   6.376   6.150   2.932 -0.5785  1.2808 -1.3791
    3MOL   H307 1031   6.208   6.188   2.967  0.6551  1.4856  1.0988
    3MOL   C308 1032   6.096   6.635   3.287  0.2859  0.1988  0.1319
    3MOL   C309 1033   6.074   6.706   3.148 -0.6314  0.8640  0.2025
    3MOL   C310 1034   6.149   6.836   3.144  0.8757 -0.6171 -1.1965
    3MOL   C311 1035   6.096   6.953   3.228  0.3867 -0.0688 -0.1046
    3MOL   C312 1036   6.185   7.078   3.222 -0.2193  0.0691  0.4704
    3MOL   C313 1037   6.151   7.191   3.318  0.1827 -0.5257  0.7856
    3MOL   H314 1038   6.028   6.550   3.287 -0.7119  0.9708  1.7282
    3MOL   H315 1039   6.047   6.704   3.354 -0.8649 -1.9004  1.5087
    3MOL   H316 1040   6.124   6.645   3.073 -1.5918 -0.9248  0.9966
    3MOL   H317 1041   6.154   6.874   3.042  0.5988  1.2254 -0.5319
    3MOL   H318 1042   6.255   6.828   3.167  0.3138 -0.7681  1.4939
    3MOL   H319 1043   6.084   6.928   3.334  1.7257 -1.1138 -0.1919
    3MOL   H320 1044   5.999   6.963   3.180  0.1987 -0.8775  0.0988
    3MOL   H321 1045   6.287   7.045   3.241  0.2993  1.3832  0.0364
    3MOL   H322 1046   6.193   7.114   3.119  0.6224  2.6822  1.4353
    3MOL   H323 1047   6.044   7.209   3.328  0.6578  0.8757  3.6117
    3MOL   H324 1048   6.186   7.286   3.279  0.1572 -0.8701 -0.0958
    3MOL   H325 1049   6.190   7.171   3.418  1.1143  1.3537  0.8078
    3MOL   C326 1050   5.927   6.708   3.107 -0.1055 -0.2081 -0.0416
    3MOL   C327 1051   5.898   6.779   2.972  0.3472 -0.3777  0.5991
    3MOL   C328 1052   5.971   6.709   2.859  0.2645  0.4522  0.2682
    3MOL   C329 1053   5.906   6.568   2.812 -0.1941 -0.0560  0.1054
    3MOL   C330 1054   5.966   6.532   2.682  0.1416  0.0862  0.7375
    3MOL   C331 1055   5.935   6.393   2.630 -0.5786  0.2751  0.6244
    3MOL   H332 1056   5.867   6.753   3.186  0.5260  1.2480 -0.3716
    3MOL   H333 1057   5.881   6.610   3.093 -3.0898  0.6942  2.7659
    3MOL   H334 1058   5.946   6.877   2.975 -0.8227  0.1656  3.4031
    3MOL   H335 1059   5.957   6.778   2.775  0.2186 -2.4566 -2.1818
    3MOL   H336 1060   6.077   6.693   2.877  0.3211  0.6070  0.0801
    3MOL   H337 1061   5.798   6.586   2.812 -0.0933  0.7182  2.2391
    3MOL   H338 1062   5.931   6.500   2.894 -1.8483 -0.4601  0.3083
    3MOL   H339 1063   5.923   6.600   2.609  0.6402 -2.5483 -2.1377
    3MOL   H340 1064   6.073   6.554   2.686  0.3512 -0.8716  0.6514
    3MOL   H341 1065   5.911   6.331   2.717  1.0059 -0.5104  0.5151
    3MOL   H342 1066   6.018   6.356   2.570 -0.7807  0.9587 -0.0748
    3MOL   H343 1067   5.850   6.388   2.561  0.2076 -1.6976 -0.2494
    3MOL   C344 1068   5.743   6.805   2.946  0.3495  0.1710  0.3309
    3MOL   C345 1069   5.699   6.888   2.818 -0.0988  0.1482  0.2434
    3MOL   C346 1070   5.545   6.901   2.826  0.6855 -0.0650 -0.1746
    3MOL   C347 1071   5.481   6.981   2.715  0.0766  0.0213  0.1045
    3MOL   C348 1072   5.342   7.035   2.735  0.4585  0.1974  0.5792
    3MOL   C349 1073   5.228   6.920   2.710 -0.9087  0.4468 -0.0373
    3MOL   H350 1074   5.692   6.709   2.932 -1.2875  0.9323  0.9038
    3MOL   H351 1075   5.703   6.855   3.034  1.2426 -0.1938  0.9535
    3MOL   H352 1076   5.735   6.851   2.721  2.2617  0.2400  1.0463
    3MOL   H353 1077   5.505   6.800   2.827  0.7679 -0.2093 -4.0076
    3MOL   H354 1078   5.520   6.949   2.920 -2.9665 -1.1742 -0.5272
    3MOL   H355 1079   5.543   7.066   2.687 -1.4737  2.1461  2.8211
    3MOL   H356 1080   5.488   6.914   2.630 -1.6325  0.8883 -0.7458
    3MOL   H357 1081   5.320   7.096   2.822  1.0639  0.8108  0.3062
    3MOL   H358 1082   5.337   7.117   2.663 -2.6779 -1.7517 -1.6084
    3MOL   H359 1083   5.131   6.966   2.727 -1.2882  0.9535 -3.2556
    3MOL   H360 1084   5.234   6.872   2.612 -1.7625 -2.5210  1.3134
    3MOL   H361 1085   5.237   6.844   2.788 -0.7396 -0.4730 -0.9369
    3MOL   H362 1086   5.749   6.985   2.816  1.6579 -0.7089  1.4842
    4MOL     C1 1087   2.417   5.925   0.054  0.4503  0.4351  0.3529
    4MOL     C2 1088   2.366   5.955   0.203 -0.4440  0.6999 -0.3178
    4MOL     C3 1089   2.449   6.065   0.274 -0.2850 -0.2657  0.1791
    4MOL     C4 1090   2.452   6.203   0.199 -0.1074 -0.2304 -0.2625
    4MOL     C5 1091   2.318   6.273   0.180  0.0186  0.4459 -0.1439
    4MOL     C6 1092   2.238   6.283   0.307  0.2357  0.1519 -0.1618
    4MOL     H7 1093   2.388   6.006   7.714  1.2779 -1.4051 -2.2971
    4MOL     H8 1094   2.524   5.906   0.053  0.2709 -0.6757 -1.3005
    4MOL     H9 1095   2.261   5.984   0.210 -0.0398  1.8957  1.0598
    4MOL    H10 1096   2.548   6.021   0.285 -0.5985 -0.7414  1.0439
    4MOL    H11 1097   2.417   6.097   0.373 -0.0192  1.8875 -0.3992
    4MOL    H12 1098   2.494   6.198   0.098 -1.4067  2.4070 -0.9849
    4MOL    H13 1099   2.510   6.270   0.261  1.4324 -1.2178 -0.6099
    4MOL    H14 1100   2.338   6.370   0.134  1.6100  0.9305  1.5368
    4MOL    H15 1101   2.261   6.224   0.101 -1.1248  0.5522  0.5930
    4MOL    H16 1102   2.146   6.340   0.295  0.2716 -0.1177 -1.8576
    4MOL    H17 1103   2.289   6.316   0.397 -0.5443  1.9668 -0.3628
    4MOL    H18 1104   2.196   6.185   0.330 -1.9714  1.0946 -0.0281
    4MOL    H19 1105   2.372   5.831   0.020  1.5696  0.3007 -0.7743
    4MOL    C20 1106   2.387   5.820   0.291 -0.2672  0.2629  0.0394
    4MOL    C21 1107   2.279   5.713   0.255  0.8479  0.0527  0.2186
    4MOL    C22 1108   2.332   5.569   0.220 -0.0674 -0.2584  0.1003
    4MOL    C23 1109   2.404   5.536   0.088  0.2750 -0.1098  0.4925
    4MOL    C24 1110   2.428   5.390   0.050 -0.5837 -0.6204  0.8486
    4MOL    C25 1111   2.499   5.380   7.639 -0.5555 -1.1074 -0.8559
    4MOL    H26 1112   2.372   5.853   0.394 -1.6726 -1.1813  0.3097
    4MOL    H27 1113   2.487   5.778   0.281  0.0818  1.3913 -1.4844
    4MOL    H28 1114   2.224   5.739   0.164 -1.0103 -2.2047  0.6629
    4MOL    H29 1115   2.241   5.508   0.217 -0.3672  0.2186 -0.5248
    4MOL    H30 1116   2.388   5.528   0.304  2.4918  3.0360  0.0948
    4MOL    H31 1117   2.492   5.600   0.088 -0.1109  0.4300  1.2294
    4MOL    H32 1118   2.340   5.590   0.018 -1.6637 -2.2918  0.5016
    4MOL    H33 1119   2.480   5.342   0.133 -2.2887 -2.0712  1.1211
    4MOL    H34 1120   2.333   5.340   0.027  0.0259 -1.6431  0.5091
    4MOL    H35 1121   2.583   5.449   7.630 -2.9903  1.7699 -2.7309
    4MOL    H36 1122   2.547   5.284   7.621  1.7094 -0.6563  2.2490
    4MOL    H37 1123   2.426   5.410   7.564  0.5900  2.5236 -0.6204
    4MOL    C38 1124   2.171   5.703   0.363 -0.1169  0.1069  0.6181
    4MOL    C39 1125   2.090   5.828   0.417 -0.1338  0.3103  0.3097
    4MOL    C40 1126   1.956   5.844   0.335  0.4935 -0.5065  0.1467
    4MOL    C41 1127   1.955   5.934   0.211 -0.4923  0.1091  0.4178
    4MOL    C42 1128   1.817   5.956   0.154 -0.6781  0.4792 -0.2698
    4MOL    C43 1129   1.745   5.831   0.115 -0.1696  0.4332  0.2171
    4MOL    H44 1130   2.225   5.655   0.444  1.6741  2.1877  0.7016
    4MOL    H45 1131   2.093   5.630   0.343  0.4111  0.0080 -1.1875
    4MOL    H46 1132   2.147   5.921   0.410  0.5095 -0.0094  1.1493
    4MOL    H47 1133   1.909   5.748   0.316  0.4862 -0.2468 -1.2185
    4MOL    H48 1134   1.892   5.881   0.415  1.4601 -0.0741  0.7330
    4MOL    H49 1135   1.994   6.033   0.234 -0.1955 -0.3386  1.8929
    4MOL    H50 1136   2.026   5.895   0.139  0.3992  1.1446  0.7231
    4MOL    H51 1137   1.761   6.011   0.230 -0.7001 -0.3745  0.3343
    4MOL    H52 1138   1.828   6.021   0.067  1.4074  2.0946  1.1483
    4MOL    H53 1139   1.648   5.857   0.072 -0.4689  0.3936  0.8698
    4MOL    H54 1140   1.722   5.762   0.196  1.8663  0.6129  0.9960
    4MOL    H55 1141   1.807   5.767   0.051 -1.1596  0.6225 -0.9422
    4MOL    C56 1142   2.061   5.802   0.571  0.7133 -0.2532 -0.8351
    4MOL    C57 1143   2.169   5.822   0.677  0.2605  0.6382 -0.0954
    4MOL    C58 1144   2.128   5.757   0.811  0.6329 -0.3024  0.5778
    4MOL    C59 1145   1.995   5.794   0.864  0.7305  0.2672  0.2855
    4MOL    C60 1146   1.961   5.705   0.981  0.4442  0.3278 -0.3192
    4MOL    C61 1147   2.062   5.678   1.090 -0.0484  0.3081 -0.2484
    4MOL    H62 1148   1.978   5.868   0.596  0.7684 -0.3979 -0.2611
    4MOL    H63 1149   2.013   5.705   0.580 -1.3782  0.8227 -0.0831
    4MOL    H64 1150   2.262   5.770   0.654 -1.9923 -3.9459  0.3793
    4MOL    H65 1151   2.128   5.648   0.801 -0.2396 -0.1496 -1.2816
    4MOL    H66 1152   2.209   5.757   0.884  1.8855 -4.4317 -0.6299
    4MOL    H67 1153   1.919   5.773   0.789  1.6230  0.6592 -0.7586
    4MOL    H68 1154   1.991   5.899   0.891  2.7482 -0.2392  2.6897
    4MOL    H69 1155   1.888   5.767   1.033  0.9717 -0.7901  1.8372
    4MOL    H70 1156   1.920   5.611   0.944 -0.1364 -0.4182  2.0891
    4MOL    H71 1157   2.142   5.611   1.057  0.6591 -0.2133  2.3441
    4MOL    H72 1158   2.104   5.776   1.112 -0.2332  0.0306  1.4446
    4MOL    H73 1159   2.027   5.642   1.187 -1.8496 -0.8380 -1.3128
    4MOL    C74 1160   2.190   5.978   0.693  0.2987  0.1837 -0.5645
    4MOL    C75 1161   2.311   6.017   0.787 -0.6060 -0.2874  0.2938
    4MOL    C76 1162   2.434   5.979   0.704  0.1510  0.2612  0.4376
    4MOL    C77 1163   2.563   5.975   0.796 -0.5109  0.2494  1.1787
    4MOL    C78 1164   2.668   5.884   0.736 -0.3017  0.1818 -0.1940
    4MOL    C79 1165   2.803   5.897   0.804 -0.0969  0.0447  0.7114
    4MOL    H80 1166   2.194   6.023   0.593 -3.4695  0.4834 -0.6406
    4MOL    H81 1167   2.098   6.017   0.736  0.6598  0.0856  0.3029
    4MOL    H82 1168   2.317   5.966   0.883 -0.4145 -0.7123  0.0592
    4MOL    H83 1169   2.447   5.887   0.646  2.1582  0.3864  0.6532
    4MOL    H84 1170   2.445   6.056   0.627  2.3798 -1.4750 -1.0508
    4MOL    H85 1171   2.596   6.079   0.800  0.4127  0.0749 -1.0416
    4MOL    H86 1172   2.541   5.941   0.897  1.6359 -2.3666  0.8354
    4MOL    H87 1173   2.680   5.903   0.630 -1.2113 -0.4341 -0.4168
    4MOL    H88 1174   2.641   5.779   0.745  0.8033 -0.1304 -0.5239
    4MOL    H89 1175   2.793   5.892   0.912 -0.8469 -0.6255  0.6157
    4MOL    H90 1176   2.869   5.821   0.764  0.4050  1.0833 -0.4805
    4MOL    H91 1177   2.843   5.995   0.777  2.0006 -0.8313  0.5411
    4MOL    C92 1178   2.300   6.166   0.825 -0.4088  0.9882 -0.6226
    4MOL    C93 1179   2.311   6.183   0.977 -0.9573 -0.1719 -0.6633
    4MOL    C94 1180   2.351   6.335   1.003 -0.0439  0.5243 -0.6662
    4MOL    C95 1181   2.478   6.405   0.950 -0.4509  0.8883  0.1201
    4MOL    C96 1182   2.600   6.396   1.044 -0.6150 -0.1210  0.2096
    4MOL    C97 1183   2.676   6.268   1.031  0.2023  0.2233 -0.5187
    4MOL    H98 1184   2.363   6.220   0.755  0.4242  0.9679  0.1183
    4MOL    H99 1185   2.199   6.199   0.798 -1.3388 -0.4844  0.9924
    4MOL   H100 1186   2.396   6.123   1.009 -0.6346  1.3900  1.5512
    4MOL   H101 1187   2.353   6.349   1.111  1.5555  0.1677 -0.6285
    4MOL   H102 1188   2.261   6.382   0.966 -1.9774 -1.6524  1.1263
    4MOL   H103 1189   2.505   6.366   0.852  2.0375  2.5389  0.0918
    4MOL   H104 1190   2.456   6.511   0.937 -0.1644  0.8173 -1.0109
    4MOL   H105 1191   2.670   6.480   1.035  0.3607 -0.8445  0.9165
    4MOL   H106 1192   2.558   6.398   1.144 -1.4384 -0.4122 -0.1279
    4MOL   H107 1193   2.602   6.188   1.031  1.8979 -1.5185  3.9012
    4MOL   H108 1194   2.727   6.247   0.938  0.9168 -1.1090  0.1614
    4MOL   H109 1195   2.750   6.249   1.109  1.4391  0.5465 -1.6012
    4MOL   C110 1196   2.181   6.133   1.038  0.1309  0.7259 -0.2316
    4MOL   C111 1197   2.174   6.115   1.188 -1.1288  0.0299 -0.1838
    4MOL   C112 1198   2.273   6.013   1.236 -0.3452  0.6857 -0.0176
    4MOL   C113 1199   2.405   6.062   1.286 -0.4965 -0.2606 -0.3412
    4MOL   C114 1200   2.517   5.962   1.321  0.4485  0.4489  0.4227
    4MOL   C115 1201   2.641   6.046   1.365 -0.0578 -0.5329 -0.1124
    4MOL   H116 1202   2.106   6.206   1.008  1.3873  1.3483 -1.9565
    4MOL   H117 1203   2.148   6.037   1.000  0.9823  0.3391 -0.0046
    4MOL   H118 1204   2.187   6.211   1.238  1.1441 -0.4872  0.2834
    4MOL   H119 1205   2.303   5.946   1.156 -0.5484  1.3431 -0.6498
    4MOL   H120 1206   2.231   5.948   1.313  0.7694 -1.7014 -1.3491
    4MOL   H121 1207   2.390   6.127   1.372  0.6921 -1.3045  0.6788
    4MOL   H122 1208   2.441   6.136   1.216  0.7132 -0.8439 -0.3539
    4MOL   H123 1209   2.526   5.897   1.234 -0.8884 -0.6061  1.0620
    4MOL   H124 1210   2.486   5.898   1.403 -0.9783 -0.1295 -0.5436
    4MOL   H125 1211   2.618   6.109   1.450 -1.2086 -0.1490 -0.6961
    4MOL   H126 1212   2.716   5.969   1.387  1.2482  0.0466 -2.3119
    4MOL   H127 1213   2.683   6.105   1.283  1.5397 -0.5693  0.6556
    4MOL   C128 1214   2.029   6.077   1.230 -0.4107 -0.6218 -1.2862
    4MOL   C129 1215   2.006   6.083   1.384  0.0988  0.4268 -0.3379
    4MOL   C130 1216   1.930   5.948   1.433 -0.0854  0.2389 -0.2492
    4MOL   C131 1217   2.018   5.832   1.471  0.3069  0.3707 -0.5442
    4MOL   C132 1218   1.937   5.725   1.540  0.3616  0.0367  0.5074
    4MOL   C133 1219   1.883   5.606   1.454 -0.3606  0.3966 -0.0801
    4MOL   H134 1220   1.987   5.984   1.191 -1.5406 -0.1916 -1.1126
    4MOL   H135 1221   1.962   6.146   1.179  0.0090  0.7941  0.0238
    4MOL   H136 1222   2.103   6.082   1.434 -0.9177  0.2968  1.6868
    4MOL   H137 1223   1.875   5.975   1.523  2.1211  1.8662  0.6552
    4MOL   H138 1224   1.856   5.913   1.362 -1.5790 -0.4524  1.6067
    4MOL   H139 1225   2.089   5.871   1.545 -0.5282  1.2866 -0.2150
    4MOL   H140 1226   2.070   5.796   1.382  2.7438  1.1544  0.5255
    4MOL   H141 1227   1.984   5.703   1.636  2.6774  0.3786 -0.4952
    4MOL   H142 1228   1.843   5.764   1.578  0.4313 -1.2150  2.0111
    4MOL   H143 1229   1.961   5.530   1.456  1.3526  2.0488 -1.5914
    4MOL   H144 1230   1.868   5.637   1.351 -1.5366  0.5716  0.1412
    4MOL   H145 1231   1.796   5.562   1.503  0.0772  0.8640  1.1554
    4MOL   C146 1232   1.926   6.210   1.418 -0.1433  0.2702  0.0633
    4MOL   C147 1233   1.918   6.251   1.562 -0.1364  0.3182  0.8699
    4MOL   C148 1234   1.818   6.374   1.582 -0.2183 -0.3139 -0.0535
    4MOL   C149 1235   1.751   6.386   1.717 -0.4613  0.9532 -0.1597
    4MOL   C150 1236   1.646   6.273   1.751  0.5046  0.6388  0.6642
    4MOL   C151 1237   1.576   6.297   1.886  0.4619  0.9453 -0.0266
    4MOL   H152 1238   1.965   6.294   1.362 -0.7463  0.5071 -0.0025
    4MOL   H153 1239   1.826   6.193   1.376 -0.5345  0.0286  1.0707
    4MOL   H154 1240   1.880   6.162   1.611  1.1057 -1.9952 -2.2320
    4MOL   H155 1241   1.736   6.372   1.510  0.3924 -1.1952 -0.7339
    4MOL   H156 1242   1.867   6.469   1.558  1.5188 -0.8570  1.3223
    4MOL   H157 1243   1.826   6.385   1.796 -2.2421 -1.2485  1.6014
    4MOL   H158 1244   1.702   6.483   1.715 -1.3784  0.4991 -0.2637
    4MOL   H159 1245   1.696   6.176   1.746 -1.4190 -0.2923 -1.0978
    4MOL   H160 1246   1.578   6.269   1.666  1.5112 -0.1851 -0.1086
    4MOL   H161 1247   1.641   6.316   1.972 -1.2516 -0.5332  1.6329
    4MOL   H162 1248   1.509   6.382   1.883  0.4900  1.0484  1.8427
    4MOL   H163 1249   1.511   6.213   1.909  2.8424 -1.4816 -1.8492
    4MOL   C164 1250   2.050   6.301   1.632 -0.8996 -0.4491  0.0647
    4MOL   C165 1251   2.081   6.227   1.766 -0.2009 -0.3817  0.5985
    4MOL   C166 1252   2.196   6.117   1.746 -0.4861  0.2891  0.6163
    4MOL   C167 1253   2.333   6.165   1.703  0.1065 -0.1561  0.1501
    4MOL   C168 1254   2.435   6.050   1.675  0.5446 -0.0592  0.4397
    4MOL   C169 1255   2.457   5.949   1.779 -0.1031 -0.8545 -0.0368
    4MOL   H170 1256   2.135   6.285   1.566  0.7144  1.3802  1.6390
    4MOL   H171 1257   2.063   6.409   1.638 -0.7091 -0.5174  1.0557
    4MOL   H172 1258   1.993   6.167   1.792  1.0262 -2.4733  0.1015
    4MOL   H173 1259   2.157   6.042   1.676  0.0259  0.7266 -0.1514
    4MOL   H174 1260   2.206   6.054   1.834  3.4722  0.0730  0.1052
    4MOL   H175 1261   2.373   6.231   1.781  2.1363  0.4196 -1.3448
    4MOL   H176 1262   2.326   6.226   1.613  0.7954 -0.4504 -0.1109
    4MOL   H177 1263   2.532   6.088   1.644  0.3187 -0.9352 -1.4324
    4MOL   H178 1264   2.397   5.997   1.588  1.3184  0.3733 -0.1679
    4MOL   H179 1265   2.480   5.852   1.734 -0.0884 -2.0683  2.4620
    4MOL   H180 1266   2.367   5.920   1.834 -1.1901 -0.1771 -1.4290
    4MOL   H181 1267   2.534   5.970   1.854 -0.4537 -1.9774  0.6538
    4MOL   C182 1268   2.117   6.319   1.888  0.3537  0.1938  0.6261
    4MOL   C183 1269   2.130   6.256   2.025  0.4836 -0.3636 -0.4913
    4MOL   C184 1270   1.998   6.192   2.065 -0.3901  0.0505  0.3232
    4MOL   C185 1271   1.997   6.123   2.208 -0.3596 -0.5704  0.5180
    4MOL   C186 1272   1.867   6.048   2.248 -0.0530 -0.6467 -0.4288
    4MOL   C187 1273   1.749   6.147   2.282  0.2067  0.7241  0.9106
    4MOL   H188 1274   2.210   6.373   1.874  0.6742 -0.1666  1.3457
    4MOL   H189 1275   2.044   6.401   1.889  0.3540  0.1968  0.3676
    4MOL   H190 1276   2.207   6.180   2.013  0.4280 -0.6659  1.0142
    4MOL   H191 1277   1.917   6.265   2.067 -0.6207 -0.2115  2.5415
    4MOL   H192 1278   1.981   6.115   1.991 -0.5431  0.8942 -0.5244
    4MOL   H193 1279   2.037   6.189   2.286 -1.1151  0.0679  0.3641
    4MOL   H194 1280   2.070   6.042   2.202  1.4189  1.0606 -0.6848
    4MOL   H195 1281   1.899   5.996   2.338  0.7584 -1.6400 -1.2783
    4MOL   H196 1282   1.845   5.971   2.173  2.4411 -1.8441  0.0124
    4MOL   H197 1283   1.697   6.133   2.377  0.4894 -1.5380  0.7662
    4MOL   H198 1284   1.676   6.135   2.202 -1.3331 -0.8853  2.5103
    4MOL   H199 1285   1.789   6.248   2.277  0.3769  0.6424  0.5533
    4MOL   C200 1286   2.190   6.364   2.130 -1.0635 -0.8814 -1.0118
    4MOL   C201 1287   2.325   6.311   2.196 -0.7004  0.7599 -0.1104
    4MOL   C202 1288   2.442   6.320   2.101 -0.0940 -0.4501 -0.0049
    4MOL   C203 1289   2.538   6.199   2.107  0.5968  0.4841 -0.4681
    4MOL   C204 1290   2.671   6.224   2.048  0.2346  0.3155  0.5189
    4MOL   C205 1291   2.758   6.101   2.060 -0.6570  0.9594  0.2959
    4MOL   H206 1292   2.106   6.380   2.197 -0.6832  1.4786 -1.0426
    4MOL   H207 1293   2.212   6.462   2.087  0.1045 -0.2806  0.9077
    4MOL   H208 1294   2.313   6.203   2.207  0.5880  0.6004 -0.1917
    4MOL   H209 1295   2.497   6.412   2.119 -1.6001  0.4350  0.1552
    4MOL   H210 1296   2.408   6.334   1.998 -1.2356  1.9854  0.6542
    4MOL   H211 1297   2.492   6.109   2.066  1.4443  0.7869 -2.1373
    4MOL   H212 1298   2.548   6.168   2.211  0.8280  1.1846 -0.2803
    4MOL   H213 1299   2.718   6.304   2.104  0.3873  0.2072  0.5462
    4MOL   H214 1300   2.657   6.248   1.943  1.6987  1.7256  0.6344
    4MOL   H215 1301   2.850   6.118   2.003 -1.3532  1.0243 -0.8270
    4MOL   H216 1302   2.790   6.074   2.160 -1.6179 -2.6342 -0.2740
    4MOL   H217 1303   2.723   6.012   2.007 -0.1866  0.6650  0.4738
    4MOL   C218 1304   2.353   6.371   2.337  0.6426  0.7979  0.0771
    4MOL   C219 1305   2.305   6.292   2.463  0.2651 -0.1832  0.6486
    4MOL   C220 1306   2.257   6.372   2.583  0.1736  0.9878 -1.5293
    4MOL   C221 1307   2.365   6.451   2.661  0.0278 -0.6105  0.2373
    4MOL   C222 1308   2.354   6.604   2.634 -0.7306 -0.1692 -0.0167
    4MOL   C223 1309   2.480   6.688   2.673 -0.0266  0.1790 -0.4051
    4MOL   H224 1310   2.459   6.382   2.358  0.4992  2.4821 -0.0637
    4MOL   H225 1311   2.317   6.473   2.337  1.0723  0.9496  0.1220
    4MOL   H226 1312   2.214   6.245   2.429  1.3182 -2.0096  0.3118
    4MOL   H227 1313   2.212   6.309   2.660 -0.2941  1.4518 -1.4259
    4MOL   H228 1314   2.187   6.447   2.549  0.9779  2.4976  0.0875
    4MOL   H229 1315   2.461   6.414   2.624  0.2103 -0.4604  0.5634
    4MOL   H230 1316   2.364   6.431   2.768  0.2237 -0.1187  0.3348
    4MOL   H231 1317   2.321   6.623   2.532 -1.5517 -0.2720  0.2195
    4MOL   H232 1318   2.268   6.647   2.685 -0.6134 -0.8968  0.8167
    4MOL   H233 1319   2.455   6.794   2.673  0.3387  0.2659 -0.1965
    4MOL   H234 1320   2.573   6.668   2.620 -0.4283 -0.4648 -0.8739
    4MOL   H235 1321   2.491   6.679   2.781  1.1145 -0.8288 -0.5942
    4MOL   C236 1322   2.407   6.178   2.498 -0.1538  0.0255 -0.3488
    4MOL   C237 1323   2.356   6.064   2.588 -0.4058  0.4943  0.1642
    4MOL   C238 1324   2.384   6.087   2.738  0.1649 -0.2102 -0.5287
    4MOL   C239 1325   2.306   5.989   2.822 -0.1876 -0.1773 -0.0631
    4MOL   C240 1326   2.283   6.029   2.965 -0.6482 -0.2792 -0.5233
    4MOL   C241 1327   2.201   5.917   3.033 -0.3244  0.6653  0.4197
    4MOL   H242 1328   2.435   6.125   2.407  2.1601 -1.8928  1.4045
    4MOL   H243 1329   2.504   6.218   2.526  0.1128  0.9369 -2.5312
    4MOL   H244 1330   2.248   6.076   2.576 -0.3715 -0.5374 -1.2657
    4MOL   H245 1331   2.487   6.060   2.760 -0.1816 -0.7170  0.4893
    4MOL   H246 1332   2.369   6.191   2.765  0.8403  0.0445 -1.1003
    4MOL   H247 1333   2.352   5.890   2.833 -1.0059 -0.5020  0.5919
    4MOL   H248 1334   2.213   5.967   2.769  1.0998  0.2574 -2.5396
    4MOL   H249 1335   2.373   6.050   3.023 -0.6125  0.2745 -0.7727
    4MOL   H250 1336   2.239   6.128   2.976  2.6599  1.1354  0.5430
    4MOL   H251 1337   2.118   5.889   2.968 -0.1892  0.0071  0.5280
    4MOL   H252 1338   2.265   5.829   3.044  0.7038  1.5171  1.4432
    4MOL   H253 1339   2.164   5.937   3.134  0.5944 -0.7334  1.0555
    4MOL   C254 1340   2.395   5.926   2.528  0.0101  0.0879 -0.4070
    4MOL   C255 1341   2.323   5.870   2.401  0.8639  0.2479  0.1552
    4MOL   C256 1342   2.172   5.863   2.430 -0.2504  0.7010  0.3741
    4MOL   C257 1343   2.126   5.759   2.536  0.4819 -0.0391  0.2496
    4MOL   C258 1344   1.978   5.783   2.583 -0.0795  0.0144  0.2315
    4MOL   C259 1345   1.933   5.687   2.690 -0.4588 -0.1321 -0.6114
    4MOL   H260 1346   2.373   5.847   2.600  1.0968 -0.7271 -0.9695
    4MOL   H261 1347   2.504   5.931   2.522  0.2438 -2.4156  0.9755
    4MOL   H262 1348   2.328   5.947   2.324 -0.2088  0.7032  0.5264
    4MOL   H263 1349   2.121   5.955   2.457 -0.4299  0.2551  1.5952
    4MOL   H264 1350   2.123   5.848   2.334  3.5058 -3.5126 -1.0696
    4MOL   H265 1351   2.144   5.657   2.502  1.7670  0.0801  0.5206
    4MOL   H266 1352   2.179   5.783   2.629  1.4925  0.8703 -0.5490
    4MOL   H267 1353   1.913   5.769   2.497  0.2189 -2.1437  0.3419
    4MOL   H268 1354   1.970   5.886   2.618  1.0719  0.1519  0.0961
    4MOL   H269 1355   1.985   5.710   2.782 -0.3266 -0.6108 -0.5644
    4MOL   H270 1356   1.952   5.582   2.668  2.6570  0.6433 -1.9325
    4MOL   H271 1357   1.827   5.704   2.713 -0.3221  0.2623 -0.2766
    4MOL   C272 1358   2.388   5.741   2.348  0.1385 -0.0680 -0.0042
    4MOL   C273 1359   2.431   5.741   2.197 -0.2802 -0.1242 -0.4281
    4MOL   C274 1360   2.319   5.783   2.095  0.1842  0.5129  0.1643
    4MOL   C275 1361   2.194   5.687   2.085 -0.0279 -0.2498  0.3793
    4MOL   C276 1362   2.071   5.738   2.007 -0.1704  0.3340 -0.4247
    4MOL   C277 1363   1.956   5.642   1.989 -0.3186  0.8851  0.4188
    4MOL   H278 1364   2.484   5.722   2.395  0.9038  2.3444 -0.5370
    4MOL   H279 1365   2.323   5.658   2.374  0.6529 -0.9693 -1.5553
    4MOL   H280 1366   2.499   5.826   2.193 -0.9416  0.4245 -0.0739
    4MOL   H281 1367   2.362   5.788   1.995 -0.0787  0.7827  0.0628
    4MOL   H282 1368   2.279   5.883   2.110  0.0604  0.7084 -1.3428
    4MOL   H283 1369   2.157   5.669   2.186  1.1155 -0.7728  0.7140
    4MOL   H284 1370   2.232   5.589   2.055  0.3968  0.4078 -1.2549
    4MOL   H285 1371   2.032   5.821   2.065 -1.2940 -2.1927  2.5721
    4MOL   H286 1372   2.089   5.786   1.911  0.6037  0.4002 -0.2538
    4MOL   H287 1373   1.912   5.659   1.891 -3.0971 -2.9316  0.8985
    4MOL   H288 1374   1.985   5.538   2.002 -1.5844  0.4953  0.1460
    4MOL   H289 1375   1.874   5.667   2.056 -2.1111 -1.1498 -0.9453
    4MOL   C290 1376   2.537   5.637   2.160  0.0653 -0.0601 -0.4131
    4MOL   C291 1377   2.676   5.673   2.116  0.1066 -0.1431 -0.7636
    4MOL   C292 1378   2.760   5.705   2.239 -0.5327  0.4524  0.5474
    4MOL   C293 1379   2.892   5.788   2.206  0.6594  0.2156 -0.0919
    4MOL   C294 1380   2.977   5.825   2.330 -0.1859 -0.3931 -1.1165
    4MOL   C295 1381   2.917   5.928   2.427  0.1476 -0.4232 -0.2308
    4MOL   H296 1382   2.500   5.582   2.072  0.2844 -0.6477 -0.1418
    4MOL   H297 1383   2.548   5.564   2.240  0.9318  1.0072  0.4360
    4MOL   H298 1384   2.664   5.764   2.057 -2.1073 -2.3697 -3.9388
    4MOL   H299 1385   2.783   5.609   2.285 -2.1651  0.8185  2.1561
    4MOL   H300 1386   2.701   5.766   2.306 -1.4877 -1.6848  1.7165
    4MOL   H301 1387   2.954   5.725   2.142 -0.5678 -1.7171  0.5882
    4MOL   H302 1388   2.865   5.873   2.143  1.6919 -0.0785 -0.9546
    4MOL   H303 1389   3.076   5.856   2.298  0.0249 -1.8915 -1.9354
    4MOL   H304 1390   2.997   5.732   2.384  1.0261  0.8624  0.6487
    4MOL   H305 1391   2.810   5.906   2.437  0.6089 -2.5909  0.0877
    4MOL   H306 1392   2.926   6.033   2.399  0.3297 -0.8510 -1.8142
    4MOL   H307 1393   2.960   5.908   2.525 -0.7465 -1.7872 -0.0983
    4MOL   C308 1394   2.740   5.554   2.044 -0.3128  0.0500 -0.3331
    4MOL   C309 1395   2.745   5.574   1.891  0.5260  0.2630 -0.4872
    4MOL   C310 1396   2.607   5.599   1.827 -0.0809 -0.2040  0.2361
    4MOL   C311 1397   2.514   5.475   1.810  0.1399 -0.1815 -0.2519
    4MOL   C312 1398   2.365   5.509   1.762  0.0553 -0.0529 -0.0803
    4MOL   C313 1399   2.271   5.387   1.731 -0.1187 -0.0444  0.2734
    4MOL   H314 1400   2.841   5.546   2.083 -0.8451  1.0936  1.2798
    4MOL   H315 1401   2.692   5.461   2.076  1.0026 -0.6328 -0.2805
    4MOL   H316 1402   2.804   5.665   1.882 -0.6578  1.0726 -0.1188
    4MOL   H317 1403   2.611   5.640   1.726  1.3057 -3.2140 -1.0010
    4MOL   H318 1404   2.547   5.667   1.887  0.3006  1.5311 -1.3185
    4MOL   H319 1405   2.504   5.415   1.900 -0.1812  0.1870 -0.0420
    4MOL   H320 1406   2.558   5.409   1.736  0.9118  0.0923 -0.0418
    4MOL   H321 1407   2.323   5.570   1.843  0.5467 -1.3301  1.1667
    4MOL   H322 1408   2.367   5.567   1.670 -0.2387 -1.6704 -1.1130
    4MOL   H323 1409   2.325   5.316   1.669 -0.0782  0.3135 -0.1045
    4MOL   H324 1410   2.187   5.438   1.685 -0.9000  1.7674  3.5343
    4MOL   H325 1411   2.231   5.331   1.816  0.0397 -2.5392 -1.2697
    4MOL   C326 1412   2.828   5.467   1.813  0.2386  0.0988 -0.3612
    4MOL   C327 1413   2.985   5.465   1.830 -0.7985  0.7867  0.2609
    4MOL   C328 1414   3.038   5.355   1.733  0.5170  0.2510 -0.2757
    4MOL   C329 1415   2.961   5.214   1.731  0.7757  0.2303  0.0321
    4MOL   C330 1416   3.034   5.104   1.654 -0.3980 -0.7908  0.5185
    4MOL   C331 1417   3.100   5.154   1.526 -0.1798 -0.1195  0.3391
    4MOL   H332 1418   2.807   5.474   1.707 -1.9211  1.1529  0.1020
    4MOL   H333 1419   2.778   5.372   1.831 -0.2202  0.5202  0.6343
    4MOL   H334 1420   3.003   5.438   1.934  0.1258  1.4600  0.2830
    4MOL   H335 1421   3.033   5.396   1.632  1.4379 -0.8332 -0.7761
    4MOL   H336 1422   3.145   5.338   1.748  0.7100  1.7760  0.1252
    4MOL   H337 1423   2.860   5.211   1.691 -0.6825 -1.0399  3.6388
    4MOL   H338 1424   2.952   5.177   1.833 -0.7966 -2.4581 -1.0257
    4MOL   H339 1425   3.103   5.053   1.721  0.9120 -1.3987 -1.2633
    4MOL   H340 1426   2.962   5.025   1.632  1.8306 -2.9325  0.7212
    4MOL   H341 1427   3.167   5.238   1.542 -0.5052 -0.1102  1.7618
    4MOL   H342 1428   3.038   5.170   1.438 -0.2293  0.5989  0.5061
    4MOL   H343 1429   3.162   5.074   1.486 -1.0871  0.2959 -1.9842
    4MOL   C344 1430   3.053   5.605   1.816 -0.4444 -0.1123 -0.5278
    4MOL   C345 1431   3.204   5.603   1.797  0.3068  0.2034 -0.0109
    4MOL   C346 1432   3.279   5.736   1.803  0.4038 -0.9089  0.4053
    4MOL   C347 1433   3.422   5.733   1.760 -0.1110  0.1782  0.4098
    4MOL   C348 1434   3.426   5.721   1.606  0.5392  0.0853  0.1454
    4MOL   C349 1435   3.331   5.807   1.516 -0.2144  0.3953  0.5170
    4MOL   H350 1436   3.006   5.659   1.733 -0.1779  2.9499  1.2295
    4MOL   H351 1437   3.034   5.669   1.902  3.2064  0.3938  0.0128
    4MOL   H352 1438   3.227   5.554   1.702 -1.1480 -1.6501  0.5643
    4MOL   H353 1439   3.229   5.814   1.745  1.1961 -2.2240 -2.1252
    4MOL   H354 1440   3.279   5.764   1.908 -1.4730  0.8902 -0.0408
    4MOL   H355 1441   3.471   5.827   1.785  0.2222 -0.5001  2.3636
    4MOL   H356 1442   3.490   5.657   1.799 -0.4526 -1.7048 -2.5225
    4MOL   H357 1443   3.528   5.744   1.572  0.4881  0.5444  0.3017
    4MOL   H358 1444   3.401   5.616   1.600 -2.8224  0.7577  1.6598
    4MOL   H359 1445   3.365   5.908   1.543  0.7242 -0.3393  2.1417
    4MOL   H360 1446   3.351   5.786   1.411 -0.2758  0.7422  0.4322
    4MOL   H361 1447   3.225   5.790   1.536  0.1045 -4.1328 -1.0678
    4MOL   H362 1448   3.256   5.553   1.879  0.6172 -0.2871 -0.5003
    5MOL     C1 1449   0.552   5.222   3.378 -0.2429  0.5753 -0.1874
    5MOL     C2 1450   0.475   5.094   3.420  0.3547 -0.0068 -0.1252
    5MOL     C3 1451   0.402   5.026   3.297  0.1534  0.2364 -0.2178
    5MOL     C4 1452   0.269   5.096   3.254 -0.1518 -0.4119  0.2333
    5MOL     C5 1453   0.231   5.068   3.107 -0.1256 -0.2823  0.5815
    5MOL     C6 1454   0.307   5.144   2.996 -0.3990 -0.1861  0.0775
    5MOL     H7 1455   0.619   5.265   3.452 -0.5341 -1.0663  1.0624
    5MOL     H8 1456   0.611   5.200   3.289 -0.3082  0.4022 -0.1890
    5MOL     H9 1457   0.553   5.022   3.445  0.5581 -0.1262 -1.0752
    5MOL    H10 1458   0.378   4.925   3.329  0.5574 -0.2627 -1.4634
    5MOL    H11 1459   0.467   5.030   3.210  0.7145  0.9057  0.2311
    5MOL    H12 1460   0.278   5.204   3.261 -1.8932 -0.2684  0.5959
    5MOL    H13 1461   0.192   5.050   3.317 -0.2963 -0.1881  0.2186
    5MOL    H14 1462   0.231   4.963   3.077  0.7355  0.2830 -1.5150
    5MOL    H15 1463   0.129   5.103   3.090 -1.0222 -2.3609  1.4772
    5MOL    H16 1464   0.406   5.101   2.982  0.3342  1.6077 -0.3844
    5MOL    H17 1465   0.311   5.248   3.031  2.9870 -1.1039  2.7003
    5MOL    H18 1466   0.270   5.138   2.894 -1.5188  2.1252  0.3127
    5MOL    H19 1467   0.482   5.300   3.349  0.4650  0.5713 -1.9770
    5MOL    C20 1468   0.388   5.121   3.552 -0.6958 -0.6421  0.5279
    5MOL    C21 1469   0.465   5.130   3.684  0.3582 -0.6319 -0.2139
    5MOL    C22 1470   0.399   5.226   3.794  0.2907  0.7406 -0.2176
    5MOL    C23 1471   0.243   5.211   3.813  0.9436 -0.3064  0.5000
    5MOL    C24 1472   0.171   5.338   3.880 -0.3402  1.0387 -1.0305
    5MOL    C25 1473   0.226   5.369   4.017  0.2723  0.2628  0.5174
    5MOL    H26 1474   0.320   5.036   3.560  0.0071 -1.4883 -1.8574
    5MOL    H27 1475   0.332   5.212   3.531  1.3419  0.1446 -1.7536
    5MOL    H28 1476   0.559   5.180   3.665 -0.3128  0.5675 -0.3946
    5MOL    H29 1477   0.400   5.333   3.770 -2.9626  0.3093 -2.5711
    5MOL    H30 1478   0.449   5.213   3.890  1.1352 -0.8618 -0.8481
    5MOL    H31 1479   0.222   5.128   3.880 -0.1997 -1.8811 -1.7482
    5MOL    H32 1480   0.179   5.187   3.728  1.1277 -2.6388  0.9937
    5MOL    H33 1481   0.183   5.419   3.809 -0.2388  0.6007 -1.5193
    5MOL    H34 1482   0.063   5.328   3.893 -0.2126  2.5071  1.4341
    5MOL    H35 1483   0.282   5.286   4.061 -0.1380 -0.0232  0.5021
    5MOL    H36 1484   0.295   5.452   4.036 -0.6588  0.9470  0.9073
    5MOL    H37 1485   0.142   5.381   4.084 -1.0836  1.6552 -1.3783
    5MOL    C38 1486   0.516   4.993   3.746 -0.0295  0.2351 -0.3015
    5MOL    C39 1487   0.631   5.008   3.848  0.1395 -0.0592  0.4701
    5MOL    C40 1488   0.579   4.998   3.994  0.1651 -0.2263 -0.5428
    5MOL    C41 1489   0.666   5.080   4.097 -0.4614 -0.0803 -0.5689
    5MOL    C42 1490   0.582   5.110   4.226 -0.5237  0.5280 -0.0215
    5MOL    C43 1491   0.662   5.113   4.350  0.1777 -0.2168 -0.3166
    5MOL    H44 1492   0.556   4.937   3.661  0.4715 -0.7980  0.6094
    5MOL    H45 1493   0.427   4.946   3.787 -1.8526  3.1378 -0.7500
    5MOL    H46 1494   0.672   5.108   3.841  0.4268 -0.3267 -2.1361
    5MOL    H47 1495   0.476   5.032   4.001  0.4393  0.5525 -0.2615
    5MOL    H48 1496   0.575   4.895   4.029  2.0103  0.3154  1.4014
    5MOL    H49 1497   0.760   5.030   4.118  0.1908  1.0727 -0.7081
    5MOL    H50 1498   0.708   5.172   4.057  0.7607 -0.0414  0.7686
    5MOL    H51 1499   0.546   5.213   4.221 -2.9775 -0.3271 -0.8362
    5MOL    H52 1500   0.504   5.035   4.235  0.9038 -0.9134  0.6491
    5MOL    H53 1501   0.729   5.030   4.371 -0.3027 -0.5800 -0.2098
    5MOL    H54 1502   0.600   5.129   4.438  1.8605 -2.3470  1.3029
    5MOL    H55 1503   0.727   5.201   4.350  0.4516 -0.4007 -2.1557
    5MOL    C56 1504   0.740   4.907   3.826  0.3242 -0.2070  0.5153
    5MOL    C57 1505   0.831   4.936   3.710  0.5470  0.1888  1.0010
    5MOL    C58 1506   0.846   4.810   3.623  0.6164 -0.5004 -0.1635
    5MOL    C59 1507   0.887   4.833   3.471  0.2421 -0.4576  0.2463
    5MOL    C60 1508   0.885   4.716   3.385  0.0150  0.5555  0.1284
    5MOL    C61 1509   0.950   4.745   3.249  0.4826 -0.9899 -0.3518
    5MOL    H62 1510   0.803   4.912   3.915  3.3770  3.2798 -1.7289
    5MOL    H63 1511   0.691   4.810   3.823 -0.1427  0.0457 -0.3617
    5MOL    H64 1512   0.776   5.004   3.645 -0.3659 -0.2070  1.3536
    5MOL    H65 1513   0.916   4.738   3.666  1.6606 -0.8727 -2.3848
    5MOL    H66 1514   0.749   4.760   3.616 -0.1151  0.8589  0.2816
    5MOL    H67 1515   0.984   4.883   3.470  0.4249 -0.8119 -0.3906
    5MOL    H68 1516   0.812   4.902   3.432  1.3708  0.8738  0.3870
    5MOL    H69 1517   0.940   4.637   3.436 -4.5569 -0.5220  3.7015
    5MOL    H70 1518   0.787   4.675   3.361  0.2560 -1.2985  2.1641
    5MOL    H71 1519   0.870   4.770   3.179  0.3697 -0.8109 -0.1596
    5MOL    H72 1520   1.019   4.830   3.257 -0.7670 -0.1065  1.2472
    5MOL    H73 1521   1.005   4.656   3.218  1.8119 -0.9309  1.7747
    5MOL    C74 1522   0.968   4.999   3.747 -0.6970 -0.2272 -0.2314
    5MOL    C75 1523   0.972   5.141   3.798 -0.0631  0.1174 -0.2843
    5MOL    C76 1524   1.104   5.173   3.880  0.4794 -0.4103 -0.7119
    5MOL    C77 1525   1.094   5.196   4.029 -0.2642 -0.4212 -0.0427
    5MOL    C78 1526   1.083   5.069   4.118 -0.4463 -0.2770  0.4047
    5MOL    C79 1527   1.048   5.098   4.264  0.7929  0.0955 -0.1130
    5MOL    H80 1528   1.019   4.933   3.818  0.1124 -0.9384 -1.4686
    5MOL    H81 1529   1.037   4.984   3.664  1.3607  2.2958  0.9505
    5MOL    H82 1530   0.903   5.161   3.880  0.2555 -0.0279  0.0206
    5MOL    H83 1531   1.171   5.088   3.872  2.0165  0.5560  1.6487
    5MOL    H84 1532   1.159   5.254   3.830 -1.5306  2.2955  1.3153
    5MOL    H85 1533   1.179   5.253   4.065 -0.9796  0.7121 -0.1167
    5MOL    H86 1534   1.012   5.262   4.059  0.2993 -0.3011  1.2730
    5MOL    H87 1535   1.181   5.024   4.102 -0.9249 -2.0008  2.1230
    5MOL    H88 1536   1.011   4.996   4.079 -2.3575  2.7752 -2.1026
    5MOL    H89 1537   1.040   5.003   4.315 -0.3972  0.7035  0.8526
    5MOL    H90 1538   1.115   5.162   4.322 -0.6236  2.1261 -0.6469
    5MOL    H91 1539   0.952   5.150   4.266  1.1859  0.9436 -1.8164
    5MOL    C92 1540   0.951   5.243   3.684 -0.0768 -0.1377  0.8183
    5MOL    C93 1541   0.924   5.391   3.720 -0.0462  0.6854 -0.6730
    5MOL    C94 1542   0.990   5.496   3.631 -0.0069  0.5490 -0.0495
    5MOL    C95 1543   0.925   5.517   3.497  0.2834 -0.3672  0.4730
    5MOL    C96 1544   0.985   5.617   3.402 -1.1400  0.4344  0.5775
    5MOL    C97 1545   0.966   5.763   3.454  0.3506 -0.2224 -0.1238
    5MOL    H98 1546   1.034   5.246   3.614 -0.9979 -0.7337 -0.3048
    5MOL    H99 1547   0.869   5.197   3.629  0.8030  0.7926 -1.2983
    5MOL   H100 1548   0.976   5.398   3.816 -0.5903 -0.4984 -0.2922
    5MOL   H101 1549   1.094   5.472   3.613 -1.1797 -1.5451 -4.9491
    5MOL   H102 1550   0.995   5.589   3.688  1.3379  0.8351 -0.6335
    5MOL   H103 1551   0.909   5.424   3.441 -1.2958  0.7316 -0.9397
    5MOL   H104 1552   0.820   5.540   3.515 -0.1444 -1.9347  0.0626
    5MOL   H105 1553   1.090   5.596   3.378 -0.5808  3.2943  0.3473
    5MOL   H106 1554   0.957   5.619   3.297  1.4996 -2.0594 -0.2476
    5MOL   H107 1555   1.000   5.843   3.389  0.6937 -0.2784 -0.0165
    5MOL   H108 1556   0.859   5.772   3.471 -0.0849  0.8113 -3.1687
    5MOL   H109 1557   1.018   5.766   3.550  2.1345  1.3672 -1.1147
    5MOL   C110 1558   0.774   5.408   3.756  0.8970  0.2452 -0.1335
    5MOL   C111 1559   0.754   5.529   3.853  0.0667 -0.5093  0.6325
    5MOL   C112 1560   0.803   5.493   3.994  0.2598  0.3121  0.0993
    5MOL   C113 1561   0.816   5.624   4.077 -0.0639 -0.7456 -0.2953
    5MOL   C114 1562   0.915   5.611   4.192 -0.7594  0.1788 -1.4773
    5MOL   C115 1563   0.877   5.506   4.296 -0.7074 -0.2445  0.4619
    5MOL   H116 1564   0.707   5.416   3.671 -0.2618  2.7235  0.9519
    5MOL   H117 1565   0.725   5.325   3.809  0.0594  1.5339  1.1594
    5MOL   H118 1566   0.819   5.611   3.821  1.3160 -0.7963  2.3513
    5MOL   H119 1567   0.899   5.442   3.995  0.3696  0.5175 -0.0050
    5MOL   H120 1568   0.743   5.418   4.046  1.2658  0.3263  1.2820
    5MOL   H121 1569   0.719   5.641   4.124  0.9282  1.1560  1.1537
    5MOL   H122 1570   0.836   5.715   4.021  1.0410  0.0463  1.3252
    5MOL   H123 1571   0.927   5.711   4.236  0.9135 -0.9222  0.6914
    5MOL   H124 1572   1.013   5.597   4.146  0.2023  2.3821 -0.2007
    5MOL   H125 1573   0.812   5.558   4.367 -1.5412 -1.7416  0.8402
    5MOL   H126 1574   0.842   5.413   4.251  0.7202 -0.7125  0.3241
    5MOL   H127 1575   0.968   5.475   4.348 -0.0755 -2.1990 -1.7646
    5MOL   C128 1576   0.607   5.579   3.851  0.1560  0.0458 -0.5503
    5MOL   C129 1577   0.574   5.658   3.724 -0.8457 -0.0040 -0.2562
    5MOL   C130 1578   0.662   5.780   3.693 -0.0822 -0.0672 -0.0330
    5MOL   C131 1579   0.659   5.899   3.797 -0.0583  0.5012  0.0416
    5MOL   C132 1580   0.796   5.967   3.798  0.0784 -0.5600  0.2427
    5MOL   C133 1581   0.805   6.093   3.884 -0.1209  0.4622  0.1644
    5MOL   H134 1582   0.592   5.645   3.937  1.3363 -2.8751  2.0000
    5MOL   H135 1583   0.542   5.494   3.871 -0.1670  0.4945  0.3695
    5MOL   H136 1584   0.597   5.594   3.638 -0.0534  0.5010 -0.4311
    5MOL   H137 1585   0.762   5.739   3.679 -0.4813 -1.8436  1.9880
    5MOL   H138 1586   0.636   5.821   3.596  0.7902 -0.9687 -0.6599
    5MOL   H139 1587   0.636   5.856   3.894 -1.6304 -0.5105 -0.7660
    5MOL   H140 1588   0.577   5.964   3.768  1.6362  2.0010 -1.5330
    5MOL   H141 1589   0.863   5.892   3.840  0.8609 -0.3145 -0.5357
    5MOL   H142 1590   0.839   5.978   3.698 -0.0065 -1.9915  0.0492
    5MOL   H143 1591   0.763   6.084   3.984 -0.0627  1.9596  0.3411
    5MOL   H144 1592   0.743   6.167   3.832  2.2084  2.2170 -0.2106
    5MOL   H145 1593   0.905   6.133   3.902  0.0540 -0.0865  0.4049
    5MOL   C146 1594   0.426   5.702   3.722  1.0128 -0.2244 -0.8253
    5MOL   C147 1595   0.366   5.746   3.590  0.2076  0.1275 -0.4343
    5MOL   C148 1596   0.255   5.851   3.630  0.0847 -0.1625 -0.4369
    5MOL   C149 1597   0.292   5.990   3.675 -0.0197  0.0043  0.3031
    5MOL   C150 1598   0.175   6.094   3.675 -0.2339  1.2102  0.2222
    5MOL   C151 1599   0.221   6.218   3.751  0.2907 -0.4911 -0.1969
    5MOL   H152 1600   0.368   5.628   3.777 -0.3534  1.1596 -0.3828
    5MOL   H153 1601   0.422   5.784   3.793 -0.9762 -2.6311  1.9741
    5MOL   H154 1602   0.434   5.804   3.528 -1.8120  1.3912 -1.5525
    5MOL   H155 1603   0.203   5.801   3.712 -0.1281  0.8597  0.0641
    5MOL   H156 1604   0.185   5.862   3.547 -0.7328  0.3779  0.3153
    5MOL   H157 1605   0.340   5.979   3.772  2.3045 -1.1317 -0.9245
    5MOL   H158 1606   0.375   6.034   3.619  1.0084 -1.4496  0.6619
    5MOL   H159 1607   0.090   6.047   3.724 -1.9449  2.4951 -1.4844
    5MOL   H160 1608   0.139   6.117   3.575 -2.9731  0.6732  1.0609
    5MOL   H161 1609   0.258   6.200   3.852 -1.3527 -2.5629  0.0562
    5MOL   H162 1610   0.298   6.271   3.694  2.5532 -1.7644  1.6072
    5MOL   H163 1611   0.139   6.290   3.753 -1.7045 -2.6895 -0.6598
    5MOL   C164 1612   0.311   5.620   3.525 -0.1250  0.0882  0.3230
    5MOL   C165 1613   0.267   5.639   3.384 -0.2995 -0.1183  0.4669
    5MOL   C166 1614   0.395   5.670   3.294  0.4833  0.8752 -0.5985
    5MOL   C167 1615   0.370   5.748   3.158  0.1388 -0.9497 -0.0688
    5MOL   C168 1616   0.418   5.892   3.158 -0.6631 -0.4298 -0.6757
    5MOL   C169 1617   0.337   5.986   3.257 -0.3300 -0.0237  0.2483
    5MOL   H170 1618   0.382   5.537   3.533 -0.4257 -0.1080  1.0631
    5MOL   H171 1619   0.220   5.583   3.571 -0.1512  0.1815  0.3451
    5MOL   H172 1620   0.208   5.730   3.375 -0.9412 -0.6884 -1.3909
    5MOL   H173 1621   0.430   5.571   3.264  0.6395  0.9684 -0.7226
    5MOL   H174 1622   0.481   5.700   3.355 -2.2003  0.0649  3.8117
    5MOL   H175 1623   0.263   5.738   3.140  0.1617  0.7779 -1.2599
    5MOL   H176 1624   0.414   5.691   3.076  0.4387 -0.5310 -0.1969
    5MOL   H177 1625   0.426   5.917   3.052 -0.9033 -0.2991 -0.6643
    5MOL   H178 1626   0.522   5.889   3.192 -1.1742 -0.2293  0.9352
    5MOL   H179 1627   0.346   6.087   3.217 -0.4127  0.0504  0.4125
    5MOL   H180 1628   0.364   5.997   3.363 -0.4658 -0.3682  0.3189
    5MOL   H181 1629   0.229   5.974   3.268 -0.2818  1.1054  2.2314
    5MOL   C182 1630   0.192   5.510   3.335 -0.3622 -0.1308 -0.3789
    5MOL   C183 1631   0.051   5.489   3.396 -0.4310  0.1430 -0.0401
    5MOL   C184 1632   7.706   5.367   3.335 -0.0599  0.2083 -0.4202
    5MOL   C185 1633   7.569   5.317   3.401 -0.0773  0.5783 -0.7847
    5MOL   C186 1634   7.489   5.224   3.298  0.4345 -1.1044 -0.3470
    5MOL   C187 1635   7.548   5.085   3.292  0.3477  0.4145 -0.2852
    5MOL   H188 1636   0.182   5.508   3.226  0.1763 -0.6444 -0.4247
    5MOL   H189 1637   0.258   5.425   3.352 -2.6657 -2.0787 -0.7169
    5MOL   H190 1638   0.061   5.460   3.500 -0.0322  0.5247  0.0301
    5MOL   H191 1639   7.682   5.391   3.232 -2.4243  0.0007  0.0403
    5MOL   H192 1640   0.049   5.283   3.327  0.0894  0.3483 -0.5598
    5MOL   H193 1641   7.508   5.400   3.434  1.4471  2.0585 -1.5802
    5MOL   H194 1642   7.582   5.258   3.492 -0.6104  0.9785 -0.4475
    5MOL   H195 1643   7.489   5.262   3.196  0.2733  0.8823  0.3671
    5MOL   H196 1644   7.386   5.217   3.335  0.7246 -0.3492  0.6453
    5MOL   H197 1645   7.633   5.085   3.224  0.1532  0.9865 -0.5297
    5MOL   H198 1646   7.485   5.018   3.234 -0.2809  0.4369  0.3492
    5MOL   H199 1647   7.568   5.037   3.388 -0.5935 -0.0616 -0.3184
    5MOL   C200 1648   7.690   5.617   3.381 -0.4726  0.1656  0.0901
    5MOL   C201 1649   7.658   5.709   3.502  0.5404 -0.0917  0.1003
    5MOL   C202 1650   7.578   5.837   3.451 -0.6105 -0.0644 -0.1319
    5MOL   C203 1651   7.665   5.921   3.354  0.1569  0.2162 -0.2189
    5MOL   C204 1652   7.604   6.052   3.309 -0.0546 -0.0589 -0.3372
    5MOL   C205 1653   7.700   6.139   3.225  0.0051  0.0582 -0.1289
    5MOL   H206 1654   7.605   5.589   3.319  1.3751  0.5127 -2.6782
    5MOL   H207 1655   0.016   5.682   3.311 -1.9361  1.5127  0.1997
    5MOL   H208 1656   0.022   5.730   3.558 -0.1457  1.7791  0.5350
    5MOL   H209 1657   7.548   5.897   3.537 -0.5881  0.7906 -0.7132
    5MOL   H210 1658   7.491   5.787   3.410  0.0714  0.2901 -2.0700
    5MOL   H211 1659   7.684   5.859   3.267  0.8851 -0.7916  0.6435
    5MOL   H212 1660   0.034   5.934   3.404  0.1141 -0.4826  0.0529
    5MOL   H213 1661   7.577   6.123   3.387  0.9996  1.0966 -1.0075
    5MOL   H214 1662   7.518   6.032   3.246  0.9496 -0.5235 -1.5794
    5MOL   H215 1663   7.649   6.228   3.188  1.1040  0.6461 -0.2674
    5MOL   H216 1664   0.056   6.173   3.288 -0.2226  0.8568 -0.2497
    5MOL   H217 1665   0.009   6.090   3.135  0.7463 -0.7796  0.6177
    5MOL   C218 1666   7.568   5.631   3.595 -0.2764  0.4273 -1.1292
    5MOL   C219 1667   7.543   5.700   3.738 -0.3117  0.3458 -0.3364
    5MOL   C220 1668   7.656   5.664   3.839 -0.3606 -0.2866 -0.4259
    5MOL   C221 1669   7.642   5.737   3.972  0.1741  0.8197 -0.3625
    5MOL   C222 1670   7.697   5.882   3.979  0.8705 -0.7560 -0.1629
    5MOL   C223 1671   0.118   5.889   4.001  0.0614 -0.6337  0.2599
    5MOL   H224 1672   7.476   5.613   3.541 -0.3054  1.4833 -1.4464
    5MOL   H225 1673   7.605   5.530   3.615 -0.9038  0.5534  0.8394
    5MOL   H226 1674   7.538   5.807   3.720  1.2077  0.4579 -0.1167
    5MOL   H227 1675   0.026   5.683   3.795  0.6678 -1.7002  1.1906
    5MOL   H228 1676   7.652   5.556   3.852  1.4821 -0.5445 -2.0017
    5MOL   H229 1677   7.706   5.677   4.037 -0.9849 -0.7619 -0.6704
    5MOL   H230 1678   7.546   5.730   4.022 -0.0566 -2.5161 -1.1387
    5MOL   H231 1679   7.672   5.928   3.883 -0.1451  2.1310  1.4574
    5MOL   H232 1680   7.653   5.927   4.067  3.0444 -0.5716  0.8543
    5MOL   H233 1681   0.132   5.829   4.091  0.3007 -1.7586 -0.5189
    5MOL   H234 1682   0.149   5.991   4.020  1.0905 -0.7240 -0.8817
    5MOL   H235 1683   0.167   5.839   3.917 -1.7198 -0.0664 -1.1262
    5MOL   C236 1684   7.405   5.649   3.792  0.0058  0.0259  0.3459
    5MOL   C237 1685   7.271   5.674   3.716 -0.0639  0.1770 -0.5642
    5MOL   C238 1686   7.249   5.832   3.690 -0.6503 -0.3123  0.3946
    5MOL   C239 1687   7.115   5.871   3.614 -0.0262  0.8012 -0.1139
    5MOL   C240 1688   7.104   6.021   3.573  0.5322 -0.1259 -0.4853
    5MOL   C241 1689   7.099   6.115   3.689 -0.0094  0.3989  0.3018
    5MOL   H242 1690   7.422   5.543   3.809  0.9536 -0.2857 -2.2887
    5MOL   H243 1691   7.394   5.701   3.887 -0.4303 -0.0532  0.3393
    5MOL   H244 1692   7.264   5.613   3.626 -0.1823 -0.7676  0.0855
    5MOL   H245 1693   7.268   5.874   3.788 -1.3771  1.8585 -0.3716
    5MOL   H246 1694   7.328   5.879   3.631  0.3205 -1.5812  0.6754
    5MOL   H247 1695   7.027   5.851   3.676  1.3203  0.7676  1.8324
    5MOL   H248 1696   7.093   5.813   3.524  0.1426 -2.2616  1.7415
    5MOL   H249 1697   7.180   6.054   3.502  0.2346  0.6068 -0.4591
    5MOL   H250 1698   7.013   6.028   3.515 -0.2725 -0.2077  0.7541
    5MOL   H251 1699   7.058   6.213   3.662  0.1420  0.6888  1.1278
    5MOL   H252 1700   7.027   6.094   3.768 -1.0266  1.8375 -0.2260
    5MOL   H253 1701   7.198   6.118   3.734  0.0187 -0.2605  0.2922
    5MOL   C254 1702   7.151   5.625   3.803 -0.1447  0.9166  0.3682
    5MOL   C255 1703   7.150   5.479   3.870  0.5431 -0.0766  0.0367
    5MOL   C256 1704   7.184   5.366   3.768 -0.8151  0.2212  0.4262
    5MOL   C257 1705   7.106   5.351   3.643  0.5593  0.0552  0.4241
    5MOL   C258 1706   7.153   5.219   3.576  0.0939  0.3872 -0.3798
    5MOL   C259 1707   7.059   5.178   3.463 -0.1598 -1.1299  0.5716
    5MOL   H260 1708   7.055   5.641   3.754 -0.2253  0.3193  0.3229
    5MOL   H261 1709   7.137   5.702   3.878 -0.9835  0.7273  0.4095
    5MOL   H262 1710   7.227   5.480   3.947  0.7186  1.1814 -0.1489
    5MOL   H263 1711   7.283   5.377   3.725 -2.1480  0.8053 -2.6277
    5MOL   H264 1712   7.188   5.275   3.827  0.4381 -1.0917 -1.6167
    5MOL   H265 1713   6.998   5.353   3.657  0.5368  1.4951  0.1179
    5MOL   H266 1714   7.116   5.423   3.561  1.1012 -2.6319 -1.9329
    5MOL   H267 1715   7.172   5.138   3.647  2.5706  1.5764  0.3646
    5MOL   H268 1716   7.249   5.248   3.532 -0.2822  2.7277  0.3111
    5MOL   H269 1717   7.068   5.234   3.369 -0.2762 -0.1992  1.1065
    5MOL   H270 1718   6.953   5.168   3.486 -0.3878  0.4045  0.3027
    5MOL   H271 1719   7.108   5.087   3.429 -1.4625 -0.4861 -3.3496
    5MOL   C272 1720   7.014   5.452   3.940 -0.5153  0.4692 -0.2160
    5MOL   C273 1721   7.028   5.357   4.057  0.7373 -0.4363 -0.0358
    5MOL   C274 1722   6.914   5.261   4.068  0.4120 -0.9274  0.4021
    5MOL   C275 1723   6.895   5.158   3.952  0.4623  0.3407  0.5255
    5MOL   C276 1724   6.973   5.024   3.967  0.3705 -0.0605  0.2000
    5MOL   C277 1725   6.973   4.948   3.833  0.3248  0.1512  0.0264
    5MOL   H278 1726   6.975   5.546   3.979 -0.3264  0.9003 -1.0552
    5MOL   H279 1727   6.942   5.427   3.862  1.2854 -1.8649 -1.1525
    5MOL   H280 1728   7.119   5.303   4.028  0.7067  0.9161 -2.8838
    5MOL   H281 1729   6.824   5.323   4.065 -0.0583 -1.3689  3.5948
    5MOL   H282 1730   6.926   5.214   4.166  2.2247  1.9942  1.6336
    5MOL   H283 1731   6.899   5.195   3.849 -1.2645 -0.7189  0.0481
    5MOL   H284 1732   6.794   5.118   3.953  0.2778  0.5015 -3.8376
    5MOL   H285 1733   7.067   5.076   3.986  0.7712  0.2416 -2.3843
    5MOL   H286 1734   6.943   4.966   4.055 -1.7954  0.1253 -0.3937
    5MOL   H287 1735   7.051   4.872   3.839  0.3461  0.0573 -1.2914
    5MOL   H288 1736   6.872   4.917   3.805  1.1626  0.2678 -3.3435
    5MOL   H289 1737   6.994   5.023   3.757  0.8884  3.2092  3.0549
    5MOL   C290 1738   7.057   5.445   4.189 -0.3198 -0.4924 -0.1064
    5MOL   C291 1739   7.107   5.368   4.317  0.5460 -0.1914  0.5922
    5MOL   C292 1740   7.252   5.309   4.304  0.4881  0.1219  0.2308
    5MOL   C293 1741   7.371   5.401   4.266  0.2411 -0.2507  0.5246
    5MOL   C294 1742   7.500   5.329   4.285  0.4787 -0.1927  0.0359
    5MOL   C295 1743   7.620   5.395   4.220  0.0196 -0.3816  0.2357
    5MOL   H296 1744   6.969   5.504   4.215 -0.7215 -1.3305  0.4699
    5MOL   H297 1745   7.130   5.524   4.169  2.0123 -2.0141  2.1492
    5MOL   H298 1746   7.036   5.290   4.344 -1.2992  0.1396 -2.9658
    5MOL   H299 1747   7.249   5.227   4.232  0.2248  0.1289  0.2343
    5MOL   H300 1748   7.283   5.278   4.404  0.2231  0.7365  0.5083
    5MOL   H301 1749   7.385   5.452   4.170 -0.0109 -0.9642  0.1039
    5MOL   H302 1750   7.377   5.481   4.339  0.7350 -0.4500  0.7079
    5MOL   H303 1751   7.493   5.231   4.237  0.2048 -1.0819  1.8307
    5MOL   H304 1752   7.521   5.309   4.391 -1.3677 -0.7248  0.3384
    5MOL   H305 1753   7.707   5.340   4.255  0.7076  1.1700  1.0180
    5MOL   H306 1754   7.620   5.501   4.248  0.0829 -0.8380  1.9937
    5MOL   H307 1755   7.622   5.383   4.111  1.3635  3.4627 -0.2747
    5MOL   C308 1756   7.104   5.462   4.441 -0.7365  0.1234 -0.1293
    5MOL   C309 1757   6.965   5.480   4.513  0.0806  0.0329 -0.5611
    5MOL   C310 1758   6.953   5.618   4.586  0.2984  0.3382  0.0716
    5MOL   C311 1759   7.063   5.635   4.694  1.0635 -0.4152  0.4289
    5MOL   C312 1760   7.075   5.779   4.749 -0.1527  0.0187 -0.3801
    5MOL   C313 1761   7.201   5.822   4.831 -0.3755  0.2346 -0.4579
    5MOL   H314 1762   7.169   5.420   4.518 -1.0397  0.1605  0.1505
    5MOL   H315 1763   7.140   5.561   4.412  1.1436 -0.7634 -0.8728
    5MOL   H316 1764   6.896   5.487   4.428  1.4950 -2.6503 -2.0213
    5MOL   H317 1765   6.862   5.623   4.646 -0.7885  0.2167 -1.5221
    5MOL   H318 1766   6.950   5.695   4.508  0.7697 -0.5025 -0.7947
    5MOL   H319 1767   7.150   5.580   4.657  0.0268 -0.7510 -1.5972
    5MOL   H320 1768   7.036   5.567   4.775 -1.1345 -0.2036 -0.0947
    5MOL   H321 1769   7.062   5.849   4.666 -1.5963  0.0982 -0.0983
    5MOL   H322 1770   6.986   5.794   4.810 -1.8377 -2.4865 -2.1302
    5MOL   H323 1771   7.213   5.928   4.812  0.4544 -0.0978 -1.8071
    5MOL   H324 1772   7.288   5.774   4.788  0.5751 -0.9167  2.5911
    5MOL   H325 1773   7.212   5.789   4.934 -2.8499 -2.7215 -1.0764
    5MOL   C326 1774   6.946   5.352   4.608 -0.4100  0.2277 -0.2249
    5MOL   C327 1775   6.833   5.342   4.711  0.3328  0.1707  0.1821
    5MOL   C328 1776   6.702   5.373   4.635 -0.1846  0.9556 -0.7747
    5MOL   C329 1777   6.597   5.432   4.732 -0.9974 -0.6771 -0.3202
    5MOL   C330 1778   6.453   5.440   4.681 -0.0667 -0.4469  0.9102
    5MOL   C331 1779   6.390   5.298   4.661 -0.3085 -0.4288  0.5340
    5MOL   H332 1780   7.044   5.339   4.655  0.2044  0.6091 -1.3929
    5MOL   H333 1781   6.933   5.268   4.540  0.3593 -1.3321  1.5264
    5MOL   H334 1782   6.840   5.420   4.786 -3.2991  1.4544 -0.6834
    5MOL   H335 1783   6.710   5.439   4.548  1.1007 -0.9019 -2.1252
    5MOL   H336 1784   6.668   5.279   4.592  0.0437 -0.3980  1.9000
    5MOL   H337 1785   6.641   5.530   4.750  1.1339 -1.9160  1.5124
    5MOL   H338 1786   6.601   5.379   4.827 -2.1423 -1.9534 -0.9674
    5MOL   H339 1787   6.385   5.501   4.740  1.6514  2.0914  0.3738
    5MOL   H340 1788   6.457   5.481   4.580 -0.7058  4.9048  2.8664
    5MOL   H341 1789   6.375   5.243   4.755 -2.7476 -0.0584  0.3984
    5MOL   H342 1790   6.432   5.236   4.582  1.3927  2.1641 -0.6487
    5MOL   H343 1791   6.291   5.315   4.620  0.2931  0.5095 -0.5573
    5MOL   C344 1792   6.848   5.215   4.804  0.4195  0.4277 -0.6620
    5MOL   C345 1793   6.862   5.083   4.736 -0.5269 -0.2118  0.0482
    5MOL   C346 1794   6.883   4.970   4.849  0.4737  0.1560  0.3492
    5MOL   C347 1795   6.923   4.830   4.789  0.1145 -0.0308  0.6973
    5MOL   C348 1796   7.056   4.835   4.718 -0.0815  0.4081  0.0442
    5MOL   C349 1797   7.107   4.700   4.675 -0.0551  0.0771 -0.4594
    5MOL   H350 1798   6.931   5.227   4.874  1.6063  2.5352 -2.3640
    5MOL   H351 1799   6.759   5.193   4.862  1.2823  0.4406  0.6948
    5MOL   H352 1800   6.945   5.086   4.665 -1.5798 -0.5831 -1.2113
    5MOL   H353 1801   6.963   5.009   4.913  0.4048  2.3494 -0.8644
    5MOL   H354 1802   6.803   4.953   4.921 -1.8487  2.4945 -1.5863
    5MOL   H355 1803   6.904   4.756   4.867 -2.3059 -1.6062 -1.3244
    5MOL   H356 1804   6.851   4.815   4.708  1.4190 -0.3809 -0.4045
    5MOL   H357 1805   7.060   4.892   4.626 -0.0789  0.5297  0.1193
    5MOL   H358 1806   7.136   4.876   4.780 -0.5402  1.9749 -0.3702
    5MOL   H359 1807   7.105   4.624   4.754 -1.8780 -1.6683 -2.1551
    5MOL   H360 1808   7.047   4.658   4.595  1.3555 -3.4321  0.2319
    5MOL   H361 1809   7.209   4.696   4.637  0.7669  0.7887  1.5605
    5MOL   H362 1810   6.774   5.047   4.684 -2.2909 -0.3558  3.0022
    6MOL     C1 1811   2.272   2.988   1.805 -0.0095  0.5837  0.2719
    6MOL     C2 1812   2.330   3.060   1.932 -0.2134 -0.1413 -0.0432
    6MOL     C3 1813   2.404   2.945   2.012  0.5759  0.5549 -0.2882
    6MOL     C4 1814   2.540   2.902   1.943  0.4191  0.1528  0.7946
    6MOL     C5 1815   2.646   2.840   2.037  0.4636  0.2601 -0.0621
    6MOL     C6 1816   2.776   2.798   1.969  0.9164  0.2570  0.2259
    6MOL     H7 1817   2.344   2.966   1.727 -0.9743 -3.6366  0.4742
    6MOL     H8 1818   2.231   2.892   1.835 -1.1166  1.9171  3.3120
    6MOL     H9 1819   2.412   3.129   1.914  0.4764 -1.6907 -3.1622
    6MOL    H10 1820   2.343   2.856   2.024  1.8312 -0.4359 -1.0788
    6MOL    H11 1821   2.430   2.975   2.113 -2.3711  2.6311 -0.0859
    6MOL    H12 1822   2.582   2.991   1.896 -2.4075  2.0023  1.6620
    6MOL    H13 1823   2.525   2.825   1.867 -1.3017  0.0819  1.1879
    6MOL    H14 1824   2.651   2.919   2.112  0.3692  0.5345 -0.3434
    6MOL    H15 1825   2.606   2.748   2.080  1.8857  1.3891  3.8208
    6MOL    H16 1826   2.845   2.882   1.959  2.7697 -1.0889  1.4715
    6MOL    H17 1827   2.749   2.744   1.878 -2.5210  0.0308  1.2959
    6MOL    H18 1828   2.823   2.720   2.028  0.9295  0.6102  0.6859
    6MOL    H19 1829   2.203   3.056   1.755 -1.3634 -0.2368  0.9891
    6MOL    C20 1830   2.217   3.122   2.017  0.2941  0.4296  0.4987
    6MOL    C21 1831   2.267   3.218   2.128 -0.0204 -0.2824  0.1156
    6MOL    C22 1832   2.341   3.348   2.077 -0.2174 -0.0167  0.0609
    6MOL    C23 1833   2.258   3.458   2.015  0.6485 -0.9012  0.1333
    6MOL    C24 1834   2.309   3.598   2.045 -0.5213 -0.9852  0.2905
    6MOL    C25 1835   2.455   3.630   2.022 -0.1680 -1.1438 -0.2664
    6MOL    H26 1836   2.167   3.038   2.064  0.2432  0.6186  0.7812
    6MOL    H27 1837   2.144   3.173   1.954 -0.0948 -1.1837 -0.3879
    6MOL    H28 1838   2.343   3.162   2.182 -0.1921 -0.8034 -0.1827
    6MOL    H29 1839   2.419   3.325   2.004 -1.9596 -1.8667 -1.2684
    6MOL    H30 1840   2.397   3.395   2.158 -1.9339  0.8518  0.7637
    6MOL    H31 1841   2.152   3.445   2.040  0.1541 -1.0427 -1.9426
    6MOL    H32 1842   2.249   3.444   1.907  3.2789  0.7219 -0.3322
    6MOL    H33 1843   2.251   3.671   1.990  1.9111  0.4286 -0.4901
    6MOL    H34 1844   2.291   3.627   2.149 -1.4596 -0.2327 -0.0829
    6MOL    H35 1845   2.514   3.576   2.096  0.0718 -2.3961 -1.3567
    6MOL    H36 1846   2.495   3.593   1.928  2.3869 -0.1381  0.3745
    6MOL    H37 1847   2.467   3.739   2.017  2.5325 -1.3636  0.6249
    6MOL    C38 1848   2.159   3.246   2.231 -0.7774  0.2703  0.9156
    6MOL    C39 1849   2.186   3.343   2.339  0.4922 -0.3301  0.5194
    6MOL    C40 1850   2.062   3.343   2.438  0.1033 -0.3596 -0.1409
    6MOL    C41 1851   1.928   3.394   2.378 -0.9361 -0.5264  0.0093
    6MOL    C42 1852   1.939   3.546   2.330  0.0964  0.7938 -0.0476
    6MOL    C43 1853   1.988   3.644   2.436  0.4531  0.1194 -0.1681
    6MOL    H44 1854   2.136   3.153   2.282 -0.8462  0.7267  1.7267
    6MOL    H45 1855   2.070   3.277   2.177 -1.2290 -2.7504 -0.1740
    6MOL    H46 1856   2.187   3.434   2.279 -1.6695  0.0769  1.0439
    6MOL    H47 1857   2.046   3.248   2.489 -1.8698  0.0186 -0.0032
    6MOL    H48 1858   2.087   3.414   2.516  1.7149 -0.0449 -0.9245
    6MOL    H49 1859   1.894   3.337   2.291 -0.6332 -0.2479 -0.2907
    6MOL    H50 1860   1.850   3.391   2.454 -1.8282 -0.6441 -0.9010
    6MOL    H51 1861   2.005   3.553   2.243  2.9121 -0.6640  1.9198
    6MOL    H52 1862   1.835   3.570   2.306 -0.5441 -0.4189  1.4348
    6MOL    H53 1863   2.087   3.622   2.477  0.2981 -3.7577 -1.6539
    6MOL    H54 1864   1.913   3.657   2.514  0.4290 -0.1053 -0.1536
    6MOL    H55 1865   1.980   3.736   2.379 -0.3173 -0.0399 -0.3326
    6MOL    C56 1866   2.315   3.317   2.423  0.1208 -0.0655 -0.3646
    6MOL    C57 1867   2.376   3.433   2.516  0.2133  0.7278  0.3440
    6MOL    C58 1868   2.393   3.566   2.439 -0.8783  0.2607  0.1037
    6MOL    C59 1869   2.449   3.686   2.504  0.1534  0.5131 -0.1940
    6MOL    C60 1870   2.467   3.807   2.410  0.3119  0.0267 -0.3770
    6MOL    C61 1871   2.534   3.926   2.471  0.0359  0.6243 -0.1413
    6MOL    H62 1872   2.294   3.230   2.485 -1.0381 -0.5205 -1.3822
    6MOL    H63 1873   2.401   3.296   2.359  0.2594 -0.1631 -0.1456
    6MOL    H64 1874   2.306   3.472   2.590 -2.1783  0.5805 -1.7531
    6MOL    H65 1875   2.457   3.547   2.352 -0.7779 -1.0165  0.4502
    6MOL    H66 1876   2.298   3.591   2.391 -0.1992 -0.6745 -1.8095
    6MOL    H67 1877   2.546   3.661   2.546  0.8183  0.3298 -1.8044
    6MOL    H68 1878   2.379   3.707   2.585 -0.8662  1.0665 -1.1923
    6MOL    H69 1879   2.518   3.783   2.316  0.9479  1.3305 -0.3873
    6MOL    H70 1880   2.367   3.841   2.383 -0.2929  0.7929  2.7108
    6MOL    H71 1881   2.567   4.012   2.413 -0.0244 -0.2813 -1.5335
    6MOL    H72 1882   2.461   3.968   2.539 -1.9255 -1.6282 -0.7729
    6MOL    H73 1883   2.619   3.900   2.536  0.7526  0.6493 -1.0593
    6MOL    C74 1884   2.506   3.376   2.588  0.5756 -0.1515  0.1272
    6MOL    C75 1885   2.521   3.435   2.733  0.3128 -0.2356 -0.2249
    6MOL    C76 1886   2.445   3.346   2.831 -0.6936  0.0504 -0.3892
    6MOL    C77 1887   2.436   3.412   2.967 -0.2497  0.2641  0.0497
    6MOL    C78 1888   2.306   3.382   3.045 -0.2643 -0.1848  0.1977
    6MOL    C79 1889   2.305   3.444   3.184  0.1637  0.5704  0.4182
    6MOL    H80 1890   2.516   3.268   2.587  0.0181 -0.2213  1.2200
    6MOL    H81 1891   2.591   3.416   2.533 -1.3478  1.1317 -2.0156
    6MOL    H82 1892   2.465   3.529   2.732  1.6879  0.6109  1.2903
    6MOL    H83 1893   2.343   3.345   2.792 -1.3590  3.6431  1.0635
    6MOL    H84 1894   2.484   3.244   2.837 -1.8225 -0.3507  0.4679
    6MOL    H85 1895   2.524   3.384   3.025  0.3529  1.3936 -0.3029
    6MOL    H86 1896   2.447   3.520   2.957 -0.6340  0.3422  0.4738
    6MOL    H87 1897   2.302   3.274   3.054  0.9726 -0.2605 -0.0375
    6MOL    H88 1898   2.212   3.413   2.999 -0.4802 -2.6929 -1.1232
    6MOL    H89 1899   2.247   3.380   3.251 -0.0363 -1.0744 -1.2615
    6MOL    H90 1900   2.403   3.435   3.231  0.0139  0.8579  0.7875
    6MOL    H91 1901   2.263   3.544   3.190  0.9126  0.9006  0.1412
    6MOL    C92 1902   2.668   3.484   2.765 -0.1398  0.2714  0.4903
    6MOL    C93 1903   2.782   3.374   2.747 -0.5184 -0.5994  0.0851
    6MOL    C94 1904   2.923   3.441   2.727 -0.5383 -1.4529 -0.0183
    6MOL    C95 1905   2.955   3.497   2.590 -0.0940  0.7105 -0.1644
    6MOL    C96 1906   3.085   3.578   2.590  0.3751  0.6738  0.6722
    6MOL    C97 1907   3.099   3.651   2.452  0.1757 -0.2194  0.7338
    6MOL    H98 1908   2.695   3.564   2.695 -0.1730  0.2926  0.5017
    6MOL    H99 1909   2.680   3.522   2.866  1.8266 -0.1623  0.4401
    6MOL   H100 1910   2.768   3.314   2.657  2.0972  0.0433 -0.7832
    6MOL   H101 1911   3.001   3.365   2.738 -0.4087 -1.9369 -3.6540
    6MOL   H102 1912   2.936   3.517   2.803 -0.4196  1.6434 -3.0031
    6MOL   H103 1913   2.959   3.412   2.522 -0.6954  0.4907  0.0750
    6MOL   H104 1914   2.890   3.578   2.559  0.4875  1.5379  0.7279
    6MOL   H105 1915   3.096   3.653   2.668 -1.6040 -0.1212  1.7467
    6MOL   H106 1916   3.162   3.504   2.612  1.2546  1.7347  1.1747
    6MOL   H107 1917   3.192   3.708   2.448  0.1107  0.2143  3.9791
    6MOL   H108 1918   3.098   3.583   2.367  0.8086 -0.7423  1.1402
    6MOL   H109 1919   3.011   3.714   2.435  1.3354  1.2519  0.0055
    6MOL   C110 1920   2.785   3.262   2.861  0.1244  0.8001 -0.3746
    6MOL   C111 1921   2.885   3.146   2.861 -0.5340  0.1179 -0.2680
    6MOL   C112 1922   2.868   3.053   2.736 -0.1958 -0.3329  0.7725
    6MOL   C113 1923   2.984   3.046   2.631 -0.4355  0.0004 -0.0493
    6MOL   C114 1924   2.944   2.942   2.516  0.1019 -0.0629 -0.4922
    6MOL   C115 1925   3.055   2.921   2.421  0.2565  0.1816  0.2558
    6MOL   H116 1926   2.782   3.316   2.955 -2.7396  2.0830 -1.1321
    6MOL   H117 1927   2.690   3.209   2.860 -1.2881  3.1559  2.2742
    6MOL   H118 1928   2.983   3.193   2.860 -0.6746  0.4612 -3.1192
    6MOL   H119 1929   2.775   3.084   2.689  0.3631 -1.0063 -0.8056
    6MOL   H120 1930   2.836   2.952   2.765  2.2305 -1.5517 -0.6114
    6MOL   H121 1931   3.073   3.007   2.680 -0.7109 -0.4336  0.1107
    6MOL   H122 1932   3.011   3.148   2.602  3.5539  0.3260  4.2154
    6MOL   H123 1933   2.862   2.990   2.463 -0.8107 -0.5133  0.4920
    6MOL   H124 1934   2.898   2.855   2.564 -2.3244  1.5796  0.2741
    6MOL   H125 1935   3.144   2.876   2.466  0.9932  0.9890 -0.3593
    6MOL   H126 1936   3.037   2.864   2.330 -0.7539 -1.1027  1.2578
    6MOL   H127 1937   3.089   3.017   2.380  1.1449 -0.4950 -0.6106
    6MOL   C128 1938   2.873   3.069   2.998 -0.5016  0.2122 -0.6177
    6MOL   C129 1939   2.999   2.994   3.037  0.3912  0.2697 -0.2629
    6MOL   C130 1940   2.967   2.862   3.103  0.1627 -0.1410 -0.6523
    6MOL   C131 1941   2.877   2.888   3.232 -0.5506 -0.0407  0.1837
    6MOL   C132 1942   2.826   2.768   3.310 -0.3080 -0.4389  0.6316
    6MOL   C133 1943   2.726   2.692   3.225  0.6801 -0.5257 -0.0026
    6MOL   H134 1944   2.786   3.004   2.989  0.4800 -1.0647 -1.0890
    6MOL   H135 1945   2.850   3.143   3.075  0.2759  0.2612 -0.4228
    6MOL   H136 1946   3.045   2.976   2.939 -0.8130 -2.7717 -0.3055
    6MOL   H137 1947   2.931   2.784   3.035  3.1882 -0.6375 -1.7579
    6MOL   H138 1948   3.060   2.819   3.140 -0.0988 -1.0124 -0.9855
    6MOL   H139 1949   2.794   2.957   3.215  0.3873  1.0261 -0.1465
    6MOL   H140 1950   2.934   2.942   3.308 -0.0057 -1.5932  0.8884
    6MOL   H141 1951   2.902   2.703   3.354 -0.6089 -1.7171 -0.7164
    6MOL   H142 1952   2.778   2.806   3.401  2.6010  0.0446  2.0425
    6MOL   H143 1953   2.697   2.596   3.268 -0.1787 -0.1939  0.1481
    6MOL   H144 1954   2.762   2.661   3.126 -2.8600 -1.9461 -0.9277
    6MOL   H145 1955   2.631   2.739   3.202  0.1196 -0.8091  1.7093
    6MOL   C146 1956   3.102   3.084   3.119  0.8522 -0.4743  0.5533
    6MOL   C147 1957   3.254   3.055   3.109 -0.2868 -0.7618 -0.4757
    6MOL   C148 1958   3.314   3.107   3.238 -0.4266  0.1606  1.0331
    6MOL   C149 1959   3.296   2.995   3.347  0.2392 -0.0708  0.7777
    6MOL   C150 1960   3.341   3.045   3.486  0.2251  0.1196 -0.6863
    6MOL   C151 1961   3.481   3.011   3.526 -0.4108 -0.2217 -0.1377
    6MOL   H152 1962   3.085   3.188   3.091  0.3575 -0.8484 -0.5639
    6MOL   H153 1963   3.062   3.077   3.220 -1.9147 -0.7813 -0.5249
    6MOL   H154 1964   3.275   2.949   3.096 -2.5441 -1.2617 -0.2581
    6MOL   H155 1965   3.256   3.194   3.268  2.0113  2.0758  0.2628
    6MOL   H156 1966   3.416   3.143   3.231 -0.0824 -0.8499  0.6158
    6MOL   H157 1967   3.193   2.961   3.354  0.6745 -1.7232 -0.5096
    6MOL   H158 1968   3.362   2.913   3.317 -0.0751  0.6915 -2.1111
    6MOL   H159 1969   3.277   2.995   3.558  0.2712  1.1802  0.0987
    6MOL   H160 1970   3.328   3.152   3.498  2.8085  0.3052  0.8938
    6MOL   H161 1971   3.501   3.062   3.620 -2.4630 -0.3844  0.4062
    6MOL   H162 1972   3.495   2.903   3.521 -1.4355 -0.3530 -0.3041
    6MOL   H163 1973   3.549   3.063   3.458 -0.6090  0.3434  0.0969
    6MOL   C164 1974   3.307   3.133   2.985  0.3281 -0.7677 -0.2416
    6MOL   C165 1975   3.442   3.073   2.931  0.0060 -0.1706 -0.6677
    6MOL   C166 1976   3.428   2.937   2.869  0.4325  0.0345 -0.3181
    6MOL   C167 1977   3.551   2.866   2.815 -0.3102  0.3114  0.3944
    6MOL   C168 1978   3.535   2.723   2.762  0.2338 -0.1084 -0.3332
    6MOL   C169 1979   3.668   2.645   2.756  0.0401 -0.7749  0.6678
    6MOL   H170 1980   3.243   3.133   2.897  0.1905 -0.2656 -0.1417
    6MOL   H171 1981   3.321   3.238   3.009 -0.4686 -1.0248  1.4525
    6MOL   H172 1982   3.522   3.057   3.004  0.4644  1.3135 -0.8271
    6MOL   H173 1983   3.349   2.951   2.795 -2.5961  0.4419  2.9050
    6MOL   H174 1984   3.395   2.857   2.936 -2.0945  1.4308  0.1692
    6MOL   H175 1985   3.635   2.865   2.886  2.7823 -1.1974 -3.1233
    6MOL   H176 1986   3.578   2.919   2.724 -0.2023 -0.4386 -0.0145
    6MOL   H177 1987   3.496   2.718   2.660  0.2111 -0.2431 -0.3177
    6MOL   H178 1988   3.452   2.669   2.807 -2.1420  2.5097 -1.4344
    6MOL   H179 1989   3.734   2.705   2.695 -0.7417  0.0974  0.6638
    6MOL   H180 1990   3.662   2.542   2.721 -0.0211 -1.2502  2.0422
    6MOL   H181 1991   3.723   2.643   2.850  0.2542  0.6218  0.5787
    6MOL   C182 1992   3.495   3.175   2.827 -0.0963 -0.2007  0.4969
    6MOL   C183 1993   3.560   3.307   2.885  0.1375 -0.2533  0.1599
    6MOL   C184 1994   3.578   3.407   2.768  0.7156  0.3915  0.3565
    6MOL   C185 1995   3.678   3.363   2.660  0.0772 -1.0264 -0.4853
    6MOL   C186 1996   3.709   3.482   2.558 -0.3448 -0.1842  0.2576
    6MOL   C187 1997   3.617   3.489   2.434 -0.2230  0.2762 -0.0783
    6MOL   H188 1998   3.554   3.125   2.752  0.9974  0.5914  0.8158
    6MOL   H189 1999   3.419   3.210   2.757  0.4933  0.1846  0.0409
    6MOL   H190 2000   3.487   3.359   2.947  0.5249 -0.2024  0.5724
    6MOL   H191 2001   3.477   3.427   2.731 -0.3164 -1.7299  1.9381
    6MOL   H192 2002   3.600   3.505   2.810 -0.0271 -0.1942  2.1843
    6MOL   H193 2003   3.630   3.278   2.611  2.0496 -3.0553  0.9713
    6MOL   H194 2004   3.767   3.328   2.713  1.3503  0.8108 -1.3696
    6MOL   H195 2005   3.811   3.471   2.522 -0.4624  3.9553 -1.6519
    6MOL   H196 2006   3.694   3.574   2.615  1.7942  0.8083 -0.7327
    6MOL   H197 2007   3.636   3.580   2.378  0.9324 -0.2066 -0.5025
    6MOL   H198 2008   3.513   3.480   2.463 -0.2302 -1.9476 -0.6944
    6MOL   H199 2009   3.622   3.408   2.361 -0.7188 -0.3178  0.5312
    6MOL   C200 2010   3.687   3.283   2.970 -0.9111 -0.4740  0.3316
    6MOL   C201 2011   3.792   3.387   3.002  0.3510  0.0668  0.3910
    6MOL   C202 2012   3.727   3.493   3.081  0.0265 -0.0345  0.5459
    6MOL   C203 2013   3.829   3.612   3.119  0.7002  0.1074 -1.0155
    6MOL   C204 2014   3.911   3.682   3.010  0.0609 -0.0377 -0.4898
    6MOL   C205 2015   3.831   3.727   2.884  0.1228 -0.0821  0.1575
    6MOL   H206 2016   3.732   3.196   2.922 -1.4656 -1.7571  2.0960
    6MOL   H207 2017   3.636   3.258   3.062 -0.9047 -0.0632  0.4502
    6MOL   H208 2018   3.824   3.421   2.904 -0.9207  0.3951  0.0766
    6MOL   H209 2019   3.697   3.451   3.177 -0.0782  2.1098  1.4678
    6MOL   H210 2020   3.641   3.529   3.026  1.3380  0.7101 -1.0584
    6MOL   H211 2021   3.899   3.573   3.192 -1.4525  2.8556  2.6761
    6MOL   H212 2022   3.769   3.683   3.176 -0.1403 -1.4048 -0.0001
    6MOL   H213 2023   3.993   3.620   2.973 -1.0011 -1.6143 -0.2685
    6MOL   H214 2024   3.961   3.767   3.055  1.7916 -2.1450  1.6863
    6MOL   H215 2025   3.770   3.660   2.824 -0.1652 -0.5030  0.9054
    6MOL   H216 2026   3.763   3.805   2.919  0.6442  0.8171 -0.8147
    6MOL   H217 2027   3.901   3.772   2.815 -1.7592 -0.3945 -2.0303
    6MOL   C218 2028   3.915   3.318   3.066  1.0949 -0.6692 -0.3026
    6MOL   C219 2029   4.041   3.307   2.962  0.2237  0.6228  0.8527
    6MOL   C220 2030   3.993   3.183   2.879 -0.0025 -0.5317  0.0482
    6MOL   C221 2031   4.095   3.139   2.767 -0.0997  0.1701 -0.4252
    6MOL   C222 2032   4.144   3.250   2.681  0.5929  0.2726 -0.4014
    6MOL   C223 2033   4.043   3.333   2.621 -0.0213  0.2974  0.6418
    6MOL   H224 2034   3.959   3.364   3.155 -1.0741 -0.6247  0.7874
    6MOL   H225 2035   3.887   3.218   3.100 -0.2888 -0.2627 -0.2107
    6MOL   H226 2036   4.044   3.400   2.906 -1.0165 -0.3855 -0.9274
    6MOL   H227 2037   3.904   3.214   2.825 -0.6464  0.4678  1.6504
    6MOL   H228 2038   3.974   3.090   2.933  0.0463 -0.3763  0.3352
    6MOL   H229 2039   4.030   3.080   2.702  0.3538 -0.5344 -0.2421
    6MOL   H230 2040   4.179   3.081   2.805  0.9446  2.0076  0.1008
    6MOL   H231 2041   4.222   3.311   2.728 -0.3992  0.7541  0.6442
    6MOL   H232 2042   4.187   3.196   2.597 -0.3651  1.0387 -1.3903
    6MOL   H233 2043   4.085   3.385   2.534  1.4609 -0.2212  1.0356
    6MOL   H234 2044   4.016   3.419   2.683  0.6648  0.4015  0.8015
    6MOL   H235 2045   3.953   3.276   2.598 -0.0126  0.1594  0.9484
    6MOL   C236 2046   4.177   3.273   3.038  0.3536  0.0899  0.2548
    6MOL   C237 2047   4.255   3.392   3.087  0.3460  0.0341  0.4133
    6MOL   C238 2048   4.361   3.441   2.986 -0.1135  0.4584 -0.8141
    6MOL   C239 2049   4.409   3.589   3.008  0.2699  0.4426  0.2479
    6MOL   C240 2050   4.495   3.640   2.894  0.2139 -0.2457  0.3732
    6MOL   C241 2051   4.523   3.790   2.902 -0.0963 -0.0292 -0.0300
    6MOL   H242 2052   4.163   3.196   3.113  0.0777 -0.9576 -0.8557
    6MOL   H243 2053   4.233   3.217   2.964 -0.6804 -1.4307  0.6141
    6MOL   H244 2054   4.185   3.476   3.097  1.1583  0.9762 -1.4146
    6MOL   H245 2055   4.446   3.374   2.977  1.8765  3.0356 -1.8566
    6MOL   H246 2056   4.321   3.444   2.885 -0.4582 -0.5090 -0.7036
    6MOL   H247 2057   4.472   3.588   3.097  2.8440  0.2597 -1.5245
    6MOL   H248 2058   4.313   3.637   3.024 -0.8321 -2.0051  1.2254
    6MOL   H249 2059   4.592   3.590   2.890  0.8168  1.0033 -0.9538
    6MOL   H250 2060   4.446   3.613   2.800 -0.3325 -1.0559  0.8823
    6MOL   H251 2061   4.434   3.853   2.897 -1.5141 -2.1678 -2.2556
    6MOL   H252 2062   4.573   3.810   2.997 -1.7232 -0.6279  0.9817
    6MOL   H253 2063   4.588   3.816   2.819 -0.9277 -1.2503 -1.0862
    6MOL   C254 2064   4.325   3.373   3.220  0.4855  0.4465 -0.4350
    6MOL   C255 2065   4.229   3.371   3.331  0.4297 -0.0239 -0.5329
    6MOL   C256 2066   4.199   3.513   3.372 -0.2730 -0.2326 -0.4759
    6MOL   C257 2067   4.058   3.527   3.436  0.0525  0.2460 -0.0858
    6MOL   C258 2068   4.016   3.672   3.447 -0.3715  0.2211  0.2489
    6MOL   C259 2069   4.091   3.760   3.545  1.4456 -0.2453  0.4449
    6MOL   H260 2070   4.396   3.450   3.247  0.3799  0.2421  0.4442
    6MOL   H261 2071   4.382   3.280   3.227 -0.9544 -0.5765 -1.9696
    6MOL   H262 2072   4.130   3.337   3.300  0.1258  1.6440 -1.3945
    6MOL   H263 2073   4.275   3.550   3.441  0.2780 -0.5062 -0.9294
    6MOL   H264 2074   4.219   3.584   3.292  2.4259  2.2095  2.2235
    6MOL   H265 2075   3.981   3.479   3.376  0.6350  1.1044 -1.5655
    6MOL   H266 2076   4.053   3.483   3.535  1.1684 -2.5645 -1.2378
    6MOL   H267 2077   3.910   3.673   3.474 -1.4163 -0.3143 -3.4917
    6MOL   H268 2078   4.019   3.716   3.347 -3.3322  3.6935  1.5827
    6MOL   H269 2079   4.199   3.762   3.537  1.4784 -3.4539 -0.4542
    6MOL   H270 2080   4.060   3.740   3.648  0.5222  1.5942  0.5524
    6MOL   H271 2081   4.047   3.858   3.525  0.6345 -1.3779 -3.7496
    6MOL   C272 2082   4.271   3.291   3.460  0.0742 -0.3086  0.0894
    6MOL   C273 2083   4.277   3.140   3.441  0.2966 -0.0019  0.6007
    6MOL   C274 2084   4.141   3.066   3.419 -0.1518  0.0190  0.1180
    6MOL   C275 2085   4.019   3.091   3.515 -1.0752  0.3947 -0.3582
    6MOL   C276 2086   3.900   3.001   3.487  0.4929  0.0890  0.9209
    6MOL   C277 2087   3.808   3.008   3.612  0.2376 -0.3927  0.3241
    6MOL   H278 2088   4.366   3.337   3.485  0.3626 -0.6595 -0.3509
    6MOL   H279 2089   4.213   3.316   3.549 -0.5595 -0.5219 -0.2600
    6MOL   H280 2090   4.348   3.118   3.362  0.3617  0.1751  0.6105
    6MOL   H281 2091   4.162   2.959   3.418 -2.1105 -0.3828  0.1504
    6MOL   H282 2092   4.115   3.090   3.316 -0.6243  2.8997  0.8534
    6MOL   H283 2093   3.989   3.196   3.508 -1.9417  0.1067 -1.0828
    6MOL   H284 2094   4.042   3.074   3.620 -1.4635  1.6198 -0.0634
    6MOL   H285 2095   3.848   3.023   3.394 -0.4241 -1.5002  1.0367
    6MOL   H286 2096   3.937   2.899   3.475 -0.0797 -0.2693  2.0485
    6MOL   H287 2097   3.762   3.106   3.630 -0.1089 -0.5221  0.1410
    6MOL   H288 2098   3.729   2.934   3.608 -0.2622  0.1751 -0.8579
    6MOL   H289 2099   3.862   2.988   3.704  0.8916  0.3503  0.1057
    6MOL   C290 2100   4.360   3.076   3.558  0.0061 -0.1380  0.6977
    6MOL   C291 2101   4.507   3.112   3.560  0.4284 -0.1347  0.0025
    6MOL   C292 2102   4.569   3.042   3.686 -0.0871  0.9224  0.4940
    6MOL   C293 2103   4.535   3.090   3.831 -0.1046 -0.0458  0.4478
    6MOL   C294 2104   4.602   3.220   3.849  0.2989 -0.5564  0.4941
    6MOL   C295 2105   4.600   3.253   4.000 -0.2178 -0.6137  0.1605
    6MOL   H296 2106   4.351   2.968   3.546 -1.5727 -0.1839  2.1269
    6MOL   H297 2107   4.321   3.100   3.657 -0.0084  1.7224  0.2596
    6MOL   H298 2108   4.521   3.219   3.570  1.1496 -0.3406  1.3045
    6MOL   H299 2109   4.676   3.035   3.672 -0.3860  0.1946 -1.7143
    6MOL   H300 2110   4.543   2.936   3.693 -0.3181  0.7209 -2.7125
    6MOL   H301 2111   4.426   3.101   3.838 -0.0836  1.2811 -0.8423
    6MOL   H302 2112   4.584   3.022   3.900 -0.3627 -0.0692  0.6111
    6MOL   H303 2113   4.558   3.301   3.790  1.6858  0.9737  1.5149
    6MOL   H304 2114   4.705   3.212   3.815 -0.1410  0.1671 -1.0554
    6MOL   H305 2115   4.514   3.220   4.058 -2.0955 -0.0553 -2.2154
    6MOL   H306 2116   4.590   3.360   4.019  1.4482 -0.4894  0.4444
    6MOL   H307 2117   4.677   3.201   4.057 -0.2996  0.2432  1.0498
    6MOL   C308 2118   4.583   3.051   3.438 -0.3854 -0.4231 -0.1946
    6MOL   C309 2119   4.665   3.157   3.360 -0.7930 -0.3428 -0.1587
    6MOL   C310 2120   4.712   3.097   3.235 -0.0004  0.0685  0.0256
    6MOL   C311 2121   4.624   3.127   3.114 -0.9724 -0.1135 -0.3383
    6MOL   C312 2122   4.666   3.056   2.985  0.0285  0.4909 -0.4585
    6MOL   C313 2123   4.576   3.090   2.872 -0.6961 -0.0424  0.1033
    6MOL   H314 2124   4.660   2.980   3.467  0.8713  0.0249 -2.3177
    6MOL   H315 2125   4.515   2.996   3.373  0.5522  0.9589 -2.4128
    6MOL   H316 2126   4.608   3.245   3.333  1.0081  0.3211 -1.9319
    6MOL   H317 2127   4.719   2.988   3.244  1.9272  0.1293 -0.5691
    6MOL   H318 2128   4.817   3.122   3.222 -0.2774  1.9196  1.2096
    6MOL   H319 2129   4.633   3.236   3.105  2.1068 -0.2408  0.6579
    6MOL   H320 2130   4.519   3.103   3.133 -0.6750 -1.9241 -0.8925
    6MOL   H321 2131   4.771   3.075   2.961  0.2864  1.4588  1.3359
    6MOL   H322 2132   4.657   2.948   3.000 -0.7805  0.6547  0.2490
    6MOL   H323 2133   4.472   3.059   2.883 -0.7885  1.1712  3.0037
    6MOL   H324 2134   4.609   3.047   2.778 -1.4907 -0.8775  0.1975
    6MOL   H325 2135   4.578   3.199   2.862  0.0161 -0.2485 -2.3090
    6MOL   C326 2136   4.779   3.213   3.453  0.3166  0.0064  0.1230
    6MOL   C327 2137   4.850   3.335   3.403 -0.5750 -0.6557  0.3569
    6MOL   C328 2138   4.762   3.466   3.398 -0.2304  0.2048  0.5671
    6MOL   C329 2139   4.713   3.519   3.530  0.4548  0.2935 -0.1331
    6MOL   C330 2140   4.613   3.636   3.517  0.1137  0.2559  0.1336
    6MOL   C331 2141   4.557   3.678   3.648 -0.8553  0.1463 -0.1919
    6MOL   H332 2142   4.842   3.124   3.460 -0.0614 -0.0765  2.7793
    6MOL   H333 2143   4.751   3.226   3.557 -0.4672 -2.9718  0.3270
    6MOL   H334 2144   4.868   3.310   3.298  0.9325 -1.3001  0.7571
    6MOL   H335 2145   4.804   3.553   3.347 -1.8806  0.8227  0.2360
    6MOL   H336 2146   4.678   3.453   3.329  1.5469 -3.4847 -1.0433
    6MOL   H337 2147   4.797   3.544   3.594  0.6395  0.1569 -0.3181
    6MOL   H338 2148   4.659   3.434   3.571 -0.1055 -0.6731 -2.7505
    6MOL   H339 2149   4.668   3.718   3.470  1.3528 -1.6168 -1.8026
    6MOL   H340 2150   4.530   3.618   3.448  2.3219 -0.0711 -2.5517
    6MOL   H341 2151   4.509   3.596   3.701 -0.1690 -1.3135 -1.7764
    6MOL   H342 2152   4.484   3.758   3.639  0.1343  1.3721  2.3501
    6MOL   H343 2153   4.637   3.717   3.712  0.7698 -0.7329 -1.6384
    6MOL   C344 2154   4.990   3.358   3.474  0.0972 -0.2333  0.3546
    6MOL   C345 2155   5.100   3.255   3.429  0.4016 -0.2115 -0.4342
    6MOL   C346 2156   5.219   3.260   3.528  0.0541  0.2994  0.1189
    6MOL   C347 2157   5.330   3.155   3.503 -0.1354 -0.1285  0.5970
    6MOL   C348 2158   5.411   3.179   3.378 -0.1806 -0.0844 -0.3620
    6MOL   C349 2159   5.506   3.063   3.340  0.2398 -0.6182 -0.4934
    6MOL   H350 2160   5.034   3.452   3.440  1.1301 -0.3186  1.4210
    6MOL   H351 2161   4.975   3.353   3.582  1.1535 -2.6541  0.4158
    6MOL   H352 2162   5.126   3.274   3.325 -0.3580 -1.6131 -0.8842
    6MOL   H353 2163   5.250   3.364   3.525 -1.5566  0.7743 -0.6502
    6MOL   H354 2164   5.189   3.243   3.631  0.1726  0.1732  0.1331
    6MOL   H355 2165   5.400   3.155   3.586 -1.1597  1.2069  1.4893
    6MOL   H356 2166   5.290   3.055   3.490 -0.0140 -0.5207  3.1269
    6MOL   H357 2167   5.368   3.209   3.282  1.3319 -4.2414 -2.4635
    6MOL   H358 2168   5.466   3.265   3.416 -0.6229  0.4891 -1.0086
    6MOL   H359 2169   5.553   3.072   3.242  1.3465  3.1206  0.3174
    6MOL   H360 2170   5.583   3.051   3.416 -0.7252  0.3625  0.6574
    6MOL   H361 2171   5.466   2.962   3.345 -0.9377 -0.1661 -0.5635
    6MOL   H362 2172   5.048   3.160   3.438  0.4788 -0.5004 -2.9542
    7MOL     C1 2173   4.737   5.378   3.786  0.4573  0.3605 -0.8598
    7MOL     C2 2174   4.670   5.429   3.660  0.5030 -0.3650  0.1499
    7MOL     C3 2175   4.514   5.411   3.661  0.6704 -0.3316 -0.2230
    7MOL     C4 2176   4.444   5.511   3.753 -0.0138 -0.1445 -0.0172
    7MOL     C5 2177   4.292   5.491   3.751 -0.0536 -0.0601  0.5009
    7MOL     C6 2178   4.213   5.605   3.815 -0.5177  0.1344 -0.5108
    7MOL     H7 2179   4.732   5.447   3.870  1.6791  2.3085 -2.3331
    7MOL     H8 2180   4.690   5.287   3.823 -1.0406  1.4986  0.0696
    7MOL     H9 2181   4.700   5.533   3.659 -1.5892  0.2658  1.2376
    7MOL    H10 2182   4.502   5.309   3.695 -1.4733  0.4924  1.6599
    7MOL    H11 2183   4.465   5.424   3.564  0.9552 -2.3337 -0.6539
    7MOL    H12 2184   4.477   5.610   3.721  2.0247 -0.8867 -0.2998
    7MOL    H13 2185   4.482   5.506   3.855  0.6326 -1.1927 -0.2982
    7MOL    H14 2186   4.255   5.473   3.650 -0.1927 -1.6737  0.8343
    7MOL    H15 2187   4.272   5.403   3.810  0.6744 -0.9437 -0.5483
    7MOL    H16 2188   4.237   5.704   3.776  0.1035  0.3274  0.3389
    7MOL    H17 2189   4.237   5.617   3.921 -0.5997  2.1569 -0.7008
    7MOL    H18 2190   4.106   5.585   3.813 -0.6931  0.6185  2.1008
    7MOL    H19 2191   4.845   5.361   3.779  0.1819 -2.2951  0.5649
    7MOL    C20 2192   4.728   5.366   3.531 -0.1977 -0.5375  0.1256
    7MOL    C21 2193   4.847   5.439   3.459 -0.8123 -0.3799  0.6092
    7MOL    C22 2194   4.912   5.355   3.343  0.0924 -0.4961 -0.0841
    7MOL    C23 2195   4.813   5.287   3.245 -0.4226 -0.2267 -0.1546
    7MOL    C24 2196   4.881   5.231   3.121  0.2460  0.2923 -0.4977
    7MOL    C25 2197   4.778   5.158   3.041  0.0606 -0.1029  0.5733
    7MOL    H26 2198   4.644   5.356   3.462  0.8839  0.6723 -1.3957
    7MOL    H27 2199   4.754   5.265   3.561 -0.1447  0.0181  2.0193
    7MOL    H28 2200   4.926   5.453   3.533  0.2310  0.3372 -0.6110
    7MOL    H29 2201   4.987   5.288   3.384  2.1222  1.2070 -0.9298
    7MOL    H30 2202   4.984   5.417   3.289  2.0883 -0.6573  2.3020
    7MOL    H31 2203   4.730   5.350   3.215 -1.6021 -1.8499 -0.3824
    7MOL    H32 2204   4.756   5.207   3.293 -1.2561  0.1152 -0.5730
    7MOL    H33 2205   4.932   5.311   3.068  0.8433  0.9124  1.0080
    7MOL    H34 2206   4.958   5.163   3.158 -0.2706 -0.7282 -1.2666
    7MOL    H35 2207   4.706   5.095   3.093  1.1255 -0.9485  1.0591
    7MOL    H36 2208   4.730   5.238   2.986  1.7909  2.7328  3.0516
    7MOL    H37 2209   4.815   5.095   2.960  1.8739 -1.2614  2.2402
    7MOL    C38 2210   4.812   5.576   3.401 -0.5583 -0.6433 -0.4149
    7MOL    C39 2211   4.935   5.675   3.394 -0.2253 -0.6978  0.0703
    7MOL    C40 2212   4.908   5.782   3.284  0.1373 -0.2245  0.6688
    7MOL    C41 2213   4.913   5.709   3.143  0.8448  0.7200 -0.1764
    7MOL    C42 2214   4.937   5.810   3.030  0.2246  0.2465 -0.3959
    7MOL    C43 2215   4.905   5.761   2.891 -0.4139  0.0999  0.4120
    7MOL    H44 2216   4.742   5.624   3.470  0.2589  0.6529 -0.4785
    7MOL    H45 2217   4.752   5.568   3.310 -2.6620  1.0569  0.7431
    7MOL    H46 2218   5.026   5.625   3.361 -1.0481  0.0377 -3.4870
    7MOL    H47 2219   4.811   5.829   3.294  0.2019 -0.3218  1.7251
    7MOL    H48 2220   4.981   5.863   3.281  0.9584 -0.9693  0.0555
    7MOL    H49 2221   5.001   5.646   3.131 -0.0014  0.0695 -3.3467
    7MOL    H50 2222   4.832   5.639   3.121  1.4575  0.2273 -0.8894
    7MOL    H51 2223   4.884   5.903   3.049  0.5232  0.5873 -1.2027
    7MOL    H52 2224   5.042   5.838   3.017  0.4045 -0.6062 -0.8569
    7MOL    H53 2225   4.806   5.718   2.881 -1.6215  2.8349  0.0454
    7MOL    H54 2226   4.976   5.684   2.862 -0.4444  0.7791 -1.5753
    7MOL    H55 2227   4.909   5.839   2.814 -0.1466  2.3663  2.6485
    7MOL    C56 2228   4.971   5.742   3.530  0.6283  0.1933  0.2994
    7MOL    C57 2229   5.121   5.777   3.548 -0.7769  0.4642  0.0387
    7MOL    C58 2230   5.199   5.652   3.590 -0.3773 -0.5314 -0.7465
    7MOL    C59 2231   5.171   5.574   3.718  0.0866  0.5123 -0.1911
    7MOL    C60 2232   5.270   5.460   3.754 -0.4711  0.5355 -0.2823
    7MOL    C61 2233   5.398   5.514   3.822  0.0168 -0.1247 -0.9019
    7MOL    H62 2234   4.913   5.833   3.547  1.4606  0.0565  4.2557
    7MOL    H63 2235   4.949   5.683   3.618 -2.5773  0.7357 -0.0958
    7MOL    H64 2236   5.158   5.813   3.452 -0.1514 -0.4299 -0.0656
    7MOL    H65 2237   5.211   5.580   3.509  1.9264 -0.9206 -0.0961
    7MOL    H66 2238   5.303   5.684   3.588  0.2535 -2.4622 -0.3591
    7MOL    H67 2239   5.072   5.535   3.698  0.2477 -0.7847  1.3323
    7MOL    H68 2240   5.160   5.640   3.804  1.3853 -1.1034  1.2736
    7MOL    H69 2241   5.218   5.377   3.804  1.8019 -0.8623 -0.1749
    7MOL    H70 2242   5.304   5.419   3.659  2.3693  1.0633  0.4618
    7MOL    H71 2243   5.460   5.576   3.758 -0.9848  1.5331 -0.2971
    7MOL    H72 2244   5.360   5.559   3.913 -0.2245 -0.0763 -1.0247
    7MOL    H73 2245   5.459   5.429   3.852 -0.6187  0.2679  1.5953
    7MOL    C74 2246   5.142   5.894   3.649  0.4415 -0.1085 -0.2926
    7MOL    C75 2247   5.285   5.953   3.658  0.0923 -0.4618  0.4481
    7MOL    C76 2248   5.343   5.985   3.516 -0.0935 -0.5593 -0.7720
    7MOL    C77 2249   5.490   6.036   3.518  1.1057 -0.2679  0.0629
    7MOL    C78 2250   5.528   6.097   3.383  0.2159  0.2063 -0.3627
    7MOL    C79 2251   5.563   5.986   3.287  0.0358 -0.1785 -0.4422
    7MOL    H80 2252   5.075   5.974   3.618 -1.8043 -1.4718  0.9743
    7MOL    H81 2253   5.099   5.859   3.742  0.3986  1.3502  0.2416
    7MOL    H82 2254   5.347   5.876   3.703  0.7374 -0.6320 -0.6981
    7MOL    H83 2255   5.352   5.896   3.454 -0.4330 -0.3750 -1.0949
    7MOL    H84 2256   5.275   6.054   3.465 -1.9943 -2.2672 -0.6239
    7MOL    H85 2257   5.493   6.122   3.586 -3.7181  0.7549 -0.8015
    7MOL    H86 2258   5.565   5.964   3.550 -0.0872 -1.3660  0.4437
    7MOL    H87 2259   5.612   6.167   3.384  0.2299  0.1892 -0.3350
    7MOL    H88 2260   5.441   6.151   3.347  0.6743  1.6619  0.6816
    7MOL    H89 2261   5.654   5.941   3.327 -0.3078 -0.9608 -0.5148
    7MOL    H90 2262   5.483   5.913   3.275 -0.1041 -0.0500 -0.2828
    7MOL    H91 2263   5.574   6.030   3.188 -1.0269 -0.2449 -0.5981
    7MOL    C92 2264   5.285   6.084   3.748 -0.4085 -0.4868 -0.2267
    7MOL    C93 2265   5.225   6.081   3.889 -0.0436 -0.3875  0.2872
    7MOL    C94 2266   5.305   5.974   3.975  0.5881 -0.5121 -0.1198
    7MOL    C95 2267   5.227   5.932   4.105 -0.1339 -0.2474  0.3204
    7MOL    C96 2268   5.273   5.806   4.171  0.3314  0.0824  0.1269
    7MOL    C97 2269   5.202   5.797   4.312  0.2178 -0.3856 -0.1551
    7MOL    H98 2270   5.382   6.131   3.765 -0.6442 -0.0407 -0.0968
    7MOL    H99 2271   5.228   6.163   3.699 -0.1249 -0.5671 -0.6916
    7MOL   H100 2272   5.120   6.051   3.886 -0.9820  2.5847  1.2860
    7MOL   H101 2273   5.403   6.013   4.000 -1.4184  2.2085  4.0411
    7MOL   H102 2274   5.305   5.884   3.913  2.6691  1.0266 -2.4495
    7MOL   H103 2275   5.246   6.018   4.169 -1.4521 -0.2995  0.7849
    7MOL   H104 2276   5.121   5.934   4.081 -0.1671  0.6624  0.5136
    7MOL   H105 2277   5.244   5.721   4.109 -0.9146  0.1220  0.6283
    7MOL   H106 2278   5.380   5.804   4.192  0.6662  1.3097 -1.3557
    7MOL   H107 2279   5.256   5.858   4.384 -1.6527  0.8932  0.1797
    7MOL   H108 2280   5.100   5.834   4.301  0.9195  1.4051 -0.7852
    7MOL   H109 2281   5.206   5.697   4.355  0.6782 -0.2656  0.0798
    7MOL   C110 2282   5.227   6.219   3.952  0.5581 -0.1926  0.6037
    7MOL   C111 2283   5.116   6.256   4.053 -0.0829 -0.1209  0.1423
    7MOL   C112 2284   4.990   6.323   3.992 -0.1970  0.0848 -0.0808
    7MOL   C113 2285   4.928   6.232   3.880 -0.0132 -0.2251 -0.1608
    7MOL   C114 2286   4.786   6.281   3.846  0.0097  0.1420  0.8308
    7MOL   C115 2287   4.748   6.232   3.709  0.1429  1.2948 -0.2814
    7MOL   H116 2288   5.331   6.234   3.978  0.7744  1.7591 -1.2408
    7MOL   H117 2289   5.210   6.296   3.876  1.0661 -0.3846  0.2945
    7MOL   H118 2290   5.080   6.164   4.100 -2.1727  1.4461  1.6670
    7MOL   H119 2291   5.027   6.423   3.969  0.4977  0.0425  0.8163
    7MOL   H120 2292   4.920   6.341   4.074 -1.7862  0.3669 -1.4840
    7MOL   H121 2293   4.915   6.130   3.918  1.9957 -0.9053 -1.2244
    7MOL   H122 2294   4.995   6.225   3.795 -0.1226 -3.1864 -0.0753
    7MOL   H123 2295   4.788   6.390   3.845  2.8564  0.1226 -0.7807
    7MOL   H124 2296   4.717   6.263   3.928  0.0532  0.2657  0.8941
    7MOL   H125 2297   4.774   6.126   3.709 -0.3311  1.1686 -1.6369
    7MOL   H126 2298   4.644   6.256   3.690 -0.0925 -0.4640 -1.2818
    7MOL   H127 2299   4.806   6.273   3.627  1.6079 -0.9009 -0.3978
    7MOL   C128 2300   5.178   6.337   4.165 -0.2978 -0.3551 -0.0168
    7MOL   C129 2301   5.104   6.352   4.293  0.8475 -0.0409 -0.4269
    7MOL   C130 2302   5.138   6.481   4.366  0.1541 -0.6888 -0.2289
    7MOL   C131 2303   5.089   6.620   4.313  0.3390  0.0688  0.3552
    7MOL   C132 2304   4.940   6.626   4.307  0.0376  0.0309 -0.1049
    7MOL   C133 2305   4.890   6.765   4.336  0.5037  0.5185  0.4638
    7MOL   H134 2306   5.199   6.439   4.130 -2.1717  0.3783  0.9024
    7MOL   H135 2307   5.273   6.298   4.199 -0.1486  1.1647  1.3838
    7MOL   H136 2308   5.000   6.358   4.261  0.5419 -3.5863 -0.3813
    7MOL   H137 2309   5.105   6.471   4.470  0.3037  1.7125  0.0667
    7MOL   H138 2310   5.246   6.477   4.369  0.2901  0.8088 -2.2820
    7MOL   H139 2311   5.119   6.643   4.211  1.6087 -0.6734  0.5618
    7MOL   H140 2312   5.120   6.706   4.373 -0.5291  0.6355  0.0015
    7MOL   H141 2313   4.904   6.590   4.211 -0.8285  2.1645 -0.6104
    7MOL   H142 2314   4.891   6.569   4.386  2.0787  1.1728  2.0181
    7MOL   H143 2315   4.913   6.791   4.439  0.6719  1.2866  0.2390
    7MOL   H144 2316   4.783   6.778   4.323  0.7153  1.4406 -0.3817
    7MOL   H145 2317   4.942   6.822   4.259  3.5257 -3.8746 -0.9562
    7MOL   C146 2318   5.106   6.235   4.387  0.1325 -0.1359 -0.1846
    7MOL   C147 2319   4.972   6.197   4.463 -0.2148  0.5562 -0.1160
    7MOL   C148 2320   4.993   6.115   4.593  0.6246  0.1194  0.2229
    7MOL   C149 2321   4.873   6.083   4.686  0.1526 -0.2752 -0.1231
    7MOL   C150 2322   4.911   6.013   4.815  0.5568 -0.7905  0.7774
    7MOL   C151 2323   4.949   6.113   4.923 -0.8608  0.2044  0.3962
    7MOL   H152 2324   5.148   6.148   4.337  0.3422 -0.2724  0.2331
    7MOL   H153 2325   5.181   6.259   4.462  0.2767  1.3027 -0.7626
    7MOL   H154 2326   4.924   6.290   4.492 -1.2567 -0.0597  0.1393
    7MOL   H155 2327   5.067   6.176   4.644 -0.9847  1.4612  1.0046
    7MOL   H156 2328   5.039   6.018   4.575 -0.0876 -0.4317  1.2312
    7MOL   H157 2329   4.815   6.173   4.702 -0.4000 -1.0622  2.3925
    7MOL   H158 2330   4.805   6.009   4.642  2.1139 -1.8055 -0.7133
    7MOL   H159 2331   4.983   5.932   4.803  0.3086 -1.0595  1.0675
    7MOL   H160 2332   4.821   5.960   4.848  0.5194 -1.9389 -1.0867
    7MOL   H161 2333   5.045   6.155   4.893 -1.6909  0.6880 -1.6902
    7MOL   H162 2334   4.879   6.197   4.930 -0.0618  0.8222  1.1283
    7MOL   H163 2335   4.956   6.077   5.026  0.0527  0.3277  0.3794
    7MOL   C164 2336   4.877   6.124   4.362  0.5933  0.0049  0.2151
    7MOL   C165 2337   4.723   6.162   4.351 -0.1724  0.0519 -0.5598
    7MOL   C166 2338   4.708   6.320   4.321 -0.5711 -0.1794 -0.2010
    7MOL   C167 2339   4.574   6.378   4.366  0.7781  0.0702 -0.3249
    7MOL   C168 2340   4.563   6.531   4.364 -0.6089  0.0691  0.3661
    7MOL   C169 2341   4.457   6.601   4.452 -0.6516 -0.6411 -0.3717
    7MOL   H170 2342   4.919   6.150   4.265 -1.9645  1.6428 -0.5208
    7MOL   H171 2343   4.887   6.016   4.356  1.1223 -0.0102  1.3652
    7MOL   H172 2344   4.699   6.145   4.456  1.2244  1.6091  0.0247
    7MOL   H173 2345   4.735   6.347   4.219 -0.2359 -3.0522 -0.9203
    7MOL   H174 2346   4.777   6.381   4.381 -2.2904  0.6657  0.9814
    7MOL   H175 2347   4.569   6.355   4.473 -2.4068 -2.7489 -0.9955
    7MOL   H176 2348   4.490   6.334   4.312  2.3764 -0.9554 -2.0119
    7MOL   H177 2349   4.556   6.567   4.261  1.5093 -2.0112 -0.5597
    7MOL   H178 2350   4.658   6.575   4.397 -0.3305 -0.1583 -0.1299
    7MOL   H179 2351   4.456   6.706   4.426  0.9325 -0.6427 -0.4964
    7MOL   H180 2352   4.479   6.598   4.559  1.8120  0.7081 -0.8241
    7MOL   H181 2353   4.357   6.558   4.447  0.4015 -3.6496  2.1266
    7MOL   C182 2354   4.632   6.088   4.254 -0.5933  0.4286 -0.0622
    7MOL   C183 2355   4.607   5.939   4.279  0.1268 -0.4379  0.4218
    7MOL   C184 2356   4.674   5.843   4.182 -0.0316  0.5463  0.0616
    7MOL   C185 2357   4.645   5.860   4.028  0.1668  0.3922  0.1729
    7MOL   C186 2358   4.715   5.761   3.939  0.0688  0.4749  0.1472
    7MOL   C187 2359   4.862   5.802   3.906  0.2942 -0.3001 -0.3947
    7MOL   H188 2360   4.533   6.134   4.261 -0.7883  0.0537 -0.3514
    7MOL   H189 2361   4.676   6.100   4.155  1.3863  0.7830  0.8311
    7MOL   H190 2362   4.658   5.915   4.373  1.5863  0.8949 -0.0094
    7MOL   H191 2363   4.780   5.863   4.195  0.3433 -1.3361  0.0708
    7MOL   H192 2364   4.661   5.741   4.217  2.1243 -0.2526 -1.3444
    7MOL   H193 2365   4.654   5.963   3.995  0.5598  0.5595  0.7810
    7MOL   H194 2366   4.539   5.843   4.008  0.3879 -1.5863  0.5695
    7MOL   H195 2367   4.658   5.746   3.848  0.0565  2.5320 -0.2004
    7MOL   H196 2368   4.717   5.669   3.997  3.0462 -1.2928 -2.6094
    7MOL   H197 2369   4.861   5.911   3.915  0.5456 -0.4946  2.4848
    7MOL   H198 2370   4.897   5.749   3.817  2.5925 -1.4378  1.1626
    7MOL   H199 2371   4.930   5.762   3.981 -1.6892  0.2885  1.7876
    7MOL   C200 2372   4.461   5.899   4.295 -0.1789 -0.2381 -0.1448
    7MOL   C201 2373   4.394   5.958   4.424  0.2149  0.8090 -0.0508
    7MOL   C202 2374   4.242   5.978   4.411 -0.2588  0.0529 -0.2227
    7MOL   C203 2375   4.202   6.092   4.320  0.0400 -0.7813  0.1502
    7MOL   C204 2376   4.065   6.068   4.258 -0.0181  0.0502 -0.3794
    7MOL   C205 2377   3.995   6.188   4.207  0.3965 -0.2941  0.5451
    7MOL   H206 2378   4.448   5.791   4.290 -0.2971 -0.1681 -1.3871
    7MOL   H207 2379   4.399   5.931   4.212 -2.5241 -2.0712  0.8248
    7MOL   H208 2380   4.431   6.058   4.447 -1.2302  1.3652 -0.0783
    7MOL   H209 2381   4.200   6.001   4.508 -0.6728  0.8572 -0.5863
    7MOL   H210 2382   4.200   5.883   4.375 -1.7204 -0.9512  3.8983
    7MOL   H211 2383   4.277   6.121   4.247 -1.6540 -0.5498 -1.5272
    7MOL   H212 2384   4.185   6.186   4.372  0.1907 -0.4789 -0.3386
    7MOL   H213 2385   4.010   6.012   4.334 -0.6817  1.0254 -0.1401
    7MOL   H214 2386   4.080   5.996   4.177 -1.3564 -2.0640  1.2034
    7MOL   H215 2387   3.964   6.256   4.286  2.6098  1.6553 -0.2001
    7MOL   H216 2388   4.051   6.259   4.146  1.0656  0.9582  2.5504
    7MOL   H217 2389   3.911   6.147   4.152  0.6844 -0.6378  0.3605
    7MOL   C218 2390   4.424   5.873   4.546  0.4152  0.0236  0.1223
    7MOL   C219 2391   4.386   5.905   4.692 -0.8514 -0.0251 -0.2411
    7MOL   C220 2392   4.240   5.850   4.726  0.2307  0.1679 -1.0694
    7MOL   C221 2393   4.224   5.788   4.861  0.0651  0.2849  0.2854
    7MOL   C222 2394   4.286   5.652   4.879  0.9126  0.7109  0.1520
    7MOL   C223 2395   4.280   5.597   5.023 -0.2466  0.0322  0.2295
    7MOL   H224 2396   4.397   5.769   4.531  1.0213 -0.2889  1.1680
    7MOL   H225 2397   4.532   5.868   4.551  0.4646 -2.3342 -2.0942
    7MOL   H226 2398   4.455   5.871   4.770 -1.0726  1.0184  0.4255
    7MOL   H227 2399   4.189   5.793   4.648 -1.4439  0.1933 -0.0241
    7MOL   H228 2400   4.169   5.932   4.737  0.7582  0.3370  1.4626
    7MOL   H229 2401   4.121   5.790   4.897 -0.2530 -0.3526 -0.5899
    7MOL   H230 2402   4.274   5.859   4.926  1.0540 -0.8934  0.8465
    7MOL   H231 2403   4.248   5.575   4.812 -0.8550  1.0330  0.7344
    7MOL   H232 2404   4.390   5.670   4.852  0.1199  3.2396 -1.3787
    7MOL   H233 2405   4.177   5.582   5.053 -0.5622 -0.7506 -1.2149
    7MOL   H234 2406   4.339   5.660   5.090  0.5352 -0.7946  0.3350
    7MOL   H235 2407   4.340   5.506   5.019  1.4690  1.0474  1.8932
    7MOL   C236 2408   4.395   6.062   4.711 -0.0706  0.5300  0.8994
    7MOL   C237 2409   4.405   6.125   4.852  0.9040  0.1178 -0.0118
    7MOL   C238 2410   4.388   6.282   4.839  0.4620  0.2259 -0.3372
    7MOL   C239 2411   4.245   6.341   4.843 -0.4740 -0.0206 -0.1400
    7MOL   C240 2412   4.236   6.493   4.874  0.3893 -0.5569  0.0002
    7MOL   C241 2413   4.086   6.544   4.864  0.2046  0.7466  0.3961
    7MOL   H242 2414   4.481   6.101   4.656  0.8608 -1.8569  0.5622
    7MOL   H243 2415   4.310   6.102   4.655  1.0950  0.1562 -1.2113
    7MOL   H244 2416   4.324   6.089   4.915 -0.2759  0.9510 -1.0164
    7MOL   H245 2417   4.436   6.333   4.923 -1.0932 -0.5817  1.0522
    7MOL   H246 2418   4.434   6.318   4.746 -1.2593 -1.1666 -1.7441
    7MOL   H247 2419   4.191   6.290   4.923 -1.4567  1.5961  0.2476
    7MOL   H248 2420   4.198   6.315   4.748 -1.8964  1.0775  0.2474
    7MOL   H249 2421   4.291   6.519   4.964 -1.3882 -1.0712  1.2638
    7MOL   H250 2422   4.289   6.552   4.799 -0.4438 -0.0559 -0.2087
    7MOL   H251 2423   4.024   6.521   4.951 -0.8500  2.1380  0.0273
    7MOL   H252 2424   4.098   6.652   4.869 -0.8468  0.8419  0.9895
    7MOL   H253 2425   4.035   6.511   4.773  1.3334 -0.1004  0.0583
    7MOL   C254 2426   4.539   6.092   4.935  0.0945 -0.1276  0.6094
    7MOL   C255 2427   4.538   6.122   5.090  1.0690 -0.0507  0.0929
    7MOL   C256 2428   4.675   6.142   5.160  0.4635 -0.2795  0.0797
    7MOL   C257 2429   4.670   6.189   5.303  0.8704  0.2808  0.3172
    7MOL   C258 2430   4.795   6.250   5.367  0.4558 -0.1482  0.0063
    7MOL   C259 2431   4.783   6.294   5.512 -0.2108 -0.4803 -0.3106
    7MOL   H260 2432   4.618   6.140   4.877 -0.0324 -2.3270 -1.5203
    7MOL   H261 2433   4.559   5.985   4.924 -3.2432 -0.8116  0.4975
    7MOL   H262 2434   4.494   6.222   5.093  0.7716 -0.2034  0.8128
    7MOL   H263 2435   4.735   6.051   5.153  1.9040  0.6314  0.3827
    7MOL   H264 2436   4.743   6.219   5.126  3.3604 -2.5703  0.4578
    7MOL   H265 2437   4.596   6.268   5.319 -0.6151 -0.8726 -0.6269
    7MOL   H266 2438   4.634   6.108   5.366  0.7862  0.4963  0.5441
    7MOL   H267 2439   4.819   6.334   5.301  4.0359 -0.1881  1.1435
    7MOL   H268 2440   4.875   6.176   5.367 -0.8725 -1.6190  1.5595
    7MOL   H269 2441   4.882   6.332   5.536  1.4843 -2.6543 -3.5643
    7MOL   H270 2442   4.763   6.196   5.555 -0.0873 -0.5261 -0.3572
    7MOL   H271 2443   4.699   6.364   5.517  1.0691  1.1479 -0.9176
    7MOL   C272 2444   4.447   6.015   5.155  0.1536 -0.8971 -0.0104
    7MOL   C273 2445   4.351   6.063   5.266 -0.6459  0.3417  0.0941
    7MOL   C274 2446   4.311   5.949   5.362  0.2525  0.8247 -0.7940
    7MOL   C275 2447   4.195   5.852   5.322 -0.5668  0.2402 -0.1462
    7MOL   C276 2448   4.193   5.730   5.419 -0.0602  0.2916 -0.0694
    7MOL   C277 2449   4.177   5.593   5.360 -0.4590 -0.2601 -0.0475
    7MOL   H278 2450   4.381   5.970   5.081  0.5338  1.8743 -2.1083
    7MOL   H279 2451   4.519   5.939   5.186  0.0366 -1.3586 -0.8492
    7MOL   H280 2452   4.410   6.134   5.323 -1.1086 -0.3222  1.4229
    7MOL   H281 2453   4.277   5.985   5.460  1.5968 -1.7386  0.6787
    7MOL   H282 2454   4.401   5.896   5.393  0.2096 -0.1290 -2.2808
    7MOL   H283 2455   4.224   5.831   5.219  2.7768 -2.4719  1.2531
    7MOL   H284 2456   4.106   5.914   5.311 -2.9936 -2.4465  3.2971
    7MOL   H285 2457   4.278   5.717   5.485 -0.3360 -1.3400 -0.0162
    7MOL   H286 2458   4.114   5.733   5.494  0.2222  0.4116  0.2240
    7MOL   H287 2459   4.267   5.553   5.314  1.9675  2.2950  2.3370
    7MOL   H288 2460   4.153   5.530   5.445  2.7445 -0.0063  1.1061
    7MOL   H289 2461   4.100   5.601   5.283  0.5875 -0.5064 -1.1417
    7MOL   C290 2462   4.231   6.135   5.200 -0.0986  0.5857 -0.3149
    7MOL   C291 2463   4.142   6.228   5.297 -0.0597  0.3746 -0.3777
    7MOL   C292 2464   4.214   6.338   5.367  0.3740 -0.3882 -1.1494
    7MOL   C293 2465   4.301   6.433   5.283 -0.2685 -0.1577 -0.0902
    7MOL   C294 2466   4.246   6.570   5.252  0.0537 -0.7939 -0.5759
    7MOL   C295 2467   4.263   6.675   5.361  0.8561 -0.6247  0.3202
    7MOL   H296 2468   4.171   6.070   5.136  0.2233  2.0449 -2.1440
    7MOL   H297 2469   4.269   6.206   5.127 -0.7268  0.0503 -1.1741
    7MOL   H298 2470   4.107   6.160   5.375  1.2434 -0.5828 -0.5997
    7MOL   H299 2471   4.270   6.285   5.444 -0.3632  0.4145 -0.0357
    7MOL   H300 2472   4.133   6.390   5.420  2.1715 -0.4622  1.7871
    7MOL   H301 2473   4.397   6.441   5.336  1.4197 -1.7001 -2.8308
    7MOL   H302 2474   4.317   6.388   5.186  0.9339  1.8170 -0.8425
    7MOL   H303 2475   4.146   6.569   5.210  0.5737 -1.0673 -1.8253
    7MOL   H304 2476   4.298   6.613   5.166  0.6140 -0.9127 -0.3032
    7MOL   H305 2477   4.192   6.661   5.442 -1.0480  0.9654 -1.0255
    7MOL   H306 2478   4.237   6.770   5.314 -0.9320 -1.3421 -0.1732
    7MOL   H307 2479   4.365   6.691   5.397  0.5701 -1.2622  1.4359
    7MOL   C308 2480   4.025   6.283   5.209 -0.8211  0.4945 -0.0647
    7MOL   C309 2481   3.885   6.253   5.266 -0.1628 -0.0293 -0.7940
    7MOL   C310 2482   3.859   6.097   5.268  0.1350 -0.2240 -0.0882
    7MOL   C311 2483   3.858   6.023   5.130 -0.4270  0.0370 -0.0365
    7MOL   C312 2484   3.820   5.873   5.143 -0.3382  0.4469 -0.2925
    7MOL   C313 2485   3.809   5.804   5.004 -0.4720 -0.5374  0.9245
    7MOL   H314 2486   4.040   6.391   5.211 -0.6324  0.4897 -0.9499
    7MOL   H315 2487   4.041   6.259   5.104 -1.4676  1.3585 -0.3643
    7MOL   H316 2488   3.886   6.275   5.373  0.1362 -1.7332 -0.4339
    7MOL   H317 2489   3.761   6.075   5.309  0.4828  1.7850  1.9060
    7MOL   H318 2490   3.928   6.045   5.333 -1.2037  0.1158  1.6429
    7MOL   H319 2491   3.958   6.026   5.089  0.1020 -2.3148  1.0027
    7MOL   H320 2492   3.783   6.070   5.066 -0.7230 -1.0473 -0.4934
    7MOL   H321 2493   3.892   5.823   5.207 -0.5747  0.4866  0.0083
    7MOL   H322 2494   3.729   5.866   5.203 -0.1121 -0.6015 -0.0728
    7MOL   H323 2495   3.788   5.698   5.017 -2.4075 -0.3061 -0.2336
    7MOL   H324 2496   3.904   5.807   4.949  0.2516 -0.7296  2.1452
    7MOL   H325 2497   3.735   5.845   4.936  1.3688 -1.0466 -1.5022
    7MOL   C326 2498   3.777   6.340   5.198  0.5363 -0.0059  0.2108
    7MOL   C327 2499   3.782   6.493   5.225 -1.3365  0.2539  0.7201
    7MOL   C328 2500   3.675   6.562   5.138 -0.8620  0.0821 -0.0602
    7MOL   C329 2501   3.735   6.621   5.000  0.8210  0.2145  0.7175
    7MOL   C330 2502   3.619   6.669   4.907  0.4951  0.1486 -0.6604
    7MOL   C331 2503   3.675   6.751   4.795 -0.4575  0.0754 -0.1247
    7MOL   H332 2504   3.674   6.315   5.223  1.3806 -1.2425  2.5222
    7MOL   H333 2505   3.798   6.330   5.091 -0.6233  1.5492 -0.1689
    7MOL   H334 2506   3.878   6.532   5.192 -1.2204  0.4129  1.2448
    7MOL   H335 2507   3.603   6.492   5.094 -1.9227  1.9125 -1.3161
    7MOL   H336 2508   3.622   6.644   5.187  1.2900  2.4739 -1.5896
    7MOL   H337 2509   3.788   6.543   4.947  0.5089 -0.1011  0.8685
    7MOL   H338 2510   3.804   6.704   5.015  0.8217  0.5182 -0.9190
    7MOL   H339 2511   3.543   6.596   4.878 -0.4179  0.5943  0.5478
    7MOL   H340 2512   3.562   6.737   4.970  1.8736  1.4953 -0.8555
    7MOL   H341 2513   3.742   6.686   4.739 -0.3473  0.5451 -0.5407
    7MOL   H342 2514   3.734   6.826   4.847  1.8240 -1.2712 -0.6875
    7MOL   H343 2515   3.614   6.799   4.718  1.5409 -1.6067 -2.8218
    7MOL   C344 2516   3.763   6.533   5.371 -0.1265 -0.0290 -0.1076
    7MOL   C345 2517   3.835   6.660   5.408  0.0395  0.2073  0.2350
    7MOL   C346 2518   3.825   6.692   5.560 -0.3733  0.1765 -0.2359
    7MOL   C347 2519   3.891   6.825   5.604  0.4233  0.5885 -0.7040
    7MOL   C348 2520   3.917   6.828   5.761  0.0678 -0.1680  0.7254
    7MOL   C349 2521   3.998   6.954   5.808  0.4681 -0.5337  0.2344
    7MOL   H350 2522   3.655   6.540   5.387 -0.0810  0.2623  0.0802
    7MOL   H351 2523   3.779   6.451   5.441 -0.6686 -0.9579 -1.0497
    7MOL   H352 2524   3.800   6.741   5.345  0.3684  0.2658  0.1329
    7MOL   H353 2525   3.724   6.703   5.600 -0.3063 -2.1411  0.6545
    7MOL   H354 2526   3.860   6.598   5.602 -0.5662  0.7086  1.1442
    7MOL   H355 2527   3.985   6.830   5.548  1.2402  2.9665  0.7837
    7MOL   H356 2528   3.837   6.913   5.569 -0.0272  0.5325 -0.1526
    7MOL   H357 2529   3.816   6.822   5.801 -0.4546 -2.7739 -0.8674
    7MOL   H358 2530   3.966   6.735   5.787  2.9166  0.1594 -3.1219
    7MOL   H359 2531   4.016   6.937   5.914 -0.3366  3.4989  1.1031
    7MOL   H360 2532   4.098   6.959   5.766  0.4709 -0.9649  0.1871
    7MOL   H361 2533   3.959   7.055   5.797 -0.0359 -0.9577 -2.1914
    7MOL   H362 2534   3.936   6.636   5.377 -0.3674 -1.6782  0.3007
    8MOL     C1 2535   2.486   4.281   3.386 -0.7302  0.2233  0.3062
    8MOL     C2 2536   2.412   4.261   3.247  0.8316  0.2844  0.0728
    8MOL     C3 2537   2.333   4.130   3.239 -0.1286  0.5428  0.0540
    8MOL     C4 2538   2.223   4.110   3.342 -0.7756 -0.0140  0.0086
    8MOL     C5 2539   2.151   3.976   3.335 -0.2649 -0.2195  0.2666
    8MOL     C6 2540   2.214   3.852   3.410  0.2559 -0.8639 -0.3854
    8MOL     H7 2541   2.414   4.304   3.465 -0.2610 -0.1767  0.8611
    8MOL     H8 2542   2.539   4.189   3.413 -1.1728 -0.2573 -0.4729
    8MOL     H9 2543   2.356   4.354   3.232  1.5207  1.1575  2.5314
    8MOL    H10 2544   2.412   4.058   3.256 -0.5461  0.2728  0.8725
    8MOL    H11 2545   2.280   4.117   3.144  0.6616  0.4937 -0.3775
    8MOL    H12 2546   2.160   4.196   3.322  0.2870  0.8056  0.1258
    8MOL    H13 2547   2.253   4.133   3.445  2.4374  1.9808 -1.2962
    8MOL    H14 2548   2.054   3.998   3.381 -1.3946 -0.6725 -1.8361
    8MOL    H15 2549   2.117   3.949   3.235  1.1105 -1.7946  0.2073
    8MOL    H16 2550   2.160   3.760   3.388 -3.1997  0.8274  0.5309
    8MOL    H17 2551   2.221   3.858   3.519 -0.0093 -1.5333 -0.3303
    8MOL    H18 2552   2.316   3.846   3.373  0.7046  0.7896  0.5427
    8MOL    H19 2553   2.559   4.363   3.387 -1.5365  0.9581  2.2964
    8MOL    C20 2554   2.524   4.262   3.145  0.1659 -0.3748  0.0479
    8MOL    C21 2555   2.475   4.272   2.995 -0.1135  0.3096 -0.2694
    8MOL    C22 2556   2.451   4.416   2.944  1.0351 -0.0290 -0.2038
    8MOL    C23 2557   2.335   4.431   2.837  1.1711 -0.6100 -0.2612
    8MOL    C24 2558   2.303   4.577   2.800 -0.0762 -0.5271 -0.7951
    8MOL    C25 2559   2.302   4.677   2.919  0.9919  0.1036  0.3619
    8MOL    H26 2560   2.567   4.162   3.149 -2.1040 -1.3139  1.5800
    8MOL    H27 2561   2.597   4.341   3.164  1.0582 -1.0228 -0.6424
    8MOL    H28 2562   2.372   4.238   3.001 -0.4407  1.2635 -0.3976
    8MOL    H29 2563   2.542   4.452   2.896  0.3452 -0.2586 -1.7161
    8MOL    H30 2564   2.433   4.496   3.016  1.6466  1.1132 -1.3097
    8MOL    H31 2565   2.243   4.391   2.879  0.8692 -0.8044 -1.0919
    8MOL    H32 2566   2.354   4.380   2.742 -0.6428  0.2113 -1.0834
    8MOL    H33 2567   2.382   4.609   2.732  1.2865 -0.6083  0.7128
    8MOL    H34 2568   2.208   4.573   2.746 -0.8817 -0.3045  0.5810
    8MOL    H35 2569   2.400   4.717   2.946  0.4308  0.2663  2.2097
    8MOL    H36 2570   2.244   4.764   2.889  1.1035  0.5909  1.5219
    8MOL    H37 2571   2.256   4.638   3.010  0.8563 -0.7219 -0.0608
    8MOL    C38 2572   2.561   4.194   2.884  0.2007  0.1224  0.0989
    8MOL    C39 2573   2.544   4.038   2.891  0.4228  0.1759 -0.0743
    8MOL    C40 2574   2.403   3.988   2.849  0.1118 -0.3315  0.7981
    8MOL    C41 2575   2.362   3.845   2.884  0.1706  0.1594 -0.1368
    8MOL    C42 2576   2.225   3.811   2.831 -0.2456 -0.5001  0.0080
    8MOL    C43 2577   2.191   3.664   2.852 -0.7260  0.4731  0.0940
    8MOL    H44 2578   2.666   4.222   2.889  0.9035 -2.0382 -1.8672
    8MOL    H45 2579   2.529   4.232   2.787  0.3240  0.4251  0.1760
    8MOL    H46 2580   2.535   4.001   2.993 -2.8322 -1.1278 -0.7646
    8MOL    H47 2581   2.321   4.055   2.876  0.8557  0.4444  1.1279
    8MOL    H48 2582   2.410   4.005   2.742 -0.6379  0.3226  0.8497
    8MOL    H49 2583   2.442   3.776   2.856 -0.1115 -0.3213  0.2367
    8MOL    H50 2584   2.357   3.830   2.992  0.0860 -2.0063 -0.4159
    8MOL    H51 2585   2.164   3.875   2.894  0.3566  0.5013 -0.4190
    8MOL    H52 2586   2.215   3.849   2.730  1.3126  0.8490  0.3357
    8MOL    H53 2587   2.093   3.632   2.815 -1.0616 -0.4961  1.7692
    8MOL    H54 2588   2.188   3.633   2.956 -1.3852 -0.1978 -0.1209
    8MOL    H55 2589   2.263   3.609   2.790 -2.3939 -0.4777 -1.0506
    8MOL    C56 2590   2.658   3.970   2.802  0.5738  0.0178 -1.0682
    8MOL    C57 2591   2.790   3.941   2.878  0.0644  0.4308  0.2198
    8MOL    C58 2592   2.912   3.924   2.774 -0.1351 -0.1007 -0.0464
    8MOL    C59 2593   2.946   4.047   2.685 -0.5722  0.0041  0.3052
    8MOL    C60 2594   3.082   4.061   2.619  0.4810 -0.5592  0.6766
    8MOL    C61 2595   3.132   4.205   2.585  0.1406  0.0248  0.6291
    8MOL    H62 2596   2.613   3.881   2.759  1.4469 -1.3556  0.7645
    8MOL    H63 2597   2.679   4.045   2.727 -0.5991  0.5238 -0.8937
    8MOL    H64 2598   2.805   4.019   2.953  0.7796 -0.7225  1.2982
    8MOL    H65 2599   3.000   3.905   2.836  1.0477  0.9812 -1.3473
    8MOL    H66 2600   2.903   3.833   2.714 -1.4978 -0.0651  0.0880
    8MOL    H67 2601   2.940   4.126   2.759  2.5300  0.8140 -0.2512
    8MOL    H68 2602   2.864   4.073   2.619  0.5533 -1.3252 -1.6968
    8MOL    H69 2603   3.158   4.027   2.690  1.4377  0.2998  0.0865
    8MOL    H70 2604   3.097   3.998   2.531  4.3665  0.6599  0.3426
    8MOL    H71 2605   3.115   4.280   2.662  0.2469 -0.6080  1.2688
    8MOL    H72 2606   3.240   4.214   2.569  0.1907  1.7466  1.8163
    8MOL    H73 2607   3.085   4.240   2.493 -0.8266  0.2610  1.2146
    8MOL    C74 2608   2.768   3.810   2.954 -0.2020 -0.1418 -0.1145
    8MOL    C75 2609   2.876   3.788   3.064 -0.4621  0.8865  0.0254
    8MOL    C76 2610   2.854   3.877   3.190  0.4673  0.2598  0.4384
    8MOL    C77 2611   2.703   3.889   3.244 -0.4631 -0.1104 -0.5269
    8MOL    C78 2612   2.690   3.928   3.395  0.3530  0.7144 -0.2802
    8MOL    C79 2613   2.783   4.049   3.436 -0.1467 -0.2546 -0.1082
    8MOL    H80 2614   2.668   3.810   2.995 -0.3565  0.0172 -0.4834
    8MOL    H81 2615   2.761   3.733   2.876  0.7625 -0.8632  0.5034
    8MOL    H82 2616   2.972   3.824   3.028 -0.4139  1.8623  1.0835
    8MOL    H83 2617   2.912   3.836   3.273  2.3463 -0.6657 -1.3041
    8MOL    H84 2618   2.890   3.977   3.166 -1.3097  0.7538 -0.2842
    8MOL    H85 2619   2.643   3.961   3.188 -0.5209  0.2947  0.0498
    8MOL    H86 2620   2.640   3.801   3.249  0.5514 -0.7734  1.1110
    8MOL    H87 2621   2.719   3.842   3.457 -1.5846 -0.3897 -0.8689
    8MOL    H88 2622   2.589   3.946   3.430  1.1589  2.0206  1.4712
    8MOL    H89 2623   2.785   4.119   3.353  0.1688  0.0488  0.1543
    8MOL    H90 2624   2.763   4.094   3.533  0.0102  0.7916 -0.5563
    8MOL    H91 2625   2.879   4.000   3.453  0.4090  0.8388 -0.0412
    8MOL    C92 2626   2.873   3.636   3.086 -0.4750  0.8242 -0.1087
    8MOL    C93 2627   3.001   3.568   3.136  0.5335  0.0043  0.2996
    8MOL    C94 2628   2.973   3.423   3.182  0.1931 -0.6597  0.5881
    8MOL    C95 2629   2.900   3.413   3.315 -0.5584  0.4109 -0.0285
    8MOL    C96 2630   2.900   3.280   3.387 -0.4149 -0.6094 -0.0352
    8MOL    C97 2631   3.025   3.250   3.468  0.2515  0.1794  0.3601
    8MOL    H98 2632   2.781   3.619   3.142  0.1233 -0.6136  0.4661
    8MOL    H99 2633   2.861   3.594   2.986  3.2662  2.0899 -1.1605
    8MOL   H100 2634   3.029   3.617   3.229  0.8282  1.2438 -0.4289
    8MOL   H101 2635   3.064   3.362   3.188 -0.1153 -1.7152 -3.5273
    8MOL   H102 2636   2.910   3.368   3.112 -2.2856 -0.2028  2.3985
    8MOL   H103 2637   2.945   3.484   3.385 -1.1676  0.8488 -0.0784
    8MOL   H104 2638   2.798   3.448   3.299 -0.1417  1.2134 -0.9854
    8MOL   H105 2639   2.823   3.279   3.464  0.1693 -2.7350  0.5667
    8MOL   H106 2640   2.881   3.198   3.317  1.0647 -1.1837  0.2171
    8MOL   H107 2641   3.038   3.320   3.551  3.0371 -0.2163  0.2948
    8MOL   H108 2642   3.034   3.146   3.497 -0.3935 -0.5576 -1.9322
    8MOL   H109 2643   3.114   3.267   3.407 -0.6870 -1.4244 -1.4952
    8MOL   C110 2644   3.122   3.586   3.036  0.3084 -0.2558 -0.5192
    8MOL   C111 2645   3.249   3.641   3.096  0.5319 -0.4050 -0.4062
    8MOL   C112 2646   3.363   3.675   3.002  0.4005 -0.1188  0.8595
    8MOL   C113 2647   3.338   3.789   2.911  0.2381 -0.2549  0.3584
    8MOL   C114 2648   3.477   3.841   2.858 -0.2526  0.3940 -0.7504
    8MOL   C115 2649   3.465   3.945   2.744 -0.6683 -0.0302 -0.3277
    8MOL   H116 2650   3.149   3.490   2.992 -1.1451 -1.3691  0.9589
    8MOL   H117 2651   3.094   3.651   2.953  1.3203  0.7956 -0.0728
    8MOL   H118 2652   3.224   3.736   3.143  0.2493 -0.6165 -0.1304
    8MOL   H119 2653   3.404   3.586   2.954  0.2812  0.0593  0.4215
    8MOL   H120 2654   3.441   3.711   3.069  0.0521 -0.8105  1.6430
    8MOL   H121 2655   3.280   3.866   2.962 -0.3679 -0.3390 -0.1925
    8MOL   H122 2656   3.279   3.758   2.825  2.5308  0.5190 -1.5521
    8MOL   H123 2657   3.538   3.758   2.822 -1.1816 -1.0795  1.0247
    8MOL   H124 2658   3.530   3.882   2.943 -1.0358 -0.7312  0.2988
    8MOL   H125 2659   3.412   3.888   2.667 -1.6339 -0.1754  0.4220
    8MOL   H126 2660   3.403   4.032   2.767 -0.4469  0.2577 -0.8119
    8MOL   H127 2661   3.562   3.979   2.707 -0.1594 -0.1784  0.8568
    8MOL   C128 2662   3.308   3.541   3.199 -0.3479 -0.0521  0.3403
    8MOL   C129 2663   3.401   3.593   3.308  0.0683 -0.1076  0.5803
    8MOL   C130 2664   3.453   3.477   3.392 -0.7179 -0.2545 -0.0669
    8MOL   C131 2665   3.585   3.505   3.470 -0.0044 -0.2022  0.5157
    8MOL   C132 2666   3.638   3.380   3.532  0.0746  0.5747  0.4198
    8MOL   C133 2667   3.738   3.400   3.648  0.4761 -0.0377  0.5243
    8MOL   H134 2668   3.354   3.451   3.158 -1.2571 -0.3950  0.0544
    8MOL   H135 2669   3.236   3.491   3.264  1.8021 -0.6649  2.3204
    8MOL   H136 2670   3.495   3.630   3.267  0.4878 -2.1958 -0.4226
    8MOL   H137 2671   3.367   3.451   3.453 -0.2981 -0.5722  0.3998
    8MOL   H138 2672   3.474   3.385   3.337 -1.8882 -0.1611 -0.6772
    8MOL   H139 2673   3.587   3.587   3.542 -0.6625  0.2357  0.0497
    8MOL   H140 2674   3.660   3.547   3.403  0.4762 -2.1741 -0.2054
    8MOL   H141 2675   3.553   3.337   3.585  1.7100 -2.5094  0.6396
    8MOL   H142 2676   3.674   3.313   3.454 -1.5393  1.5107 -1.1823
    8MOL   H143 2677   3.799   3.490   3.637  0.0551  0.0630 -1.1774
    8MOL   H144 2678   3.812   3.320   3.651 -0.2769 -0.9799 -3.2243
    8MOL   H145 2679   3.679   3.401   3.739 -1.8260  0.4613 -0.9235
    8MOL   C146 2680   3.342   3.700   3.402 -0.4617 -0.3247  0.2608
    8MOL   C147 2681   3.375   3.847   3.367 -0.0427  0.4405  0.2940
    8MOL   C148 2682   3.522   3.877   3.407 -0.4695  0.5238 -0.0773
    8MOL   C149 2683   3.617   3.913   3.295  0.4862 -0.0610  0.1403
    8MOL   C150 2684   3.766   3.925   3.335  0.0625 -1.0098  0.3842
    8MOL   C151 2685   3.853   3.980   3.218  0.5278 -0.2986 -0.2270
    8MOL   H152 2686   3.233   3.698   3.397 -0.3812  0.8372 -2.5123
    8MOL   H153 2687   3.365   3.690   3.508  0.9837  0.0413 -0.0118
    8MOL   H154 2688   3.367   3.859   3.259  1.3501 -1.4618 -0.0585
    8MOL   H155 2689   3.558   3.788   3.459 -1.9054 -0.3668 -0.5725
    8MOL   H156 2690   3.528   3.961   3.476 -0.9743  0.6727 -0.2107
    8MOL   H157 2691   3.621   3.830   3.225 -2.2282  1.0789 -1.4446
    8MOL   H158 2692   3.587   3.999   3.236  0.2214  0.3843  0.9055
    8MOL   H159 2693   3.797   3.823   3.356 -3.4379 -2.4393 -1.0532
    8MOL   H160 2694   3.771   3.992   3.421  0.7898  1.3148 -1.4152
    8MOL   H161 2695   3.832   4.084   3.194 -0.3258 -0.7581 -1.5490
    8MOL   H162 2696   3.957   3.952   3.234  0.4823 -0.7174 -0.6434
    8MOL   H163 2697   3.830   3.938   3.120  2.0923  0.0046 -0.7296
    8MOL   C164 2698   3.271   3.941   3.428  0.0559 -0.0269  0.1959
    8MOL   C165 2699   3.281   4.092   3.401 -0.2968  0.1227  0.0258
    8MOL   C166 2700   3.278   4.118   3.246  0.0704  0.3763  0.2395
    8MOL   C167 2701   3.152   4.075   3.174 -0.3163  0.4441  0.5822
    8MOL   C168 2702   3.150   4.119   3.024 -0.4213  0.6307 -0.2852
    8MOL   C169 2703   3.097   4.260   2.996 -0.4306 -0.0775  0.6461
    8MOL   H170 2704   3.167   3.920   3.402  0.3634 -0.1117 -0.9793
    8MOL   H171 2705   3.297   3.925   3.533 -1.1288 -1.6839  0.2601
    8MOL   H172 2706   3.381   4.130   3.421 -0.0988 -0.2058 -0.3353
    8MOL   H173 2707   3.366   4.067   3.206  1.0170  0.8614  1.6741
    8MOL   H174 2708   3.311   4.220   3.229 -1.2198  1.1825  2.4310
    8MOL   H175 2709   3.067   4.129   3.216  0.2057  0.0645  2.1333
    8MOL   H176 2710   3.130   3.969   3.187  2.8678 -0.3124  0.1475
    8MOL   H177 2711   3.094   4.041   2.972  0.9704  0.0363 -0.9067
    8MOL   H178 2712   3.253   4.109   2.991 -0.2950 -1.5324  0.6856
    8MOL   H179 2713   3.143   4.338   3.057 -1.8452  0.5050  0.9833
    8MOL   H180 2714   2.992   4.260   3.022 -1.1460  0.3983 -2.0793
    8MOL   H181 2715   3.117   4.280   2.890 -1.5528 -0.6298  0.3267
    8MOL   C182 2716   3.177   4.172   3.480 -0.1739 -0.1328 -0.1886
    8MOL   C183 2717   3.189   4.333   3.487 -0.5537  0.2094 -0.2133
    8MOL   C184 2718   3.111   4.400   3.371  0.1570  0.0524 -0.1418
    8MOL   C185 2719   2.963   4.423   3.403 -0.6950 -0.4282 -0.2457
    8MOL   C186 2720   2.885   4.438   3.277  0.0055  0.0667 -0.0118
    8MOL   C187 2721   2.935   4.554   3.193  0.1728 -0.1774  0.7386
    8MOL   H188 2722   3.080   4.145   3.437 -0.7212  1.7202 -0.1503
    8MOL   H189 2723   3.177   4.146   3.586 -2.0417  0.4158 -0.0240
    8MOL   H190 2724   3.138   4.352   3.582 -0.2534  1.3835 -0.2798
    8MOL   H191 2725   3.144   4.502   3.351  0.0981  0.6869  2.7484
    8MOL   H192 2726   3.118   4.340   3.281 -0.6425  0.9721 -0.8274
    8MOL   H193 2727   2.952   4.512   3.465 -0.3734 -0.3925 -0.2426
    8MOL   H194 2728   2.926   4.339   3.461  0.6706 -0.1655  1.0435
    8MOL   H195 2729   2.784   4.463   3.310  0.2050  0.8232  0.0379
    8MOL   H196 2730   2.885   4.344   3.223 -1.3737  0.5659 -0.8950
    8MOL   H197 2731   2.921   4.643   3.255  1.4175 -0.6684  1.7304
    8MOL   H198 2732   2.882   4.561   3.098  0.5634  0.1732  0.5410
    8MOL   H199 2733   3.041   4.563   3.168 -0.3299 -1.5127 -2.0692
    8MOL   C200 2734   3.331   4.377   3.505 -0.2118 -0.2261  0.2961
    8MOL   C201 2735   3.358   4.521   3.566  0.4586 -0.5059 -0.1764
    8MOL   C202 2736   3.302   4.551   3.710  0.2816 -0.7945 -0.9175
    8MOL   C203 2737   3.320   4.436   3.812  0.2001 -0.8721  0.2848
    8MOL   C204 2738   3.261   4.455   3.950 -0.1638  0.6095 -0.3821
    8MOL   C205 2739   3.297   4.325   4.022 -0.1789  0.2382 -0.0080
    8MOL   H206 2740   3.387   4.373   3.411 -0.3332 -0.8104  0.2464
    8MOL   H207 2741   3.381   4.301   3.565  1.2113 -0.9198 -1.7005
    8MOL   H208 2742   3.290   4.592   3.518  0.6543 -0.6785 -0.7101
    8MOL   H209 2743   3.195   4.573   3.710  0.4858  0.3376  0.9512
    8MOL   H210 2744   3.357   4.632   3.757 -2.2411  1.4775 -1.7818
    8MOL   H211 2745   3.428   4.425   3.824  0.5749 -1.3082 -3.1012
    8MOL   H212 2746   3.288   4.340   3.770 -1.2357  0.8882 -2.7756
    8MOL   H213 2747   3.153   4.469   3.949 -0.1997  0.2891 -1.7142
    8MOL   H214 2748   3.299   4.543   4.002  1.1367  0.6978 -1.4683
    8MOL   H215 2749   3.275   4.343   4.127  0.0030  0.2140  0.0344
    8MOL   H216 2750   3.236   4.240   3.993  1.7837 -1.2778  0.2194
    8MOL   H217 2751   3.403   4.300   4.022 -0.2192  0.0822  1.0171
    8MOL   C218 2752   3.502   4.559   3.542  0.2484 -0.1455 -0.2219
    8MOL   C219 2753   3.535   4.710   3.538  0.3116  0.0122  1.0564
    8MOL   C220 2754   3.493   4.783   3.419 -0.5449 -0.0970  0.0209
    8MOL   C221 2755   3.561   4.745   3.283 -0.2612 -0.2679 -0.5055
    8MOL   C222 2756   3.501   4.804   3.153  0.6342  0.7912  0.1520
    8MOL   C223 2757   3.521   4.950   3.141  0.4020  0.0994 -0.5752
    8MOL   H224 2758   3.566   4.529   3.626 -1.4576 -0.1678  1.0973
    8MOL   H225 2759   3.544   4.513   3.453  1.1303 -3.1629  1.6745
    8MOL   H226 2760   3.472   4.756   3.614  1.6010  2.2356  0.8176
    8MOL   H227 2761   3.518   4.887   3.443 -2.9450 -0.1267  2.8669
    8MOL   H228 2762   3.387   4.781   3.394 -0.4517 -0.4173 -0.3582
    8MOL   H229 2763   3.570   4.638   3.263  0.1816 -0.2488 -0.4088
    8MOL   H230 2764   3.663   4.783   3.289 -1.0180  1.5558  1.4675
    8MOL   H231 2765   3.540   4.744   3.071 -1.1197 -0.4984  0.2482
    8MOL   H232 2766   3.396   4.780   3.168  0.2591  2.9134  1.2524
    8MOL   H233 2767   3.494   4.999   3.235  0.9521 -1.4868  0.4365
    8MOL   H234 2768   3.458   4.987   3.061 -0.2512  0.6221  0.1752
    8MOL   H235 2769   3.626   4.972   3.123  0.4004 -0.9641 -1.9282
    8MOL   C236 2770   3.676   4.749   3.586  0.7001  0.3489  0.1860
    8MOL   C237 2771   3.700   4.761   3.742  0.6408  0.2387  0.3719
    8MOL   C238 2772   3.647   4.903   3.786  0.3159  0.0902 -0.7625
    8MOL   C239 2773   3.724   5.021   3.732 -0.3922 -0.4540  0.4887
    8MOL   C240 2774   3.691   5.146   3.819 -0.0269 -0.3510  0.6889
    8MOL   C241 2775   3.741   5.265   3.741 -0.7327 -0.1695  0.0605
    8MOL   H242 2776   3.750   4.676   3.551 -0.0285  0.3481 -1.3918
    8MOL   H243 2777   3.708   4.831   3.522 -0.0225 -0.0368 -0.6884
    8MOL   H244 2778   3.631   4.693   3.792 -0.9968  1.4663 -0.1733
    8MOL   H245 2779   3.542   4.922   3.763 -0.0350  0.1867  0.8098
    8MOL   H246 2780   3.656   4.914   3.894 -0.3198 -1.8493 -0.4928
    8MOL   H247 2781   3.702   5.035   3.626  2.8340  1.8234  0.0687
    8MOL   H248 2782   3.828   4.991   3.748 -0.3838 -1.6159 -1.5271
    8MOL   H249 2783   3.583   5.146   3.838 -0.5651 -2.3647 -2.1500
    8MOL   H250 2784   3.753   5.145   3.908  0.9140  2.9500  0.1518
    8MOL   H251 2785   3.850   5.267   3.736 -0.7435 -1.7770 -1.0885
    8MOL   H252 2786   3.700   5.260   3.641 -0.3241  2.1666 -0.2447
    8MOL   H253 2787   3.713   5.362   3.784 -0.4602  0.0727 -0.3101
    8MOL   C254 2788   3.843   4.715   3.787  0.7170 -0.0324  0.3274
    8MOL   C255 2789   3.874   4.707   3.937 -0.9948 -0.1002 -0.0027
    8MOL   C256 2790   4.016   4.760   3.973 -1.2755  0.3326 -0.0245
    8MOL   C257 2791   4.049   4.913   3.960 -0.2549 -0.5829  0.5589
    8MOL   C258 2792   4.178   4.960   4.031  0.2584  0.2090 -0.0044
    8MOL   C259 2793   4.202   5.109   4.009  0.5371  0.5021 -0.2453
    8MOL   H260 2794   3.919   4.783   3.749  1.8809 -1.5727 -0.1920
    8MOL   H261 2795   3.861   4.618   3.740 -2.5639 -0.5191 -0.0538
    8MOL   H262 2796   3.813   4.784   3.983  0.7758  1.6449 -0.4510
    8MOL   H263 2797   4.048   4.748   4.076  0.7215  3.0338 -0.2738
    8MOL   H264 2798   4.091   4.699   3.923 -1.4371 -0.4068  0.6304
    8MOL   H265 2799   4.065   4.944   3.856 -0.3790 -1.7083  0.1907
    8MOL   H266 2800   3.960   4.969   3.986 -0.8544 -0.1224 -2.2753
    8MOL   H267 2801   4.265   4.902   4.002  0.1341 -0.9674  1.9356
    8MOL   H268 2802   4.168   4.944   4.138 -0.6746  1.4998  0.1250
    8MOL   H269 2803   4.116   5.174   4.027 -1.0430 -1.7768  0.8155
    8MOL   H270 2804   4.227   5.130   3.905  0.6168  1.6955  0.0104
    8MOL   H271 2805   4.289   5.137   4.067  0.1129  0.7322  0.2819
    8MOL   C272 2806   3.854   4.574   4.021  0.6466  0.3759  0.0216
    8MOL   C273 2807   3.706   4.519   4.029  0.4151  0.4540  0.3404
    8MOL   C274 2808   3.616   4.619   4.097 -0.2918 -0.7134 -1.0360
    8MOL   C275 2809   3.649   4.664   4.243  0.2104  1.0461 -0.0795
    8MOL   C276 2810   3.519   4.678   4.333 -0.0036  0.0085 -0.6520
    8MOL   C277 2811   3.459   4.539   4.363  0.0846  0.5721 -0.3613
    8MOL   H278 2812   3.922   4.506   3.970 -2.2205 -1.5359 -1.3738
    8MOL   H279 2813   3.884   4.586   4.125  0.0257 -2.9589  0.6435
    8MOL   H280 2814   3.660   4.508   3.931 -0.3426  1.4797  0.5779
    8MOL   H281 2815   3.520   4.568   4.098 -0.4245 -0.5400 -2.9227
    8MOL   H282 2816   3.594   4.710   4.041 -0.5637  0.5928  1.1464
    8MOL   H283 2817   3.714   4.750   4.231  1.3883 -0.1198 -2.3314
    8MOL   H284 2818   3.714   4.593   4.294 -0.5983 -1.3240 -2.2325
    8MOL   H285 2819   3.538   4.732   4.425  2.3592 -0.5718 -0.7693
    8MOL   H286 2820   3.449   4.744   4.281 -1.7886 -1.2351  0.1815
    8MOL   H287 2821   3.417   4.494   4.273  1.3704 -2.5827  0.5352
    8MOL   H288 2822   3.533   4.467   4.398 -0.6574 -1.0937 -2.1304
    8MOL   H289 2823   3.397   4.545   4.452  0.5312  0.3450 -0.0299
    8MOL   C290 2824   3.696   4.375   4.097  0.1884 -0.5838  0.2092
    8MOL   C291 2825   3.768   4.256   4.022  0.0787  0.0848  0.4539
    8MOL   C292 2826   3.807   4.143   4.122  0.2803 -0.2379 -0.3733
    8MOL   C293 2827   3.920   4.180   4.219 -0.7118  0.0630  0.2868
    8MOL   C294 2828   4.002   4.064   4.263 -0.1152 -0.1730 -0.1983
    8MOL   C295 2829   4.110   4.013   4.157 -0.4996 -0.3780  0.7374
    8MOL   H296 2830   3.597   4.345   4.130 -0.6313  0.5160 -1.2068
    8MOL   H297 2831   3.747   4.394   4.191 -0.9383  1.4624  0.4235
    8MOL   H298 2832   3.858   4.300   3.979  0.2478 -0.4599  0.2491
    8MOL   H299 2833   3.841   4.059   4.062 -0.7984 -1.1198  0.2325
    8MOL   H300 2834   3.711   4.123   4.168 -0.7902  0.4727 -2.2639
    8MOL   H301 2835   3.984   4.253   4.170  1.4942 -1.1270  1.2988
    8MOL   H302 2836   3.884   4.230   4.309  2.3656  1.1411  0.9735
    8MOL   H303 2837   3.935   3.980   4.282 -1.8618  1.0476 -0.8358
    8MOL   H304 2838   4.059   4.082   4.355  1.4703 -0.9329 -1.0180
    8MOL   H305 2839   4.071   4.035   4.058  0.1987 -0.7673  0.3777
    8MOL   H306 2840   4.134   3.907   4.164  1.0273 -0.2339 -1.8658
    8MOL   H307 2841   4.205   4.065   4.151 -0.6858 -0.0447  0.6959
    8MOL   C308 2842   3.676   4.197   3.912 -0.5799  0.2311 -0.4599
    8MOL   C309 2843   3.768   4.135   3.802  0.9109  0.2675  0.9973
    8MOL   C310 2844   3.831   4.236   3.696  0.0362  0.5092 -0.2409
    8MOL   C311 2845   3.968   4.178   3.647 -0.2163  0.7693  0.4454
    8MOL   C312 2846   4.028   4.284   3.547 -0.6187  0.3304 -0.5215
    8MOL   C313 2847   4.150   4.235   3.461 -0.0838 -0.2732 -0.3022
    8MOL   H314 2848   3.602   4.134   3.962  0.1560 -0.0616  0.2758
    8MOL   H315 2849   3.635   4.288   3.868  0.8326  0.8343 -0.5837
    8MOL   H316 2850   3.854   4.084   3.847  1.3206  0.0113 -0.0478
    8MOL   H317 2851   3.850   4.335   3.737  0.2895 -0.1299  1.2395
    8MOL   H318 2852   3.761   4.250   3.614  0.4668  0.7887 -0.5617
    8MOL   H319 2853   3.953   4.079   3.603 -0.4315  2.5910 -3.8387
    8MOL   H320 2854   4.040   4.155   3.726  0.6102  2.1340  0.0907
    8MOL   H321 2855   3.955   4.323   3.476  0.9629  2.7042 -0.8973
    8MOL   H322 2856   4.047   4.382   3.590  2.2861  0.5013 -2.0361
    8MOL   H323 2857   4.233   4.202   3.524 -0.7621 -0.7771  0.3478
    8MOL   H324 2858   4.183   4.315   3.395  2.1853  0.4049  1.5511
    8MOL   H325 2859   4.117   4.149   3.403 -1.5834  0.2324 -0.2203
    8MOL   C326 2860   3.682   4.029   3.728  0.3279  0.0453  0.2257
    8MOL   C327 2861   3.675   3.898   3.800 -0.4952 -0.7570  0.3495
    8MOL   C328 2862   3.541   3.829   3.785 -0.2590  0.2972 -0.2787
    8MOL   C329 2863   3.412   3.900   3.820 -0.4027  0.2187  0.6044
    8MOL   C330 2864   3.291   3.811   3.835 -0.0917  0.6196 -0.3751
    8MOL   C331 2865   3.156   3.881   3.865 -0.4322 -0.8048  0.1616
    8MOL   H332 2866   3.722   4.014   3.628  0.3599  0.5051  0.1690
    8MOL   H333 2867   3.588   4.073   3.693  0.0144  0.0403  1.0462
    8MOL   H334 2868   3.688   3.917   3.907 -0.2629 -1.4414  0.4399
    8MOL   H335 2869   3.538   3.800   3.680  0.3222 -0.1598 -0.1748
    8MOL   H336 2870   3.535   3.736   3.841 -0.5939  0.8129  0.5447
    8MOL   H337 2871   3.384   3.969   3.741 -1.7879 -1.2657 -0.2323
    8MOL   H338 2872   3.434   3.957   3.910 -1.5322  0.2981  0.8341
    8MOL   H339 2873   3.283   3.767   3.736 -0.1995  0.6904 -0.3982
    8MOL   H340 2874   3.308   3.726   3.901 -0.0648  0.7696 -0.1879
    8MOL   H341 2875   3.076   3.808   3.857 -1.4556  0.3344 -0.1476
    8MOL   H342 2876   3.143   3.963   3.794  0.4100 -2.3086 -1.7586
    8MOL   H343 2877   3.159   3.919   3.967  0.5971  0.7296 -0.4221
    8MOL   C344 2878   3.785   3.807   3.766 -0.1999  0.8581 -0.2916
    8MOL   C345 2879   3.804   3.698   3.875  0.2021 -0.7165 -0.2104
    8MOL   C346 2880   3.822   3.746   4.024  0.6083 -0.0592  0.5354
    8MOL   C347 2881   3.866   3.630   4.118 -0.5457 -1.2383 -0.1891
    8MOL   C348 2882   3.885   3.670   4.261 -0.0478 -0.4951  0.2038
    8MOL   C349 2883   3.953   3.571   4.356 -0.3761 -0.0246 -0.5255
    8MOL   H350 2884   3.778   3.766   3.666 -0.4098  0.8810 -0.2862
    8MOL   H351 2885   3.869   3.876   3.774  0.0594  0.4174  1.0385
    8MOL   H352 2886   3.897   3.648   3.846  0.6197  1.2520 -2.3972
    8MOL   H353 2887   3.895   3.827   4.024 -1.0370  1.4697 -0.4248
    8MOL   H354 2888   3.718   3.773   4.045  0.3100 -0.8264  0.0772
    8MOL   H355 2889   3.791   3.552   4.119 -1.6718 -0.1760  0.5983
    8MOL   H356 2890   3.956   3.584   4.078  1.9464  0.8301  2.7136
    8MOL   H357 2891   3.947   3.760   4.266 -0.3818 -0.2529 -0.0402
    8MOL   H358 2892   3.796   3.702   4.314  0.0631  1.1096 -0.5633
    8MOL   H359 2893   3.957   3.612   4.456  0.3583 -1.5236  0.0814
    8MOL   H360 2894   3.903   3.474   4.362 -3.0104  1.3705  0.7731
    8MOL   H361 2895   4.061   3.564   4.345 -0.5742 -2.0100 -1.3795
    8MOL   H362 2896   3.716   3.635   3.860 -0.0196 -0.0494 -1.8563
    9MOL     C1 2897   4.846   1.014   1.627 -0.1451 -0.4034  0.0977
    9MOL     C2 2898   4.805   0.986   1.775  1.0028  0.5544  0.3396
    9MOL     C3 2899   4.655   0.930   1.776  0.3784 -0.3419 -0.2580
    9MOL     C4 2900   4.628   0.832   1.887 -0.9892 -0.3014 -1.0989
    9MOL     C5 2901   4.491   0.775   1.866  0.5852  0.6675 -0.1480
    9MOL     C6 2902   4.451   0.677   1.976  0.2983 -0.5420 -1.1033
    9MOL     H7 2903   4.838   0.933   1.555 -0.6005 -0.9622  0.7783
    9MOL     H8 2904   4.804   1.109   1.592 -0.5290 -0.7601 -0.4102
    9MOL     H9 2905   4.883   0.919   1.810  1.4372  0.6244 -0.4852
    9MOL    H10 2906   4.629   0.888   1.679 -0.6750 -0.1912 -0.0479
    9MOL    H11 2907   4.599   1.023   1.768  1.0005 -0.0272 -1.0938
    9MOL    H12 2908   4.637   0.880   1.984  1.3974  0.9249 -1.8952
    9MOL    H13 2909   4.708   0.758   1.887  0.2912  1.0224  1.2491
    9MOL    H14 2910   4.422   0.859   1.866 -0.7873 -0.4433  1.0737
    9MOL    H15 2911   4.487   0.731   1.766  0.5443  0.3062  0.0125
    9MOL    H16 2912   4.462   0.731   2.070 -0.0126  0.4487 -1.6298
    9MOL    H17 2913   4.511   0.586   1.978  1.4808  0.2360  1.4794
    9MOL    H18 2914   4.344   0.659   1.970  0.1259  0.0535  0.1098
    9MOL    H19 2915   4.952   1.040   1.621  0.1743 -1.5554  0.7551
    9MOL    C20 2916   4.815   1.120   1.860  0.0711  0.3746 -0.5984
    9MOL    C21 2917   4.801   1.106   2.016 -0.1655  0.4853 -0.1400
    9MOL    C22 2918   4.909   1.016   2.080  0.0378 -0.2426  0.2717
    9MOL    C23 2919   4.881   0.957   2.220  0.4434 -0.2901 -0.0205
    9MOL    C24 2920   4.998   0.860   2.258  0.4308 -0.4333 -0.2759
    9MOL    C25 2921   5.121   0.936   2.314 -0.5570  0.5501  0.5846
    9MOL    H26 2922   4.733   1.179   1.819 -0.6045  0.0317  0.2245
    9MOL    H27 2923   4.901   1.185   1.850  0.7062 -0.1405  1.2295
    9MOL    H28 2924   4.702   1.064   2.036 -1.2924  4.1455  2.3976
    9MOL    H29 2925   4.998   1.079   2.077 -0.6257  0.7830  1.5343
    9MOL    H30 2926   4.941   0.941   2.009 -0.6688  0.4872 -0.8327
    9MOL    H31 2927   4.783   0.909   2.224  0.2557  0.2554  2.8193
    9MOL    H32 2928   4.860   1.033   2.296  2.1823  0.7001 -0.5084
    9MOL    H33 2929   4.961   0.785   2.328  0.2586  0.1132  0.2145
    9MOL    H34 2930   5.036   0.803   2.173 -0.8101  1.7698 -2.3665
    9MOL    H35 2931   5.103   0.997   2.402  2.6141  1.0374  0.9344
    9MOL    H36 2932   5.198   0.866   2.346 -0.4632 -0.1847 -1.1441
    9MOL    H37 2933   5.169   0.988   2.231 -1.0302 -1.7251 -1.1978
    9MOL    C38 2934   4.779   1.244   2.086  0.3505 -0.1642 -0.4221
    9MOL    C39 2935   4.642   1.320   2.041 -0.5988  0.1448  0.4905
    9MOL    C40 2936   4.508   1.270   2.101 -0.2533  0.3035  0.1169
    9MOL    C41 2937   4.421   1.185   2.008  0.1318  0.1000 -0.6751
    9MOL    C42 2938   4.294   1.129   2.084 -0.1674 -0.0666  0.3993
    9MOL    C43 2939   4.191   1.062   2.000 -0.2894  0.8750 -0.0198
    9MOL    H44 2940   4.863   1.310   2.063  1.0808 -1.3239 -1.1670
    9MOL    H45 2941   4.788   1.233   2.194  1.9693 -0.2976 -0.5602
    9MOL    H46 2942   4.638   1.333   1.933 -0.6228 -0.7093  0.3858
    9MOL    H47 2943   4.529   1.218   2.194 -0.5648 -0.1698 -0.0759
    9MOL    H48 2944   4.450   1.358   2.132 -1.4771 -1.2283  2.2675
    9MOL    H49 2945   4.372   1.246   1.932 -3.5051  1.1179  2.3245
    9MOL    H50 2946   4.484   1.115   1.953  2.6108  0.8875  1.0933
    9MOL    H51 2947   4.332   1.050   2.149  0.9117 -0.6674 -0.9342
    9MOL    H52 2948   4.249   1.218   2.129  1.9173  0.3318  1.7510
    9MOL    H53 2949   4.156   1.127   1.921 -0.7089  2.5520  1.5258
    9MOL    H54 2950   4.103   1.030   2.055 -0.2243 -1.0136 -0.9631
    9MOL    H55 2951   4.242   0.970   1.969  0.3338  0.5215  1.9868
    9MOL    C56 2952   4.650   1.474   2.085  0.0807  0.3510  0.6817
    9MOL    C57 2953   4.762   1.563   2.022  0.2722  0.1455 -0.3964
    9MOL    C58 2954   4.743   1.715   2.055 -0.0897  0.2649  0.3602
    9MOL    C59 2955   4.745   1.751   2.205  0.4293  0.7034  0.7830
    9MOL    C60 2956   4.729   1.901   2.220 -1.1556 -0.1278  0.0143
    9MOL    C61 2957   4.596   1.962   2.174 -0.2530  0.2504  0.6918
    9MOL    H62 2958   4.557   1.524   2.057  0.2271  1.1479  1.6116
    9MOL    H63 2959   4.668   1.472   2.192  2.5489 -0.1366  0.2805
    9MOL    H64 2960   4.857   1.530   2.065  0.5822 -1.2632 -2.0945
    9MOL    H65 2961   4.810   1.781   2.001 -0.3245 -0.5183 -0.8962
    9MOL    H66 2962   4.646   1.741   2.012  0.1016  1.8068  0.8285
    9MOL    H67 2963   4.830   1.711   2.261 -0.8750 -1.5291  1.2020
    9MOL    H68 2964   4.660   1.705   2.254  0.4781  0.3094  0.5025
    9MOL    H69 2965   4.747   1.931   2.323  1.8298  0.6218 -0.6903
    9MOL    H70 2966   4.813   1.945   2.167 -1.9637 -0.7094 -1.7863
    9MOL    H71 2967   4.596   2.067   2.202  1.4573  0.1180  1.2323
    9MOL    H72 2968   4.579   1.950   2.067 -0.2449  1.5520  0.5419
    9MOL    H73 2969   4.516   1.910   2.228  0.1914  1.5721  2.6902
    9MOL    C74 2970   4.762   1.546   1.869 -0.4159  0.2805  0.2372
    9MOL    C75 2971   4.826   1.649   1.774 -0.4726 -0.0450  0.2705
    9MOL    C76 2972   4.978   1.641   1.807 -0.3623 -0.1489 -0.2267
    9MOL    C77 2973   5.065   1.749   1.744  0.0220  0.4126  1.1061
    9MOL    C78 2974   5.029   1.892   1.764  0.3104  0.1239  0.0543
    9MOL    C79 2975   5.130   2.003   1.708  0.4816  1.0831  0.0080
    9MOL    H80 2976   4.816   1.453   1.851 -2.1615 -0.8321  0.5142
    9MOL    H81 2977   4.657   1.528   1.844 -1.1411 -2.7730  4.8026
    9MOL    H82 2978   4.785   1.747   1.801  0.6937 -0.0197  2.0024
    9MOL    H83 2979   4.995   1.643   1.915 -1.2175 -0.9505 -0.0623
    9MOL    H84 2980   5.014   1.542   1.777  1.4383  0.8474 -1.4298
    9MOL    H85 2981   5.163   1.743   1.790  0.2676 -1.1165  0.4040
    9MOL    H86 2982   5.078   1.723   1.639 -1.7022 -1.2443  1.2704
    9MOL    H87 2983   5.005   1.905   1.869 -0.7715  2.2566 -0.4314
    9MOL    H88 2984   4.931   1.915   1.722 -0.3329 -0.5866  1.1711
    9MOL    H89 2985   5.237   1.989   1.727  0.4626  1.0227  0.0720
    9MOL    H90 2986   5.127   2.006   1.599 -2.7376  0.1256  0.0289
    9MOL    H91 2987   5.094   2.100   1.741 -0.6610 -0.3033  2.9553
    9MOL    C92 2988   4.813   1.617   1.620 -0.7999  0.4055 -0.4285
    9MOL    C93 2989   4.677   1.584   1.554 -0.5070 -0.7978  0.1076
    9MOL    C94 2990   4.662   1.628   1.403 -0.5179  0.2454 -0.1528
    9MOL    C95 2991   4.694   1.774   1.369 -0.1565  0.3986 -0.0393
    9MOL    C96 2992   4.596   1.826   1.255  0.7277  0.0249  0.0909
    9MOL    C97 2993   4.663   1.956   1.207 -0.2891 -0.6648 -0.7440
    9MOL    H98 2994   4.854   1.704   1.568  2.1316 -1.0058 -0.5497
    9MOL    H99 2995   4.886   1.542   1.591  0.8054  1.5614  0.5366
    9MOL   H100 2996   4.611   1.642   1.618  0.1226  1.0045 -0.8645
    9MOL   H101 2997   4.561   1.606   1.367 -0.4889 -0.6361  0.2973
    9MOL   H102 2998   4.731   1.566   1.345  0.0373  0.6794  0.0389
    9MOL   H103 2999   4.675   1.841   1.453  1.2231  0.8285 -0.0536
    9MOL   H104 3000   4.800   1.772   1.343  0.0445 -0.3030  0.8403
    9MOL   H105 3001   4.588   1.763   1.166 -1.4385 -1.0396  1.0020
    9MOL   H106 3002   4.497   1.845   1.297  0.9051  2.7208 -0.6387
    9MOL   H107 3003   4.589   2.010   1.149 -0.1120 -1.1588 -1.4271
    9MOL   H108 3004   4.697   2.026   1.285  0.0598 -0.5026 -1.0395
    9MOL   H109 3005   4.740   1.942   1.131 -2.6963  0.6059 -3.5070
    9MOL   C110 3006   4.635   1.434   1.564  0.4512  0.4906  0.6819
    9MOL   C111 3007   4.475   1.411   1.554 -0.3670 -0.5397 -0.4298
    9MOL   C112 3008   4.415   1.433   1.695 -0.3730 -0.8309 -0.4240
    9MOL   C113 3009   4.265   1.433   1.708  0.5149 -0.4649  0.3044
    9MOL   C114 3010   4.223   1.514   1.835  0.5100 -0.3357  0.2929
    9MOL   C115 3011   4.070   1.526   1.858  0.1387 -0.0808 -0.3902
    9MOL   H116 3012   4.695   1.378   1.491  0.6021  0.4381  0.8461
    9MOL   H117 3013   4.661   1.392   1.661 -1.6323 -0.9394  0.6343
    9MOL   H118 3014   4.432   1.476   1.479 -0.7349  0.8224  0.9417
    9MOL   H119 3015   4.455   1.526   1.736 -2.1532  0.3682 -1.3243
    9MOL   H120 3016   4.463   1.364   1.765  3.1198  1.7170 -0.1487
    9MOL   H121 3017   4.235   1.329   1.704 -0.6715 -0.0573 -2.0034
    9MOL   H122 3018   4.215   1.472   1.620 -1.0621  1.1896  1.8762
    9MOL   H123 3019   4.267   1.614   1.833  1.3866 -0.7558 -2.4684
    9MOL   H124 3020   4.261   1.473   1.928 -0.7279 -0.4677  0.7608
    9MOL   H125 3021   4.022   1.585   1.780  1.8521  1.6571 -0.1738
    9MOL   H126 3022   4.024   1.427   1.856 -0.2039  0.0829 -0.6883
    9MOL   H127 3023   4.042   1.577   1.950 -0.8218 -0.4491 -0.4747
    9MOL   C128 3024   4.448   1.266   1.502 -0.1670 -0.1829 -0.1278
    9MOL   C129 3025   4.485   1.250   1.353 -0.2571 -0.2987  0.2312
    9MOL   C130 3026   4.361   1.214   1.265  0.1456 -0.2612  0.1230
    9MOL   C131 3027   4.275   1.344   1.236  0.7103  0.5384  0.2502
    9MOL   C132 3028   4.165   1.312   1.121 -0.0146 -0.4815 -0.1870
    9MOL   C133 3029   4.084   1.439   1.081 -0.2214 -0.2197  0.0744
    9MOL   H134 3030   4.340   1.249   1.507 -0.5530  1.4369 -2.1368
    9MOL   H135 3031   4.483   1.182   1.561  0.2076 -0.1471 -0.2982
    9MOL   H136 3032   4.517   1.345   1.311  1.0110 -0.0214  1.7862
    9MOL   H137 3033   4.398   1.169   1.173  0.6168 -1.7564  1.0331
    9MOL   H138 3034   4.307   1.146   1.331 -0.4422 -0.5368 -0.6352
    9MOL   H139 3035   4.339   1.429   1.214  1.3934 -0.4877 -1.9391
    9MOL   H140 3036   4.225   1.364   1.331 -2.3821  0.7232 -1.3451
    9MOL   H141 3037   4.219   1.271   1.035  0.0201 -0.1757 -0.3111
    9MOL   H142 3038   4.102   1.234   1.163  0.2480  0.4436  1.9800
    9MOL   H143 3039   4.156   1.520   1.073 -0.0302 -0.5670 -1.7800
    9MOL   H144 3040   4.020   1.473   1.163  2.1164  0.9225  1.4606
    9MOL   H145 3041   4.034   1.430   0.985 -0.1489  3.2332 -0.3262
    9MOL   C146 3042   4.597   1.141   1.342  0.9928 -0.2937 -0.2937
    9MOL   C147 3043   4.689   1.138   1.216  0.8324 -0.0059 -0.8638
    9MOL   C148 3044   4.767   1.001   1.217 -0.2810 -0.0046 -0.2640
    9MOL   C149 3045   4.679   0.882   1.173 -0.4488  0.4205 -0.2943
    9MOL   C150 3046   4.765   0.757   1.158  0.1265  0.6609 -0.2257
    9MOL   C151 3047   4.693   0.656   1.071  0.4018  0.1683  0.6100
    9MOL   H152 3048   4.669   1.140   1.423 -1.8987 -0.0080  2.3887
    9MOL   H153 3049   4.547   1.044   1.344  2.0763 -0.8219  2.7964
    9MOL   H154 3050   4.620   1.128   1.132  0.0772  0.6891 -0.3317
    9MOL   H155 3051   4.803   0.978   1.318 -0.3368 -2.2816 -0.7499
    9MOL   H156 3052   4.854   1.011   1.152  0.1563 -1.2621  0.1139
    9MOL   H157 3053   4.599   0.865   1.244 -0.3154 -1.1996 -0.5120
    9MOL   H158 3054   4.636   0.903   1.075  1.2691  2.0920 -0.7325
    9MOL   H159 3055   4.760   0.714   1.258 -0.8285 -0.1229 -0.6112
    9MOL   H160 3056   4.871   0.767   1.131  0.0999  1.4684 -0.0518
    9MOL   H161 3057   4.688   0.687   0.966 -1.3392  0.1416  0.6697
    9MOL   H162 3058   4.739   0.557   1.065  1.2309  0.6699 -1.7865
    9MOL   H163 3059   4.587   0.652   1.097  0.0572  0.4923 -0.7083
    9MOL   C164 3060   4.777   1.265   1.200 -0.1385 -1.0758 -0.3237
    9MOL   C165 3061   4.829   1.304   1.053  0.3383 -0.5188 -0.1681
    9MOL   C166 3062   4.710   1.329   0.948 -0.4692  0.3204 -0.1321
    9MOL   C167 3063   4.623   1.452   0.983  0.0179  0.2185  0.0546
    9MOL   C168 3064   4.505   1.459   0.887 -0.9323 -0.1025 -0.6958
    9MOL   C169 3065   4.529   1.457   0.734  0.1031  0.3947  0.5630
    9MOL   H170 3066   4.735   1.352   1.250  0.2660 -0.5270 -0.9417
    9MOL   H171 3067   4.864   1.243   1.262  0.8199  1.1740 -0.8204
    9MOL   H172 3068   4.894   1.226   1.015 -0.8260 -0.5481 -2.1673
    9MOL   H173 3069   4.646   1.242   0.961  0.7467 -0.3982  1.2371
    9MOL   H174 3070   4.747   1.333   0.845 -2.3196  1.6435 -0.7613
    9MOL   H175 3071   4.684   1.541   0.968 -0.8202  0.8842  0.5530
    9MOL   H176 3072   4.581   1.440   1.083 -2.0953  2.8960 -0.4593
    9MOL   H177 3073   4.452   1.553   0.904  0.3692  0.2532  1.4858
    9MOL   H178 3074   4.442   1.374   0.915 -0.3529  1.0626  4.4779
    9MOL   H179 3075   4.430   1.457   0.689  1.3059  0.2696 -2.1862
    9MOL   H180 3076   4.579   1.361   0.719  1.5924  1.5566 -2.4613
    9MOL   H181 3077   4.584   1.545   0.701 -0.7794  0.4555 -0.8011
    9MOL   C182 3078   4.920   1.433   1.062 -0.0232 -0.6983  0.3124
    9MOL   C183 3079   4.996   1.492   0.935  0.2145 -0.1144  0.3521
    9MOL   C184 3080   5.051   1.382   0.842  0.1037 -0.4798  0.2121
    9MOL   C185 3081   5.186   1.320   0.896  0.2069 -0.4116 -0.6400
    9MOL   C186 3082   5.253   1.228   0.791  0.1330 -1.6105  0.4115
    9MOL   C187 3083   5.340   1.113   0.840 -0.5654 -0.7836  0.2659
    9MOL   H188 3084   4.868   1.508   1.122 -0.2428 -0.0130 -0.7114
    9MOL   H189 3085   5.008   1.396   1.114  0.7045  0.5043 -0.0403
    9MOL   H190 3086   4.913   1.541   0.885  1.2000  1.8993  0.6074
    9MOL   H191 3087   4.971   1.309   0.827 -0.3246  0.0148  0.0483
    9MOL   H192 3088   5.057   1.419   0.739  0.5313 -1.7216 -0.2203
    9MOL   H193 3089   5.156   1.266   0.986  0.2540  1.5240  0.5707
    9MOL   H194 3090   5.251   1.392   0.945  0.7901 -0.1401 -1.7824
    9MOL   H195 3091   5.324   1.281   0.727 -2.2773  0.7371 -0.4073
    9MOL   H196 3092   5.168   1.182   0.739  0.1741 -0.0200 -1.1005
    9MOL   H197 3093   5.418   1.153   0.905 -1.9901  1.5792  0.5598
    9MOL   H198 3094   5.387   1.062   0.756 -1.2242 -1.4857  0.3096
    9MOL   H199 3095   5.284   1.043   0.903 -2.4307  0.2323 -0.2128
    9MOL   C200 3096   5.097   1.603   0.969 -0.6117  0.0406  0.2373
    9MOL   C201 3097   5.180   1.663   0.852  0.1028 -0.1443 -0.0911
    9MOL   C202 3098   5.083   1.727   0.749 -0.4051  0.6150  1.2181
    9MOL   C203 3099   5.144   1.758   0.618 -0.5091 -0.4608  0.1362
    9MOL   C204 3100   5.197   1.630   0.542 -0.2094  0.9652 -0.1739
    9MOL   C205 3101   5.196   1.644   0.385  1.0191  0.1728  0.1772
    9MOL   H206 3102   5.163   1.562   1.046 -1.1263 -2.0425 -0.3966
    9MOL   H207 3103   5.039   1.676   1.025  0.7865  0.1223  1.6343
    9MOL   H208 3104   5.235   1.579   0.809  0.3344 -0.6439  1.1582
    9MOL   H209 3105   5.028   1.815   0.783 -1.3775  0.2395  0.6178
    9MOL   H210 3106   5.000   1.662   0.722 -1.5453  3.3125 -2.1033
    9MOL   H211 3107   5.228   1.829   0.624 -0.0137 -0.9604 -0.8022
    9MOL   H212 3108   5.058   1.806   0.571  0.8202 -0.0792 -1.9958
    9MOL   H213 3109   5.131   1.543   0.553 -0.6455  1.3434  0.1974
    9MOL   H214 3110   5.300   1.607   0.570 -0.7461 -0.6832  0.4830
    9MOL   H215 3111   5.113   1.706   0.351  0.2030 -1.2139 -0.4029
    9MOL   H216 3112   5.284   1.694   0.345 -0.0682  2.2767  0.3562
    9MOL   H217 3113   5.206   1.547   0.336  0.9182 -0.6558  1.7370
    9MOL   C218 3114   5.284   1.768   0.899 -0.1566  0.3851  0.3919
    9MOL   C219 3115   5.433   1.734   0.894  0.4730  0.8672  0.4334
    9MOL   C220 3116   5.468   1.620   0.992 -0.0827 -0.2363  0.3565
    9MOL   C221 3117   5.611   1.561   0.979  0.6498  0.3297  0.3216
    9MOL   C222 3118   5.630   1.441   1.076  0.3085  0.1415 -1.0877
    9MOL   C223 3119   5.773   1.432   1.119  1.1085 -0.0475  0.2242
    9MOL   H224 3120   5.274   1.865   0.849 -2.3837 -0.3587 -0.6751
    9MOL   H225 3121   5.274   1.794   1.004 -1.3192  0.4595  0.2668
    9MOL   H226 3122   5.457   1.693   0.796 -0.2371  0.9478  0.2199
    9MOL   H227 3123   5.398   1.538   0.979 -0.0276 -0.0231 -1.4611
    9MOL   H228 3124   5.451   1.667   1.089 -2.9162 -1.5600  0.5447
    9MOL   H229 3125   5.686   1.635   1.007  1.1423 -0.0821  0.0840
    9MOL   H230 3126   5.635   1.524   0.880  2.0644  1.0940  0.3773
    9MOL   H231 3127   5.572   1.443   1.168 -0.2953 -0.4520 -1.4465
    9MOL   H232 3128   5.595   1.360   1.011 -5.2227  1.2917  0.2118
    9MOL   H233 3129   5.842   1.401   1.041  3.6179  1.5306  1.7449
    9MOL   H234 3130   5.779   1.357   1.197 -1.1378  1.3050  1.7862
    9MOL   H235 3131   5.803   1.532   1.152  1.5054 -0.1902  0.2906
    9MOL   C236 3132   5.531   1.861   0.894  0.0795  0.0845 -0.2933
    9MOL   C237 3133   5.530   1.936   0.751 -0.5264 -1.3617  0.1688
    9MOL   C238 3134   5.608   1.861   0.645  0.1865  0.0674  0.1401
    9MOL   C239 3135   5.557   1.858   0.500  0.0999 -0.4682 -0.0272
    9MOL   C240 3136   5.653   1.803   0.394  0.3865 -0.1730  0.0413
    9MOL   C241 3137   5.590   1.806   0.251 -0.1079 -0.4207 -0.2460
    9MOL   H242 3138   5.495   1.917   0.981 -2.2840  1.8804 -2.3529
    9MOL   H243 3139   5.632   1.834   0.926 -0.5521 -0.6394  1.1058
    9MOL   H244 3140   5.428   1.937   0.711 -1.0085 -1.4089  1.3689
    9MOL   H245 3141   5.713   1.891   0.651  0.2662  0.0120 -0.8559
    9MOL   H246 3142   5.620   1.756   0.671 -1.1106 -0.5489 -1.6287
    9MOL   H247 3143   5.531   1.961   0.476  0.5171  0.2349  2.3281
    9MOL   H248 3144   5.464   1.801   0.490  0.0305 -0.7740  2.0493
    9MOL   H249 3145   5.741   1.867   0.402 -0.8002  1.1654  3.0192
    9MOL   H250 3146   5.681   1.698   0.399 -4.3157 -1.4999  0.8500
    9MOL   H251 3147   5.651   1.740   0.190  0.4471  0.2774 -0.4619
    9MOL   H252 3148   5.489   1.768   0.237 -0.0532 -1.1364  1.2933
    9MOL   H253 3149   5.586   1.906   0.206 -1.0002 -0.9002 -1.2722
    9MOL   C254 3150   5.576   2.076   0.767 -0.6345 -0.2923 -0.9408
    9MOL   C255 3151   5.484   2.176   0.844 -0.1438  0.5783  0.0088
    9MOL   C256 3152   5.364   2.231   0.763  0.1071 -1.0301  0.1479
    9MOL   C257 3153   5.246   2.267   0.860  0.6575  0.9158  0.3894
    9MOL   C258 3154   5.129   2.320   0.780  0.0660  0.1198 -0.3615
    9MOL   C259 3155   5.026   2.394   0.870  0.0619 -0.5742  0.1707
    9MOL   H260 3156   5.606   2.132   0.679  0.0831  1.3914  0.3339
    9MOL   H261 3157   5.674   2.062   0.814 -0.6989 -0.9903 -1.0149
    9MOL   H262 3158   5.443   2.120   0.928 -0.3686  0.7352  0.0028
    9MOL   H263 3159   5.388   2.317   0.701 -2.2912  0.5318  1.3233
    9MOL   H264 3160   5.333   2.150   0.697  0.0895 -0.2149 -0.8460
    9MOL   H265 3161   5.213   2.175   0.907  2.4821 -0.3719 -0.7794
    9MOL   H266 3162   5.281   2.338   0.934 -0.7603  1.1763  0.8182
    9MOL   H267 3163   5.078   2.241   0.725 -0.8159  0.8720 -0.6364
    9MOL   H268 3164   5.166   2.382   0.699  0.5964 -2.6785 -2.3367
    9MOL   H269 3165   5.080   2.469   0.927  0.9639 -1.2425  0.2174
    9MOL   H270 3166   4.980   2.321   0.937 -0.9907 -0.9826 -0.9935
    9MOL   H271 3167   4.944   2.432   0.811  1.5192 -0.0775 -1.5713
    9MOL   C272 3168   5.563   2.298   0.900 -0.5849  0.1184 -0.2008
    9MOL   C273 3169   5.654   2.261   1.019 -0.3441 -0.0474  0.7475
    9MOL   C274 3170   5.574   2.228   1.142  0.7588 -0.4326  0.7828
    9MOL   C275 3171   5.668   2.158   1.247 -0.2841 -0.5364  0.1506
    9MOL   C276 3172   5.592   2.121   1.372 -0.3792 -1.0902 -0.1764
    9MOL   C277 3173   5.479   2.019   1.349 -0.3735 -0.3188 -0.3449
    9MOL   H278 3174   5.614   2.343   0.814 -1.5389  2.4340  0.4000
    9MOL   H279 3175   5.499   2.383   0.924 -0.4159  0.1474  0.1438
    9MOL   H280 3176   5.707   2.170   0.992 -0.1924  0.6739 -1.4990
    9MOL   H281 3177   5.484   2.170   1.122 -1.4110  2.6597  1.2241
    9MOL   H282 3178   5.517   2.313   1.181 -1.7492 -0.8710 -1.8010
    9MOL   H283 3179   5.752   2.219   1.280  0.1962 -0.9736 -0.2413
    9MOL   H284 3180   5.701   2.064   1.202 -1.5377 -0.3485 -1.2278
    9MOL   H285 3181   5.664   2.067   1.433 -0.2811  1.3218  1.9133
    9MOL   H286 3182   5.548   2.209   1.420 -1.0989 -1.8639  0.5969
    9MOL   H287 3183   5.439   1.992   1.446 -2.0724  3.7315  0.2222
    9MOL   H288 3184   5.394   2.064   1.296 -1.1173 -2.8226 -1.3445
    9MOL   H289 3185   5.512   1.936   1.288 -1.7113 -1.2540  0.1767
    9MOL   C290 3186   5.759   2.369   1.038 -0.5268 -0.5950  0.9710
    9MOL   C291 3187   5.847   2.401   0.910 -0.0200  0.5803 -0.3076
    9MOL   C292 3188   5.945   2.518   0.940  0.2436  0.1978  0.6881
    9MOL   C293 3189   5.873   2.659   0.947 -0.5896 -0.2375 -0.4405
    9MOL   C294 3190   5.979   2.774   0.965 -0.2069 -0.9648 -0.1246
    9MOL   C295 3191   5.911   2.914   0.969 -0.9983  0.9291 -0.0914
    9MOL   H296 3192   5.829   2.346   1.119  1.8489 -2.5598 -1.5523
    9MOL   H297 3193   5.702   2.457   1.068  0.3567 -0.1889  1.4750
    9MOL   H298 3194   5.790   2.431   0.823 -1.0648 -1.9083 -0.5384
    9MOL   H299 3195   6.021   2.516   0.862 -1.5752 -1.8228 -1.1072
    9MOL   H300 3196   5.991   2.490   1.034  0.1318 -1.2516  0.3174
    9MOL   H301 3197   5.831   2.678   0.848  2.5608  0.0097 -1.7846
    9MOL   H302 3198   5.795   2.675   1.022  3.5442  2.9300  3.4700
    9MOL   H303 3199   6.043   2.757   0.879  0.2764 -0.2644  0.0917
    9MOL   H304 3200   6.032   2.760   1.059  0.3280  0.4021 -0.2190
    9MOL   H305 3201   5.989   2.989   0.977  0.9277 -0.9468 -0.9858
    9MOL   H306 3202   5.845   2.927   1.055  1.6368  0.5758  2.0273
    9MOL   H307 3203   5.859   2.949   0.879 -0.5473  1.7271 -0.0455
    9MOL   C308 3204   5.929   2.283   0.857  0.0580 -0.2018 -0.2289
    9MOL   C309 3205   5.981   2.280   0.713  0.0005 -0.6043 -0.4367
    9MOL   C310 3206   5.863   2.262   0.616 -0.5507  0.9013  0.3341
    9MOL   C311 3207   5.902   2.249   0.466  0.5439  0.0857 -0.3468
    9MOL   C312 3208   5.783   2.187   0.381 -0.6599 -0.0346  0.0204
    9MOL   C313 3209   5.820   2.201   0.229 -0.4958  1.2606  0.4765
    9MOL   H314 3210   6.012   2.272   0.926  0.5010  1.2236 -0.5135
    9MOL   H315 3211   5.866   2.194   0.868  0.9779 -0.8612 -0.2451
    9MOL   H316 3212   6.026   2.374   0.679  0.0786 -0.1354  0.9222
    9MOL   H317 3213   5.790   2.342   0.630 -1.0761  0.8235 -1.7857
    9MOL   H318 3214   5.828   2.163   0.646  2.4422 -0.6136 -0.9906
    9MOL   H319 3215   5.990   2.189   0.444  1.0737  1.4156 -1.9869
    9MOL   H320 3216   5.926   2.348   0.428  1.2835 -0.6970 -1.9751
    9MOL   H321 3217   5.764   2.081   0.400 -0.1636  0.1888  1.8221
    9MOL   H322 3218   5.685   2.219   0.417 -0.1844 -0.1427  1.4519
    9MOL   H323 3219   5.724   2.188   0.179  0.0872 -0.0601 -0.2969
    9MOL   H324 3220   5.877   2.111   0.206 -0.6469  1.2201  0.2566
    9MOL   H325 3221   5.880   2.289   0.205 -0.0653  0.7659 -0.2591
    9MOL   C326 3222   6.096   2.177   0.698  0.0794  0.0105  0.6263
    9MOL   C327 3223   6.217   2.174   0.794  0.4117  0.0709  0.2618
    9MOL   C328 3224   6.320   2.083   0.729  0.0065  0.0927  0.9690
    9MOL   C329 3225   6.300   1.932   0.702 -0.3012 -0.1017  0.4862
    9MOL   C330 3226   6.321   1.848   0.829  0.2247 -0.1028  0.0638
    9MOL   C331 3227   6.367   1.709   0.810 -0.4785  0.6191  0.5216
    9MOL   H332 3228   6.130   2.207   0.599  0.6348  1.1056  1.1341
    9MOL   H333 3229   6.061   2.074   0.701 -0.1717  0.0662 -0.4417
    9MOL   H334 3230   6.193   2.127   0.890 -3.2830 -2.0129 -1.5874
    9MOL   H335 3231   6.316   2.118   0.626  0.2156 -1.6139  0.3664
    9MOL   H336 3232   6.421   2.094   0.767 -0.2383 -1.1592  2.0245
    9MOL   H337 3233   6.376   1.903   0.628 -0.4644  0.9217 -0.0945
    9MOL   H338 3234   6.204   1.908   0.657  1.2934 -0.6212 -2.8182
    9MOL   H339 3235   6.381   1.897   0.905 -0.9319  1.2639  0.1186
    9MOL   H340 3236   6.225   1.837   0.880 -1.3673 -2.0687 -3.1847
    9MOL   H341 3237   6.372   1.651   0.902  1.6476  1.3469  0.8915
    9MOL   H342 3238   6.471   1.702   0.776 -1.0344 -0.0364 -1.1014
    9MOL   H343 3239   6.300   1.652   0.746  3.1860 -1.2911 -1.8018
    9MOL   C344 3240   6.281   2.312   0.821  0.8496 -0.0913 -0.2235
    9MOL   C345 3241   6.385   2.311   0.932 -0.4838 -0.4025 -0.1382
    9MOL   C346 3242   6.451   2.453   0.967  0.0178  0.6165 -0.7646
    9MOL   C347 3243   6.559   2.478   0.861 -0.6804 -0.4545  1.0191
    9MOL   C348 3244   6.620   2.617   0.871  0.4955 -1.1305 -0.4635
    9MOL   C349 3245   6.701   2.623   0.998 -0.2982 -0.5200  0.5038
    9MOL   H350 3246   6.323   2.358   0.732 -1.8746  1.6590 -0.6669
    9MOL   H351 3247   6.196   2.379   0.836  0.5101 -0.5029 -0.3077
    9MOL   H352 3248   6.468   2.243   0.911 -0.8902 -0.6735 -0.8880
    9MOL   H353 3249   6.376   2.531   0.972  0.5314  1.0920 -0.4712
    9MOL   H354 3250   6.492   2.446   1.068  0.2527  0.6042 -0.8602
    9MOL   H355 3251   6.645   2.411   0.859 -1.3563 -1.3091  0.0763
    9MOL   H356 3252   6.505   2.471   0.767 -1.1495  0.6321  1.1989
    9MOL   H357 3253   6.684   2.639   0.785 -1.2981 -2.0151 -2.0349
    9MOL   H358 3254   6.543   2.695   0.873  0.7690 -0.8673 -0.0117
    9MOL   H359 3255   6.774   2.542   1.001  0.8107  0.4384 -0.1445
    9MOL   H360 3256   6.739   2.724   1.009 -0.9593 -0.2919  0.7147
    9MOL   H361 3257   6.634   2.604   1.082 -0.6240 -2.2464 -0.1213
    9MOL   H362 3258   6.345   2.263   1.020 -2.2744 -3.2976 -2.4527
   10MOL     C1 3259   4.532   4.027   1.839  0.7442 -0.1781 -0.3263
   10MOL     C2 3260   4.461   3.983   1.705  0.1853 -0.0099  0.1221
   10MOL     C3 3261   4.497   4.074   1.592  0.2762 -0.2920  0.0074
   10MOL     C4 3262   4.458   4.021   1.451  0.1475 -0.1230  1.2199
   10MOL     C5 3263   4.531   4.090   1.336  0.3309  0.2459  0.1529
   10MOL     C6 3264   4.461   4.215   1.290  0.7234 -0.2824 -0.4841
   10MOL     H7 3265   4.485   4.119   1.877  1.3751  0.3577 -0.8311
   10MOL     H8 3266   4.513   3.954   1.918 -1.2268  1.1041  0.4384
   10MOL     H9 3267   4.482   3.879   1.680 -2.8643 -0.3073 -1.4302
   10MOL    H10 3268   4.605   4.061   1.587  0.2571 -0.1136 -0.8858
   10MOL    H11 3269   4.464   4.177   1.602 -0.4286 -0.4587 -0.5341
   10MOL    H12 3270   4.350   4.021   1.435  0.5759  0.0509 -1.8503
   10MOL    H13 3271   4.487   3.916   1.457  1.3590  0.0905 -0.7542
   10MOL    H14 3272   4.637   4.105   1.358  0.2788  1.2087 -0.2453
   10MOL    H15 3273   4.519   4.022   1.252  0.1485  1.1834 -0.5891
   10MOL    H16 3274   4.356   4.188   1.278  1.0945 -2.1419  0.3710
   10MOL    H17 3275   4.503   4.269   1.206  0.1119  0.9850  0.0052
   10MOL    H18 3276   4.464   4.288   1.371 -3.3127  1.5907 -1.8509
   10MOL    H19 3277   4.639   4.045   1.824  1.3210 -2.5545  0.7884
   10MOL    C20 3278   4.304   3.989   1.728 -0.1815  0.1473  0.2326
   10MOL    C21 3279   4.249   3.882   1.815  0.8690  0.8690  0.6922
   10MOL    C22 3280   4.109   3.938   1.866  0.8764 -0.4988  0.2894
   10MOL    C23 3281   3.996   3.950   1.761  0.1617  0.2248 -0.2821
   10MOL    C24 3282   3.884   4.045   1.791 -0.1633 -0.3301  0.3593
   10MOL    C25 3283   3.774   4.042   1.686  0.2031  0.2556  0.4225
   10MOL    H26 3284   4.252   3.996   1.632 -2.0082 -0.3456  1.1523
   10MOL    H27 3285   4.278   4.076   1.788 -0.8668 -2.1061  3.3856
   10MOL    H28 3286   4.318   3.882   1.900  0.1405  0.4672  1.2901
   10MOL    H29 3287   4.120   4.038   1.909  1.4668  0.0275 -1.0420
   10MOL    H30 3288   4.064   3.874   1.941 -0.9500  0.2099 -0.1579
   10MOL    H31 3289   3.948   3.854   1.743 -1.4402  0.3957  2.8421
   10MOL    H32 3290   4.029   3.981   1.661  2.5041 -1.4468 -0.0569
   10MOL    H33 3291   3.848   4.024   1.892 -1.0650 -2.0911 -0.3050
   10MOL    H34 3292   3.925   4.145   1.800 -1.3007 -0.0005  2.3846
   10MOL    H35 3293   3.809   4.070   1.587 -1.9892 -1.9895 -1.0541
   10MOL    H36 3294   3.730   3.944   1.670  1.0061 -0.0184 -0.1448
   10MOL    H37 3295   3.693   4.109   1.715  2.2228  1.7520  2.7184
   10MOL    C38 3296   4.243   3.734   1.766  0.3372 -0.4944 -0.7280
   10MOL    C39 3297   4.362   3.644   1.801  0.7747 -0.0470  0.2977
   10MOL    C40 3298   4.331   3.584   1.938 -0.0338  0.3981  0.4025
   10MOL    C41 3299   4.334   3.678   2.063 -0.4342 -0.7244 -0.4966
   10MOL    C42 3300   4.339   3.626   2.210  0.6256 -0.4921 -0.4858
   10MOL    C43 3301   4.420   3.499   2.236 -0.1323  0.5035  0.4192
   10MOL    H44 3302   4.218   3.731   1.660 -1.0277  0.8628 -0.4602
   10MOL    H45 3303   4.161   3.686   1.819  0.1943 -0.6762 -1.1090
   10MOL    H46 3304   4.455   3.698   1.814  2.0645 -2.4524  1.3280
   10MOL    H47 3305   4.237   3.530   1.944 -0.2362  0.6269 -0.6862
   10MOL    H48 3306   4.413   3.513   1.955 -0.3393  0.2396  1.2572
   10MOL    H49 3307   4.426   3.733   2.045 -1.5618  0.9057 -1.3787
   10MOL    H50 3308   4.251   3.746   2.041  0.6012  0.3325 -1.1991
   10MOL    H51 3309   4.380   3.697   2.281  2.8427 -0.6876 -1.5261
   10MOL    H52 3310   4.240   3.598   2.245  1.2451 -0.9144  0.9382
   10MOL    H53 3311   4.441   3.491   2.343 -0.5732 -0.2782  0.4521
   10MOL    H54 3312   4.519   3.504   2.190 -0.1368 -2.4018 -0.0250
   10MOL    H55 3313   4.382   3.400   2.208  2.9657 -0.6088 -0.1608
   10MOL    C56 3314   4.377   3.534   1.700  0.0217 -1.2217  0.7965
   10MOL    C57 3315   4.451   3.559   1.569  0.6875 -0.2362  0.5058
   10MOL    C58 3316   4.393   3.476   1.450  0.4414 -0.0158  0.0174
   10MOL    C59 3317   4.257   3.535   1.407 -0.2610 -0.1579  0.1596
   10MOL    C60 3318   4.264   3.659   1.322 -0.2796 -0.7527 -0.7785
   10MOL    C61 3319   4.118   3.706   1.304  0.1355 -0.0663  0.1693
   10MOL    H62 3320   4.410   3.442   1.748  1.3214 -1.0983  0.1756
   10MOL    H63 3321   4.273   3.504   1.685 -0.8819  2.4192 -0.8442
   10MOL    H64 3322   4.429   3.663   1.544  2.2620  0.2193  0.9593
   10MOL    H65 3323   4.453   3.472   1.360  0.7343 -0.7616  0.2415
   10MOL    H66 3324   4.386   3.373   1.485  0.2912 -0.1700 -0.4716
   10MOL    H67 3325   4.192   3.553   1.493 -1.0731 -2.0140 -0.0430
   10MOL    H68 3326   4.205   3.454   1.356 -1.4105  0.7050 -0.0608
   10MOL    H69 3327   4.319   3.742   1.366 -0.0616  0.0611 -2.5547
   10MOL    H70 3328   4.316   3.641   1.227  0.8523 -3.2527  0.2539
   10MOL    H71 3329   4.061   3.632   1.248 -3.0068  1.6039  1.0290
   10MOL    H72 3330   4.067   3.724   1.399  2.0449  0.2377  1.1695
   10MOL    H73 3331   4.113   3.804   1.257 -0.5309 -0.8513 -1.4246
   10MOL    C74 3332   4.597   3.535   1.593  0.0563 -0.9069 -0.0259
   10MOL    C75 3333   4.699   3.545   1.479 -0.0106 -0.2167  0.3777
   10MOL    C76 3334   4.724   3.692   1.443  0.2521 -0.1695 -0.0460
   10MOL    C77 3335   4.655   3.740   1.312  0.0208 -0.0731  0.3897
   10MOL    C78 3336   4.732   3.713   1.185 -0.1473  0.7469  0.2805
   10MOL    C79 3337   4.656   3.767   1.067  0.0915  0.0597 -0.1317
   10MOL    H80 3338   4.626   3.601   1.675  0.6032 -1.0981 -0.0678
   10MOL    H81 3339   4.620   3.439   1.640  0.2432 -0.6545  0.4002
   10MOL    H82 3340   4.661   3.494   1.390 -0.2059 -0.1455  0.4216
   10MOL    H83 3341   4.682   3.759   1.518  0.3721  0.5839 -0.6390
   10MOL    H84 3342   4.830   3.715   1.435  0.2607 -0.6761 -1.4727
   10MOL    H85 3343   4.554   3.703   1.293  0.1400  0.4094 -1.2746
   10MOL    H86 3344   4.627   3.846   1.310  1.0685  0.1948 -0.1358
   10MOL    H87 3345   4.732   3.604   1.177 -0.0015  0.5897  2.3026
   10MOL    H88 3346   4.837   3.744   1.181  0.8788 -2.6405 -0.8405
   10MOL    H89 3347   4.689   3.716   0.976 -0.7904 -0.6130 -0.0810
   10MOL    H90 3348   4.550   3.745   1.066 -0.0965  0.9388 -1.1017
   10MOL    H91 3349   4.675   3.874   1.056 -1.7514  0.2861 -1.3258
   10MOL    C92 3350   4.830   3.467   1.512  0.6079  0.0774  1.0435
   10MOL    C93 3351   4.819   3.318   1.498 -0.4442 -0.1971 -0.6136
   10MOL    C94 3352   4.769   3.255   1.365 -0.9292  0.2582 -0.6791
   10MOL    C95 3353   4.845   3.318   1.244  0.3407 -0.3590 -0.2534
   10MOL    C96 3354   4.784   3.284   1.108  0.1187 -0.0007  0.1351
   10MOL    C97 3355   4.870   3.353   0.996  0.3528  0.1883  0.2998
   10MOL    H98 3356   4.913   3.509   1.454  0.4302 -0.9840  0.0263
   10MOL    H99 3357   4.855   3.503   1.613  0.8652 -0.8107  1.2979
   10MOL   H100 3358   4.746   3.301   1.576  0.1131  5.1217  1.2978
   10MOL   H101 3359   4.663   3.274   1.349 -1.8540 -3.1035  0.9895
   10MOL   H102 3360   4.780   3.146   1.359 -0.7884  0.0335  2.8423
   10MOL   H103 3361   4.859   3.426   1.249 -0.4247 -0.2686  0.0127
   10MOL   H104 3362   4.947   3.282   1.238 -0.3020 -2.0662 -1.5318
   10MOL   H105 3363   4.779   3.175   1.102 -0.7009  0.0843 -0.8493
   10MOL   H106 3364   4.683   3.323   1.107  0.4368  0.9612  2.4763
   10MOL   H107 3365   4.973   3.318   0.994 -0.1712 -1.2654 -2.2212
   10MOL   H108 3366   4.828   3.336   0.898 -1.0989  2.8542  0.3933
   10MOL   H109 3367   4.877   3.459   1.024  0.6945  0.1468  0.3760
   10MOL   C110 3368   4.953   3.253   1.530 -0.4301  0.1538  0.3800
   10MOL   C111 3369   5.015   3.282   1.675 -0.0703 -0.4697 -0.4370
   10MOL   C112 3370   5.158   3.218   1.689 -0.1256  0.3802 -0.3437
   10MOL   C113 3371   5.270   3.285   1.609  0.2462 -0.1173 -1.0972
   10MOL   C114 3372   5.417   3.259   1.652  0.0958  0.0019 -0.1513
   10MOL   C115 3373   5.531   3.299   1.563  0.3959 -0.6693  0.2058
   10MOL   H116 3374   4.947   3.144   1.520  2.6917  0.1061 -2.1687
   10MOL   H117 3375   5.008   3.290   1.443  0.6792 -1.4002  0.3824
   10MOL   H118 3376   5.042   3.384   1.703  1.8853 -0.7705 -1.1280
   10MOL   H119 3377   5.154   3.118   1.647  0.5854  0.9928 -1.9125
   10MOL   H120 3378   5.185   3.218   1.794 -1.1412  2.1597 -0.0604
   10MOL   H121 3379   5.255   3.393   1.617  0.6417  0.0794 -2.9230
   10MOL   H122 3380   5.254   3.243   1.510 -2.8508 -0.9866 -0.2886
   10MOL   H123 3381   5.416   3.152   1.675 -0.6592  0.2319  0.9438
   10MOL   H124 3382   5.439   3.303   1.749  0.9050 -1.2318  0.2341
   10MOL   H125 3383   5.625   3.288   1.619 -0.2728 -3.7393  0.8249
   10MOL   H126 3384   5.541   3.251   1.466  0.6624  1.6763 -0.9530
   10MOL   H127 3385   5.518   3.404   1.538  1.9539 -0.2693  0.9993
   10MOL   C128 3386   4.924   3.236   1.798 -0.6062 -0.0394  0.2377
   10MOL   C129 3387   4.936   3.307   1.937  0.6500  0.1585  0.0254
   10MOL   C130 3388   4.874   3.225   2.052  0.3444  0.2279  0.0326
   10MOL   C131 3389   4.934   3.093   2.078 -0.1980  0.0457  0.0254
   10MOL   C132 3390   4.897   3.026   2.216  0.2554  0.7229 -0.2588
   10MOL   C133 3391   4.990   2.909   2.243  0.2066 -0.3780 -0.1517
   10MOL   H134 3392   4.953   3.133   1.821  0.3200  0.7875  2.9746
   10MOL   H135 3393   4.819   3.244   1.770 -0.5576 -2.4705 -0.8082
   10MOL   H136 3394   5.042   3.322   1.953  1.2656 -2.0724 -1.6070
   10MOL   H137 3395   4.874   3.270   2.151 -2.0391 -1.1224  0.6841
   10MOL   H138 3396   4.767   3.216   2.034  0.2064 -2.3128  1.8457
   10MOL   H139 3397   5.043   3.097   2.087 -0.4014  1.3604  2.2699
   10MOL   H140 3398   4.914   3.017   2.002  4.0117 -0.2751 -0.8856
   10MOL   H141 3399   4.918   3.091   2.300  0.5432  1.2818 -0.7639
   10MOL   H142 3400   4.795   2.988   2.214 -0.2599  2.0802  0.1325
   10MOL   H143 3401   4.948   2.850   2.325 -0.8337 -0.4295 -0.7185
   10MOL   H144 3402   5.088   2.945   2.275 -0.4538  0.1592  1.3053
   10MOL   H145 3403   4.993   2.846   2.154 -1.0218 -0.9660  0.2160
   10MOL   C146 3404   4.870   3.446   1.923  0.4925 -0.3157  0.0110
   10MOL   C147 3405   4.911   3.553   2.031  0.6183 -0.1088 -0.2256
   10MOL   C148 3406   4.790   3.645   2.053 -0.5418  0.5781  0.1893
   10MOL   C149 3407   4.809   3.754   2.165 -0.0727  0.8122  0.6832
   10MOL   C150 3408   4.696   3.849   2.166  0.0696  0.3649 -0.3659
   10MOL   C151 3409   4.717   3.943   2.279  0.9086 -0.3472 -0.6650
   10MOL   H152 3410   4.877   3.490   1.823  1.8238 -0.8748 -0.1604
   10MOL   H153 3411   4.763   3.432   1.940 -0.0137  1.6989 -1.2767
   10MOL   H154 3412   4.920   3.491   2.120 -0.0065  1.0429  0.6629
   10MOL   H155 3413   4.698   3.593   2.077  0.2188 -1.2155 -0.6802
   10MOL   H156 3414   4.781   3.695   1.956 -0.9404 -0.4241 -0.2913
   10MOL   H157 3415   4.819   3.706   2.262 -1.3029  1.5936  1.2133
   10MOL   H158 3416   4.899   3.811   2.143 -0.2799  1.5298  1.6734
   10MOL   H159 3417   4.605   3.794   2.191 -0.7515  1.2134 -1.4372
   10MOL   H160 3418   4.683   3.898   2.070  0.6458 -0.2422 -0.7602
   10MOL   H161 3419   4.629   4.007   2.287  0.4693 -1.1352  1.1705
   10MOL   H162 3420   4.730   3.900   2.379  1.0511  0.4657 -0.3255
   10MOL   H163 3421   4.813   3.991   2.256  0.9587 -0.5626 -0.9128
   10MOL   C164 3422   5.044   3.621   1.997 -0.3931  0.1132  0.3284
   10MOL   C165 3423   5.167   3.575   2.087  0.0468 -0.1894 -0.2834
   10MOL   C166 3424   5.294   3.577   2.003  0.1857  0.1639 -0.5761
   10MOL   C167 3425   5.356   3.715   1.962  1.0863  0.1799  0.0209
   10MOL   C168 3426   5.468   3.698   1.865 -0.2797  0.0801 -0.6082
   10MOL   C169 3427   5.428   3.662   1.714 -0.0055 -0.1623  0.3281
   10MOL   H170 3428   5.073   3.605   1.893  0.2563 -2.7947  0.9161
   10MOL   H171 3429   5.037   3.730   2.001 -0.7944  0.2084 -2.1259
   10MOL   H172 3430   5.145   3.474   2.121 -0.4986  0.2118  0.5544
   10MOL   H173 3431   5.281   3.509   1.919 -1.1872  2.5446 -2.3900
   10MOL   H174 3432   5.375   3.532   2.061  0.6081 -0.3150 -1.5270
   10MOL   H175 3433   5.403   3.753   2.053 -0.1581  3.9309 -0.7930
   10MOL   H176 3434   5.285   3.793   1.933  0.9029 -0.5954 -1.6173
   10MOL   H177 3435   5.538   3.630   1.914 -1.5406 -0.1731  0.8621
   10MOL   H178 3436   5.529   3.789   1.864  0.2426 -0.2685 -0.2634
   10MOL   H179 3437   5.512   3.655   1.644 -0.7106 -1.5153 -0.4093
   10MOL   H180 3438   5.356   3.735   1.675 -0.6266 -0.5551  0.7380
   10MOL   H181 3439   5.368   3.572   1.701 -1.0063  0.4756  0.4301
   10MOL   C182 3440   5.171   3.660   2.216 -0.5627 -0.1893 -0.5385
   10MOL   C183 3441   5.264   3.610   2.334 -0.2288 -0.2610 -0.2558
   10MOL   C184 3442   5.210   3.480   2.405  0.0039  0.3483 -0.2222
   10MOL   C185 3443   5.058   3.494   2.453 -0.0038  0.1263 -0.3910
   10MOL   C186 3444   5.016   3.364   2.519 -0.5706  0.8797 -0.1965
   10MOL   C187 3445   4.883   3.375   2.590 -0.4339 -0.0667 -0.7521
   10MOL   H188 3446   5.204   3.760   2.187  1.1487 -0.5311  0.1138
   10MOL   H189 3447   5.068   3.669   2.250  0.7267  0.4503  3.4566
   10MOL   H190 3448   5.364   3.590   2.297  0.4367  1.0343  0.8059
   10MOL   H191 3449   5.207   3.404   2.327 -2.1960  0.6640 -0.4914
   10MOL   H192 3450   5.272   3.452   2.490 -1.0808 -1.2344  0.0727
   10MOL   H193 3451   5.001   3.506   2.361 -2.4614 -1.1378  0.8925
   10MOL   H194 3452   5.053   3.583   2.516 -1.4044 -0.7687  0.7965
   10MOL   H195 3453   5.087   3.338   2.597  0.3668 -0.3471 -1.4359
   10MOL   H196 3454   5.009   3.280   2.450  4.2026  1.6357 -1.7416
   10MOL   H197 3455   4.797   3.399   2.527 -0.0435  0.6319 -1.0223
   10MOL   H198 3456   4.896   3.451   2.668 -1.3414  0.2645 -0.9169
   10MOL   H199 3457   4.871   3.274   2.629  0.3256 -0.3341 -1.1888
   10MOL   C200 3458   5.270   3.724   2.432  0.5540  0.3072 -0.2265
   10MOL   C201 3459   5.360   3.710   2.558 -0.0058 -0.1558  0.4899
   10MOL   C202 3460   5.504   3.672   2.521  0.1207  0.4671  0.5909
   10MOL   C203 3461   5.545   3.526   2.510 -0.5668 -0.2333 -0.6031
   10MOL   C204 3462   5.699   3.495   2.498 -0.9993 -0.5799 -0.4212
   10MOL   C205 3463   5.741   3.346   2.504 -0.0251 -0.9534  0.1400
   10MOL   H206 3464   5.169   3.749   2.465 -0.0692  0.9100 -2.5164
   10MOL   H207 3465   5.299   3.813   2.377 -0.3732  0.4279 -0.5355
   10MOL   H208 3466   5.318   3.631   2.620 -0.4688 -0.4889 -0.2416
   10MOL   H209 3467   5.576   3.716   2.590 -0.8421  1.5705  0.9004
   10MOL   H210 3468   5.523   3.722   2.426  0.3141  0.4076  0.5975
   10MOL   H211 3469   5.501   3.478   2.422  0.5961  0.3459 -1.5072
   10MOL   H212 3470   5.509   3.469   2.595 -0.2945 -1.4443 -1.2789
   10MOL   H213 3471   5.752   3.548   2.577  0.1836 -1.2177 -0.7849
   10MOL   H214 3472   5.750   3.548   2.418 -1.0869  0.2673  0.0652
   10MOL   H215 3473   5.726   3.301   2.602  0.1995 -1.8456 -0.2280
   10MOL   H216 3474   5.667   3.292   2.445  0.7427 -0.6763 -1.1090
   10MOL   H217 3475   5.845   3.322   2.478 -0.1532 -0.7456 -0.5690
   10MOL   C218 3476   5.356   3.838   2.658  0.2431 -0.5323 -0.2459
   10MOL   C219 3477   5.378   3.806   2.813 -0.3678 -0.6421 -0.0973
   10MOL   C220 3478   5.309   3.927   2.897  0.5642  0.3006  0.0600
   10MOL   C221 3479   5.383   4.057   2.879  0.9373  0.1158  0.1416
   10MOL   C222 3480   5.298   4.179   2.923 -0.5368 -0.1984  0.1370
   10MOL   C223 3481   5.389   4.303   2.911 -0.2064  0.4657  0.2942
   10MOL   H224 3482   5.420   3.914   2.613  0.2753  0.3928  1.3114
   10MOL   H225 3483   5.260   3.888   2.644  1.0939  0.9869 -0.7789
   10MOL   H226 3484   5.306   3.726   2.830 -0.6636 -0.7109 -1.6161
   10MOL   H227 3485   5.292   3.909   3.003 -1.7925  1.4696 -0.1053
   10MOL   H228 3486   5.209   3.943   2.858  0.0462 -1.9673  0.3780
   10MOL   H229 3487   5.426   4.053   2.779 -0.5600 -0.5724 -0.4898
   10MOL   H230 3488   5.481   4.050   2.927 -0.2483 -0.7213  2.5613
   10MOL   H231 3489   5.208   4.182   2.862  0.6397  0.9742 -1.5911
   10MOL   H232 3490   5.251   4.157   3.018  1.6494 -2.4004  0.7630
   10MOL   H233 3491   5.417   4.324   2.808  0.1965  0.9477  0.5041
   10MOL   H234 3492   5.478   4.293   2.973  0.6703 -2.7467 -1.3717
   10MOL   H235 3493   5.330   4.386   2.951 -1.1541  0.6016 -1.3419
   10MOL   C236 3494   5.523   3.767   2.851 -0.1886  0.0245 -0.1262
   10MOL   C237 3495   5.546   3.706   2.997  0.2125 -0.2481 -0.4049
   10MOL   C238 3496   5.696   3.676   3.030 -0.0743 -0.4108  0.4619
   10MOL   C239 3497   5.810   3.785   3.012 -0.0207  0.3011  0.1570
   10MOL   C240 3498   5.931   3.762   3.107 -0.1174 -0.6823 -0.6257
   10MOL   C241 3499   6.004   3.631   3.060  0.2010  0.7196  0.0295
   10MOL   H242 3500   5.559   3.683   2.792 -0.1366  0.2837 -0.4670
   10MOL   H243 3501   5.586   3.852   2.825  1.6865 -1.2187  0.3425
   10MOL   H244 3502   5.512   3.774   3.075  0.9671 -1.4361  0.9845
   10MOL   H245 3503   5.687   3.635   3.130  0.9067 -2.1788 -0.1597
   10MOL   H246 3504   5.732   3.587   2.979 -0.6849  0.0591 -0.8272
   10MOL   H247 3505   5.771   3.879   3.051 -0.7010 -0.8444  2.3338
   10MOL   H248 3506   5.831   3.796   2.906  2.3973  3.7075  0.9310
   10MOL   H249 3507   5.990   3.853   3.100  0.6132 -1.0928  0.1399
   10MOL   H250 3508   5.886   3.751   3.206  1.0101  0.4438  0.0309
   10MOL   H251 3509   5.953   3.535   3.054 -1.0751  1.3281  0.8647
   10MOL   H252 3510   6.043   3.638   2.958 -0.9133  0.1025 -0.4472
   10MOL   H253 3511   6.089   3.618   3.127  0.0306 -1.7643 -0.1904
   10MOL   C254 3512   5.474   3.572   3.011  0.0573 -0.1028 -0.9495
   10MOL   C255 3513   5.353   3.580   3.120 -0.4683 -0.0619  0.8596
   10MOL   C256 3514   5.395   3.610   3.264  0.1406  0.1853  0.1058
   10MOL   C257 3515   5.292   3.675   3.366  0.0390  0.6518  0.2414
   10MOL   C258 3516   5.207   3.798   3.317  0.1616  0.5983 -0.1058
   10MOL   C259 3517   5.289   3.923   3.278 -0.9431 -0.5218  0.4572
   10MOL   H260 3518   5.537   3.493   3.052 -1.2836 -1.3208 -1.2194
   10MOL   H261 3519   5.455   3.531   2.913 -0.9523 -1.2340 -0.2851
   10MOL   H262 3520   5.295   3.667   3.090 -1.2746 -0.1976  2.0216
   10MOL   H263 3521   5.431   3.525   3.322 -1.9505 -0.3099  0.7087
   10MOL   H264 3522   5.490   3.663   3.258  1.4123 -2.2150 -1.5914
   10MOL   H265 3523   5.232   3.596   3.410  0.5132 -0.4986 -1.1364
   10MOL   H266 3524   5.356   3.712   3.447  0.4761 -2.4036  1.3475
   10MOL   H267 3525   5.136   3.824   3.396 -1.5272  0.2379 -1.4882
   10MOL   H268 3526   5.138   3.772   3.238  0.2903  0.1733 -0.0806
   10MOL   H269 3527   5.368   3.898   3.206 -0.6680 -0.3487  0.6988
   10MOL   H270 3528   5.330   3.979   3.361 -0.4643  2.4961 -1.7382
   10MOL   H271 3529   5.226   3.988   3.218 -2.1017 -2.3188 -0.3225
   10MOL   C272 3530   5.244   3.466   3.112  0.1109  0.3543  0.5246
   10MOL   C273 3531   5.152   3.461   2.988  0.0283 -0.4368 -0.3588
   10MOL   C274 3532   5.060   3.585   2.981 -0.2533  0.1193  0.5413
   10MOL   C275 3533   4.945   3.602   3.079  0.4421 -0.2859  0.0375
   10MOL   C276 3534   4.880   3.738   3.081  0.2539 -0.0991  0.3214
   10MOL   C277 3535   4.776   3.765   3.190  0.2918  0.2500 -0.5013
   10MOL   H278 3536   5.291   3.368   3.116 -3.1646 -1.3982 -1.4160
   10MOL   H279 3537   5.178   3.470   3.198  0.0640  1.4049  0.4445
   10MOL   H280 3538   5.212   3.478   2.898 -0.4114  1.4882 -0.3094
   10MOL   H281 3539   5.011   3.573   2.885 -0.1423 -0.9149  0.6110
   10MOL   H282 3540   5.119   3.675   2.960 -0.6359  0.0323 -0.9419
   10MOL   H283 3541   4.974   3.579   3.181  0.9002 -0.9509 -0.2379
   10MOL   H284 3542   4.859   3.541   3.049 -1.5516  1.4569  2.0155
   10MOL   H285 3543   4.957   3.812   3.103 -0.1098  0.0538  1.1219
   10MOL   H286 3544   4.844   3.754   2.979 -0.2646  0.8780  0.6387
   10MOL   H287 3545   4.824   3.753   3.286 -0.4792 -1.0459 -0.2545
   10MOL   H288 3546   4.738   3.867   3.192 -1.2111 -0.2633 -1.1410
   10MOL   H289 3547   4.687   3.701   3.185 -1.1301  2.2683 -2.1815
   10MOL   C290 3548   5.083   3.326   2.971  0.8577 -0.7768  0.5695
   10MOL   C291 3549   5.188   3.211   2.936 -0.5268  0.1185  1.0563
   10MOL   C292 3550   5.115   3.081   2.966 -0.5515 -0.2313 -0.1175
   10MOL   C293 3551   5.122   3.043   3.115  0.0463 -0.1274  0.1495
   10MOL   C294 3552   5.054   2.911   3.138  0.2833 -1.0774 -0.8321
   10MOL   C295 3553   5.037   2.880   3.290 -0.2312 -0.2328  0.2812
   10MOL   H296 3554   5.004   3.325   2.896 -0.0030  1.4363  1.3818
   10MOL   H297 3555   5.036   3.309   3.068 -0.9929  1.9377  0.2048
   10MOL   H298 3556   5.274   3.211   3.003 -0.0143 -2.9318  0.4436
   10MOL   H299 3557   5.165   3.000   2.912  2.1850  0.7918  0.7986
   10MOL   H300 3558   5.016   3.074   2.922  0.1471 -0.8641 -1.6185
   10MOL   H301 3559   5.226   3.036   3.148  0.2262  1.4484 -0.0267
   10MOL   H302 3560   5.067   3.120   3.169 -0.5887 -0.3969 -0.1097
   10MOL   H303 3561   5.107   2.833   3.083 -0.8082 -0.5235 -2.7085
   10MOL   H304 3562   4.953   2.917   3.099  0.2546 -2.2168 -0.9357
   10MOL   H305 3563   5.132   2.889   3.342  0.3546  4.5413 -1.3817
   10MOL   H306 3564   5.010   2.774   3.293 -1.4385  0.1150  3.9704
   10MOL   H307 3565   4.956   2.939   3.333 -1.3227 -0.3356 -1.6044
   10MOL   C308 3566   5.250   3.211   2.790 -1.1650  0.1051 -0.0064
   10MOL   C309 3567   5.386   3.135   2.762 -0.4454 -0.6390 -0.2920
   10MOL   C310 3568   5.513   3.204   2.826 -0.0598  0.0175  0.0255
   10MOL   C311 3569   5.622   3.121   2.895 -0.4391  0.7690  0.2503
   10MOL   C312 3570   5.730   3.205   2.965 -0.0488 -0.6059 -0.1178
   10MOL   C313 3571   5.837   3.268   2.871 -0.0314  0.0153 -0.1522
   10MOL   H314 3572   5.179   3.167   2.720 -0.1626 -2.1023  0.3101
   10MOL   H315 3573   5.256   3.312   2.751  2.0064  0.3304  0.8970
   10MOL   H316 3574   5.382   3.042   2.818  0.9596 -0.4381  0.1532
   10MOL   H317 3575   5.471   3.283   2.888 -1.3233 -1.8486  1.6200
   10MOL   H318 3576   5.573   3.250   2.747 -0.0712 -0.4709 -0.2718
   10MOL   H319 3577   5.662   3.050   2.822 -1.1009  0.5431  0.1064
   10MOL   H320 3578   5.583   3.053   2.971  1.7917 -0.4797  0.3479
   10MOL   H321 3579   5.687   3.281   3.030 -0.5117 -0.1577 -0.9392
   10MOL   H322 3580   5.780   3.144   3.041  0.9308  0.2626 -0.0398
   10MOL   H323 3581   5.922   3.303   2.928 -0.8186 -0.1682  1.1456
   10MOL   H324 3582   5.794   3.339   2.800 -0.7882  0.8899  1.1617
   10MOL   H325 3583   5.872   3.188   2.805 -2.3166  0.6625 -2.2594
   10MOL   C326 3584   5.416   3.106   2.612  0.0893 -0.2711  0.1394
   10MOL   C327 3585   5.320   3.027   2.521 -0.6571 -0.0796 -0.1493
   10MOL   C328 3586   5.378   3.006   2.378  0.5262  0.8112  0.1964
   10MOL   C329 3587   5.371   3.118   2.275  1.3887  0.9277  0.0473
   10MOL   C330 3588   5.424   3.079   2.141 -0.2270  0.6532 -0.2120
   10MOL   C331 3589   5.360   3.156   2.031  0.2373 -0.2021  0.5463
   10MOL   H332 3590   5.510   3.050   2.611  0.2233 -0.0198 -1.5089
   10MOL   H333 3591   5.445   3.203   2.572  0.4949 -0.2196  0.5477
   10MOL   H334 3592   5.226   3.081   2.510 -1.5334 -1.6848 -0.6813
   10MOL   H335 3593   5.478   2.968   2.399  0.3802 -0.0650 -0.6460
   10MOL   H336 3594   5.327   2.918   2.338  0.9423  0.3236  0.7163
   10MOL   H337 3595   5.433   3.190   2.328  0.2690  2.5965 -0.8717
   10MOL   H338 3596   5.269   3.156   2.267  0.9179  0.1787  2.1914
   10MOL   H339 3597   5.533   3.086   2.140 -0.2548  1.1469 -1.1095
   10MOL   H340 3598   5.404   2.972   2.137 -0.6450  0.6829  1.1054
   10MOL   H341 3599   5.378   3.263   2.042  0.0568  0.3545 -3.5837
   10MOL   H342 3600   5.252   3.150   2.017  0.4834 -1.1258 -1.2094
   10MOL   H343 3601   5.404   3.130   1.934  0.2529 -0.4320  0.6153
   10MOL   C344 3602   5.282   2.887   2.582 -0.0466 -0.7183 -0.3597
   10MOL   C345 3603   5.395   2.787   2.599  0.5018 -0.2294  0.4855
   10MOL   C346 3604   5.349   2.651   2.663 -0.2337 -0.4286 -0.5117
   10MOL   C347 3605   5.311   2.657   2.813 -0.5189 -0.5985 -0.3943
   10MOL   C348 3606   5.250   2.522   2.856  0.4442 -0.0456  0.5831
   10MOL   C349 3607   5.233   2.494   3.007  0.1195  0.3694 -0.3273
   10MOL   H350 3608   5.244   2.897   2.684  0.6905 -0.1417 -0.1444
   10MOL   H351 3609   5.202   2.834   2.530  0.7415 -0.4091 -1.9173
   10MOL   H352 3610   5.478   2.827   2.657  0.1655  0.0104  0.8035
   10MOL   H353 3611   5.260   2.611   2.615 -0.7149 -1.7989  1.4745
   10MOL   H354 3612   5.433   2.581   2.657  0.0517 -0.0960 -0.4162
   10MOL   H355 3613   5.400   2.691   2.867  0.2411 -0.7238 -1.5576
   10MOL   H356 3614   5.244   2.739   2.839  1.4815  0.6328  1.0689
   10MOL   H357 3615   5.148   2.528   2.819  0.1582 -2.6790  0.9201
   10MOL   H358 3616   5.288   2.430   2.811  2.3529  2.0233 -2.2698
   10MOL   H359 3617   5.235   2.586   3.065  2.3504  0.5096 -0.5600
   10MOL   H360 3618   5.140   2.441   3.025 -0.3978  1.4331  0.1671
   10MOL   H361 3619   5.320   2.441   3.047  1.1017  1.2133 -1.2818
   10MOL   H362 3620   5.435   2.761   2.501  1.2855  3.2149 -0.1777
   11MOL     C1 3621   5.625   4.856   6.097  0.0117 -0.1715  0.3846
   11MOL     C2 3622   5.504   4.767   6.144 -1.1845 -0.2409 -0.3237
   11MOL     C3 3623   5.483   4.650   6.046 -0.7430 -0.1528 -0.2623
   11MOL     C4 3624   5.594   4.550   6.017 -0.4396 -0.5176 -0.5740
   11MOL     C5 3625   5.546   4.465   5.893 -0.9743  0.3082  0.1453
   11MOL     C6 3626   5.640   4.340   5.869  0.4196  0.0198 -0.2483
   11MOL     H7 3627   5.717   4.797   6.098 -0.2645 -0.5833  2.2258
   11MOL     H8 3628   5.618   4.906   6.000  0.1989  0.8203  0.8771
   11MOL     H9 3629   5.544   4.722   6.234  0.9150 -0.2614 -1.2392
   11MOL    H10 3630   5.444   4.700   5.957  1.1967  0.9135 -0.5405
   11MOL    H11 3631   5.401   4.588   6.082  1.7446 -3.4678 -0.0503
   11MOL    H12 3632   5.616   4.494   6.108  3.2339 -0.2626 -1.2488
   11MOL    H13 3633   5.686   4.604   5.996 -1.0530  1.8993  2.4362
   11MOL    H14 3634   5.442   4.439   5.912 -0.4217 -0.4796  2.2562
   11MOL    H15 3635   5.550   4.508   5.793 -0.4193 -2.8926 -1.2631
   11MOL    H16 3636   5.669   4.292   5.962 -1.5287 -1.3377 -0.2947
   11MOL    H17 3637   5.729   4.363   5.810  1.0115 -2.2901 -0.3047
   11MOL    H18 3638   5.590   4.264   5.808 -1.4740  1.9698 -1.1928
   11MOL    H19 3639   5.638   4.938   6.168 -2.0251  1.4946 -1.1125
   11MOL    C20 3640   5.379   4.857   6.166  1.0564  0.5195 -0.5406
   11MOL    C21 3641   5.385   4.955   6.288  0.0623 -0.2903 -0.2519
   11MOL    C22 3642   5.353   5.101   6.253  0.0318 -0.2617 -0.1382
   11MOL    C23 3643   5.211   5.124   6.190 -0.2794  0.0677 -0.1754
   11MOL    C24 3644   5.159   5.265   6.179 -0.1481 -0.3532 -0.8754
   11MOL    C25 3645   5.028   5.263   6.102  0.1556 -0.2010 -0.1388
   11MOL    H26 3646   5.294   4.792   6.187  0.3327  0.8434 -2.3662
   11MOL    H27 3647   5.356   4.908   6.072  1.5250 -2.0716 -2.1204
   11MOL    H28 3648   5.490   4.956   6.317  0.6976 -1.7406 -2.4226
   11MOL    H29 3649   5.426   5.131   6.177  0.6817 -0.5347  0.3721
   11MOL    H30 3650   5.367   5.173   6.334  3.2191 -0.5461 -0.3699
   11MOL    H31 3651   5.143   5.081   6.263  0.2566  2.1368  1.5740
   11MOL    H32 3652   5.204   5.079   6.091 -1.3993 -0.5200  0.1624
   11MOL    H33 3653   5.142   5.303   6.280  1.3487  2.3495 -1.5818
   11MOL    H34 3654   5.236   5.314   6.120 -0.1939  1.0429  0.1697
   11MOL    H35 3655   5.005   5.369   6.100 -0.0083 -0.2071  1.0524
   11MOL    H36 3656   5.048   5.223   6.002  0.0119  1.8086 -0.9785
   11MOL    H37 3657   4.952   5.201   6.149  1.0393 -0.2170  1.2985
   11MOL    C38 3658   5.278   4.921   6.406 -0.5285  0.2203 -0.4490
   11MOL    C39 3659   5.331   4.823   6.512  0.0765  0.1136 -0.8634
   11MOL    C40 3660   5.265   4.854   6.652  0.5677 -0.2094 -0.1761
   11MOL    C41 3661   5.313   4.988   6.714  0.4314 -0.1703  0.2115
   11MOL    C42 3662   5.289   4.996   6.868 -0.2087 -0.4744  0.6642
   11MOL    C43 3663   5.408   4.944   6.951 -0.2158 -1.1602 -1.1343
   11MOL    H44 3664   5.185   4.877   6.369 -1.1767  0.0608  1.3333
   11MOL    H45 3665   5.251   5.015   6.453 -1.3287 -0.6452  0.8472
   11MOL    H46 3666   5.437   4.835   6.535 -0.1189 -0.4136  0.3676
   11MOL    H47 3667   5.156   4.848   6.655  0.4870  0.9559 -0.4079
   11MOL    H48 3668   5.302   4.776   6.719 -0.3471 -0.1819  0.3605
   11MOL    H49 3669   5.417   5.017   6.700  0.7940 -0.4009  2.1644
   11MOL    H50 3670   5.255   5.071   6.673  2.1575  1.5227  1.1004
   11MOL    H51 3671   5.272   5.102   6.887 -2.2658 -0.1180 -2.6480
   11MOL    H52 3672   5.196   4.944   6.889 -1.8479  3.1233  2.8292
   11MOL    H53 3673   5.508   4.974   6.921 -0.3172 -1.0327 -1.3479
   11MOL    H54 3674   5.426   4.837   6.944 -1.2371 -1.4270  0.2109
   11MOL    H55 3675   5.401   4.977   7.055  1.5574  2.5559 -2.1262
   11MOL    C56 3676   5.304   4.679   6.464 -0.0516  0.6049  0.2081
   11MOL    C57 3677   5.347   4.561   6.555 -0.2531  0.0674 -0.2905
   11MOL    C58 3678   5.495   4.562   6.587  0.0515  0.5023  0.7119
   11MOL    C59 3679   5.524   4.608   6.731 -0.5641 -0.0824 -0.4462
   11MOL    C60 3680   5.672   4.596   6.777 -0.0762 -0.3743 -0.4664
   11MOL    C61 3681   5.689   4.615   6.930  0.6155 -0.2678 -0.3033
   11MOL    H62 3682   5.197   4.675   6.441 -0.1445  2.3151  0.2342
   11MOL    H63 3683   5.367   4.675   6.376  1.3765 -2.1924  1.2987
   11MOL    H64 3684   5.290   4.571   6.647  1.3801 -2.6627  1.0554
   11MOL    H65 3685   5.533   4.459   6.587 -2.1447 -0.3476  2.6208
   11MOL    H66 3686   5.556   4.618   6.517 -1.1344  0.4134 -0.4075
   11MOL    H67 3687   5.455   4.558   6.800  0.6497  0.9409  1.5835
   11MOL    H68 3688   5.501   4.715   6.735 -1.4461 -0.3403  3.2499
   11MOL    H69 3689   5.714   4.505   6.736  2.3913  0.3406  0.4186
   11MOL    H70 3690   5.733   4.670   6.725 -0.4147 -0.2860 -0.7467
   11MOL    H71 3691   5.783   4.663   6.961  0.5472  1.1270 -2.1404
   11MOL    H72 3692   5.625   4.697   6.963  1.2662  0.0058  0.2872
   11MOL    H73 3693   5.657   4.526   6.983 -0.9242  1.3936  1.6302
   11MOL    C74 3694   5.312   4.421   6.493  0.2045 -0.4312  0.1612
   11MOL    C75 3695   5.260   4.321   6.594 -0.7894 -0.0716 -0.1442
   11MOL    C76 3696   5.107   4.331   6.607  0.1675 -0.1873 -0.5401
   11MOL    C77 3697   5.049   4.460   6.669  0.6454 -0.1652 -0.6800
   11MOL    C78 3698   4.896   4.448   6.700  0.7142 -0.2896 -0.0533
   11MOL    C79 3699   4.843   4.549   6.798 -0.2178 -0.3853  0.6701
   11MOL    H80 3700   5.238   4.436   6.415 -0.3179 -2.2845  0.2764
   11MOL    H81 3701   5.401   4.374   6.450  0.2416 -2.9166  2.8224
   11MOL    H82 3702   5.302   4.350   6.691 -0.7029  0.8732 -0.4663
   11MOL    H83 3703   5.061   4.317   6.510  1.0949  1.6848 -1.2773
   11MOL    H84 3704   5.078   4.246   6.668 -1.2992  0.8959  0.3232
   11MOL    H85 3705   5.100   4.465   6.766 -0.5231  0.5633 -0.0919
   11MOL    H86 3706   5.065   4.545   6.602  0.0218  1.3356  1.0275
   11MOL    H87 3707   4.886   4.349   6.745 -0.0339  0.0509  0.5222
   11MOL    H88 3708   4.840   4.450   6.606 -0.5913  0.3120  0.7307
   11MOL    H89 3709   4.861   4.649   6.759 -2.1305 -0.1484  0.3377
   11MOL    H90 3710   4.741   4.532   6.833 -0.8024  1.6794  0.0639
   11MOL    H91 3711   4.905   4.545   6.888  1.8264  0.0161 -0.6976
   11MOL    C92 3712   5.314   4.178   6.568 -0.0991  0.1145 -0.3999
   11MOL    C93 3713   5.450   4.149   6.627  0.2194 -0.5464 -0.6601
   11MOL    C94 3714   5.448   4.114   6.771 -0.1751  0.2798 -0.2375
   11MOL    C95 3715   5.400   3.975   6.811 -0.9221 -0.2361 -0.1811
   11MOL    C96 3716   5.429   3.942   6.961 -0.1876 -0.0319  0.4792
   11MOL    C97 3717   5.417   3.794   6.981  0.2885  0.5682 -0.2543
   11MOL    H98 3718   5.248   4.115   6.628  0.4901 -0.7048 -0.6151
   11MOL    H99 3719   5.309   4.145   6.464  0.6891  0.0012 -0.4063
   11MOL   H100 3720   5.518   4.234   6.620  1.4116 -1.0688  3.3625
   11MOL   H101 3721   5.418   4.197   6.835  0.2799 -0.5505  1.0550
   11MOL   H102 3722   5.554   4.113   6.796  0.6704  2.4818 -3.4073
   11MOL   H103 3723   5.299   3.969   6.771 -0.4342 -1.3050 -1.2595
   11MOL   H104 3724   5.458   3.905   6.751  1.9237  1.7834  0.0501
   11MOL   H105 3725   5.531   3.972   6.986 -0.3984  1.2723 -0.2248
   11MOL   H106 3726   5.363   4.001   7.026  0.0731  1.3615 -0.5109
   11MOL   H107 3727   5.477   3.735   6.911  0.5111 -0.1192  0.5157
   11MOL   H108 3728   5.432   3.775   7.087  0.0165  3.5314  0.3500
   11MOL   H109 3729   5.312   3.778   6.954  0.7425  0.0706 -1.7861
   11MOL   C110 3730   5.517   4.032   6.536 -0.0044 -0.3829 -0.0597
   11MOL   C111 3731   5.560   4.071   6.392 -0.0786  0.2892 -0.0861
   11MOL   C112 3732   5.477   4.007   6.282  0.1488 -0.8136  0.3231
   11MOL   C113 3733   5.484   4.081   6.151 -0.5340 -0.7439  0.2590
   11MOL   C114 3734   5.379   4.021   6.049  0.1731  0.2652  0.5471
   11MOL   C115 3735   5.365   4.106   5.928  0.0193 -0.2852  1.8659
   11MOL   H116 3736   5.594   3.969   6.579  0.5279 -0.5562 -1.2637
   11MOL   H117 3737   5.446   3.953   6.512  2.3409 -2.0178 -1.8900
   11MOL   H118 3738   5.543   4.179   6.386 -0.8433  0.0601 -2.6799
   11MOL   H119 3739   5.373   3.994   6.312  0.3340  0.2239  1.4380
   11MOL   H120 3740   5.504   3.902   6.270  2.5887 -0.2973  1.1384
   11MOL   H121 3741   5.579   4.074   6.099 -2.9317 -4.2725 -4.0187
   11MOL   H122 3742   5.461   4.187   6.168  0.0270 -0.1506 -2.4732
   11MOL   H123 3743   5.277   4.003   6.081  0.3341 -0.3117  0.7386
   11MOL   H124 3744   5.414   3.925   6.013  0.5036 -0.3782  2.5075
   11MOL   H125 3745   5.463   4.114   5.881 -1.1295 -1.6602 -0.8609
   11MOL   H126 3746   5.300   4.056   5.856 -1.3422  2.0822  1.3737
   11MOL   H127 3747   5.326   4.208   5.941 -0.8285 -0.4427  0.6894
   11MOL   C128 3748   5.716   4.059   6.367 -0.9336 -0.7198  0.0345
   11MOL   C129 3749   5.812   4.176   6.411  0.2080  0.0177 -0.0290
   11MOL   C130 3750   5.836   4.164   6.560 -0.7622  0.5707 -0.4596
   11MOL   C131 3751   5.946   4.249   6.619 -0.5485  0.2177 -0.4598
   11MOL   C132 3752   5.977   4.217   6.761 -0.3916  0.6418  0.1104
   11MOL   C133 3753   6.110   4.140   6.786  0.1167  0.2743  0.0376
   11MOL   H134 3754   5.728   4.066   6.259 -1.9173 -0.1135 -0.0476
   11MOL   H135 3755   5.752   3.961   6.397  0.0093 -0.4336 -0.1666
   11MOL   H136 3756   5.909   4.157   6.365  0.6040 -0.5086  1.0236
   11MOL   H137 3757   5.750   4.190   6.623 -0.2945  0.8039  0.0843
   11MOL   H138 3758   5.857   4.062   6.593  2.9015  1.4401  0.0634
   11MOL   H139 3759   5.908   4.351   6.617  1.0233  0.8347  0.2820
   11MOL   H140 3760   6.040   4.234   6.565 -0.2896 -0.1395  0.0843
   11MOL   H141 3761   5.983   4.310   6.818  0.6381  0.9566 -0.5011
   11MOL   H142 3762   5.887   4.163   6.790 -0.0604 -1.2874 -2.3248
   11MOL   H143 3763   6.131   4.132   6.893 -1.6117 -1.2409  0.2773
   11MOL   H144 3764   6.203   4.182   6.747 -0.3033 -0.0043 -1.2822
   11MOL   H145 3765   6.088   4.037   6.757 -0.6919 -0.7846  4.1480
   11MOL   C146 3766   5.766   4.316   6.361 -0.0345  0.2344  0.1223
   11MOL   C147 3767   5.883   4.404   6.308 -0.5860 -0.1191 -0.4242
   11MOL   C148 3768   5.847   4.558   6.303 -0.0474 -0.4364  0.3662
   11MOL   C149 3769   5.867   4.632   6.438 -0.0724 -0.0456 -0.0920
   11MOL   C150 3770   6.011   4.688   6.467 -0.1421  0.5419 -0.3401
   11MOL   C151 3771   6.031   4.708   6.613 -0.5791 -0.2584 -0.3282
   11MOL   H152 3772   5.685   4.307   6.289  1.6686  2.9674 -2.2364
   11MOL   H153 3773   5.711   4.368   6.440  0.2286  0.4320  0.1767
   11MOL   H154 3774   5.959   4.396   6.386  0.8745 -1.8064 -1.9612
   11MOL   H155 3775   5.743   4.565   6.271  0.5227 -0.7274 -1.6211
   11MOL   H156 3776   5.911   4.611   6.233  0.0891 -0.0347  0.7977
   11MOL   H157 3777   5.789   4.708   6.443  2.9777  3.2835 -1.1189
   11MOL   H158 3778   5.849   4.565   6.522  3.0257 -0.0445  0.6079
   11MOL   H159 3779   6.042   4.771   6.403  4.6930 -1.9127 -1.4200
   11MOL   H160 3780   6.077   4.606   6.437 -2.3364 -0.8138 -1.5601
   11MOL   H161 3781   5.942   4.748   6.661  0.2622 -0.9124  1.8509
   11MOL   H162 3782   6.058   4.619   6.670 -1.3779 -0.6561 -0.5711
   11MOL   H163 3783   6.102   4.788   6.632 -1.0614 -0.0938  0.8659
   11MOL   C164 3784   5.942   4.355   6.175 -0.0359 -0.2053 -0.6282
   11MOL   C165 3785   6.086   4.406   6.126  1.0772 -0.7688  0.0762
   11MOL   C166 3786   6.190   4.382   6.239 -0.2637  0.1944  1.1301
   11MOL   C167 3787   6.211   4.232   6.281  0.3737  0.5222  0.0585
   11MOL   C168 3788   6.307   4.210   6.399  0.1613 -0.6877 -0.2086
   11MOL   C169 3789   6.308   4.082   6.481 -0.0905 -0.1262  0.1055
   11MOL   H170 3790   5.935   4.246   6.177  1.0331 -0.2790 -0.9002
   11MOL   H171 3791   5.878   4.387   6.092 -2.6684 -0.6834  1.1528
   11MOL   H172 3792   6.070   4.513   6.110  4.6271 -0.5045 -2.3681
   11MOL   H173 3793   6.157   4.435   6.328 -1.7718 -1.4969  1.6201
   11MOL   H174 3794   6.285   4.423   6.204 -1.4676  2.5168  0.4685
   11MOL   H175 3795   6.251   4.180   6.194 -0.0658 -0.9091  0.6916
   11MOL   H176 3796   6.116   4.179   6.285  1.6962 -2.1485 -2.0801
   11MOL   H177 3797   6.309   4.298   6.464 -0.1838 -1.1442  0.4192
   11MOL   H178 3798   6.412   4.223   6.370  0.2906 -0.7783  0.2220
   11MOL   H179 3799   6.404   4.059   6.527  0.4418 -0.1269 -0.9999
   11MOL   H180 3800   6.292   3.997   6.414  1.0354  0.4945 -0.9620
   11MOL   H181 3801   6.223   4.079   6.550 -1.0494  0.2309 -1.0479
   11MOL   C182 3802   6.127   4.352   5.988  0.4438 -0.0525  0.5492
   11MOL   C183 3803   6.242   4.416   5.910 -0.7974 -0.3086  0.7547
   11MOL   C184 3804   6.246   4.573   5.918  0.0275  1.1240 -0.3281
   11MOL   C185 3805   6.153   4.649   5.824 -1.1470 -0.0474  0.4703
   11MOL   C186 3806   6.029   4.703   5.890 -0.0175  0.2371 -0.8414
   11MOL   C187 3807   5.934   4.775   5.791  0.0845  0.8107 -0.6942
   11MOL   H188 3808   6.146   4.247   6.005 -1.4755 -0.0392  3.0721
   11MOL   H189 3809   6.038   4.365   5.925  0.4444 -0.1828  0.5232
   11MOL   H190 3810   6.337   4.378   5.948  1.4311  3.4976 -0.8313
   11MOL   H191 3811   6.223   4.619   6.014  0.9524  1.9726 -0.5004
   11MOL   H192 3812   6.349   4.608   5.910  1.4400 -2.3911  1.4047
   11MOL   H193 3813   6.132   4.592   5.733  1.5732 -0.4011  0.0391
   11MOL   H194 3814   6.212   4.735   5.794  1.5386 -1.3786  1.7741
   11MOL   H195 3815   6.059   4.764   5.976 -0.3109  0.6948 -1.0614
   11MOL   H196 3816   5.981   4.620   5.942  0.4431  0.5840  0.1467
   11MOL   H197 3817   5.844   4.807   5.843 -0.1405 -0.0640 -0.5360
   11MOL   H198 3818   5.911   4.722   5.698 -0.8638  0.4029 -0.2278
   11MOL   H199 3819   5.979   4.871   5.769  3.1386 -0.0874  1.2835
   11MOL   C200 3820   6.238   4.366   5.761 -0.0180 -1.3143  0.2044
   11MOL   C201 3821   6.271   4.214   5.747 -0.1809  0.2954 -0.1209
   11MOL   C202 3822   6.250   4.175   5.598 -0.1547  0.5424 -0.1749
   11MOL   C203 3823   6.249   4.027   5.574 -0.5729  0.4757 -0.1216
   11MOL   C204 3824   6.247   3.995   5.420 -0.5095 -0.8776 -0.5154
   11MOL   C205 3825   6.272   3.853   5.382 -0.3390  0.4855 -0.2340
   11MOL   H206 3826   6.316   4.419   5.706 -2.6249  1.2293 -1.1549
   11MOL   H207 3827   6.143   4.383   5.711 -0.1468 -2.2752  0.1292
   11MOL   H208 3828   6.202   4.152   5.804  0.9294 -0.5596  0.2946
   11MOL   H209 3829   6.328   4.223   5.540  1.8149 -1.1163  1.0513
   11MOL   H210 3830   6.154   4.211   5.559  0.2695  0.3031 -1.4738
   11MOL   H211 3831   6.167   3.980   5.627 -0.7880  2.4593  1.3941
   11MOL   H212 3832   6.341   3.980   5.608 -0.6333 -0.3391 -1.0868
   11MOL   H213 3833   6.319   4.057   5.366  0.5385 -1.4188  0.2502
   11MOL   H214 3834   6.149   4.029   5.385 -0.9790 -1.7194 -0.0425
   11MOL   H215 3835   6.381   3.843   5.392 -0.3880  0.5353  0.3565
   11MOL   H216 3836   6.223   3.781   5.448  0.0489  1.0082  0.6314
   11MOL   H217 3837   6.242   3.820   5.282  1.0699 -1.5310 -0.0367
   11MOL   C218 3838   6.412   4.177   5.799  0.0821  0.0236 -0.2987
   11MOL   C219 3839   6.420   4.098   5.935  0.1746  0.3257  0.1308
   11MOL   C220 3840   6.552   4.123   6.012  0.3442  0.7922  0.7187
   11MOL   C221 3841   6.677   4.097   5.933 -0.3254 -0.1596  0.2659
   11MOL   C222 3842   6.791   4.137   6.019  0.1559  0.1422  0.4111
   11MOL   C223 3843   6.926   4.086   5.969  0.4937  0.4382 -0.3906
   11MOL   H224 3844   6.470   4.121   5.726  0.7548 -0.3388  0.4965
   11MOL   H225 3845   6.471   4.268   5.809  0.1526 -0.1362  0.8984
   11MOL   H226 3846   6.338   4.140   5.994  0.5485  2.1157 -0.6138
   11MOL   H227 3847   6.534   4.071   6.106 -2.5175  1.7354  0.7638
   11MOL   H228 3848   6.548   4.229   6.038 -2.2743  0.5272  1.5725
   11MOL   H229 3849   6.674   4.144   5.834  0.3485 -0.5257  0.0694
   11MOL   H230 3850   6.684   3.990   5.914  0.3741  0.2396 -1.9118
   11MOL   H231 3851   6.801   4.245   6.025  1.8771 -0.0335  1.0438
   11MOL   H232 3852   6.769   4.098   6.119 -0.2303  0.9620  0.6516
   11MOL   H233 3853   7.004   4.105   6.043  0.8193  1.1509 -0.9158
   11MOL   H234 3854   6.952   4.131   5.873 -0.7018 -0.6487 -1.2454
   11MOL   H235 3855   6.925   3.979   5.949  1.5494  0.3102  0.1758
   11MOL   C236 3856   6.389   3.947   5.910 -0.6461  0.2567 -0.5531
   11MOL   C237 3857   6.371   3.843   6.029  0.5937 -0.2827 -0.7219
   11MOL   C238 3858   6.368   3.701   5.979 -0.1081  0.2145 -0.6271
   11MOL   C239 3859   6.402   3.598   6.091 -0.5576  0.2805 -0.0101
   11MOL   C240 3860   6.378   3.455   6.046 -0.2805 -0.9693  0.5912
   11MOL   C241 3861   6.349   3.354   6.155 -0.5345 -0.7825  0.9476
   11MOL   H242 3862   6.297   3.951   5.851 -0.0414 -2.1036 -1.7266
   11MOL   H243 3863   6.457   3.907   5.834 -0.3505 -0.8181  0.2672
   11MOL   H244 3864   6.470   3.854   6.074  0.2194  0.1763 -0.0006
   11MOL   H245 3865   6.276   3.672   5.929 -0.4229 -0.0839  0.1193
   11MOL   H246 3866   6.453   3.694   5.911  1.4244 -0.7162  1.3446
   11MOL   H247 3867   6.338   3.618   6.177  0.0442  1.8547  0.0994
   11MOL   H248 3868   6.503   3.625   6.126  0.3873 -0.5746 -2.0265
   11MOL   H249 3869   6.284   3.461   5.992 -0.1688  1.4298  0.5973
   11MOL   H250 3870   6.447   3.418   5.970  1.3244  1.8914  0.5917
   11MOL   H251 3871   6.284   3.398   6.230 -1.8597  1.9629 -1.7167
   11MOL   H252 3872   6.292   3.270   6.115  0.2085  0.0362 -1.8937
   11MOL   H253 3873   6.441   3.316   6.201 -0.7141 -1.4017  0.8005
   11MOL   C254 3874   6.276   3.877   6.146  0.4928 -0.5951 -0.1602
   11MOL   C255 3875   6.117   3.865   6.123  0.4755 -1.0687 -0.0535
   11MOL   C256 3876   6.059   3.975   6.026 -0.5009 -0.1786  0.4343
   11MOL   C257 3877   5.918   3.937   5.973 -0.1316  0.9914  0.6433
   11MOL   C258 3878   5.866   4.012   5.854 -0.5003 -0.2005 -0.2012
   11MOL   C259 3879   5.748   3.936   5.784 -0.2099  0.3986  0.1013
   11MOL   H260 3880   6.299   3.975   6.188  1.1222  0.2872 -2.4765
   11MOL   H261 3881   6.309   3.814   6.229  2.7520 -1.5488 -1.7411
   11MOL   H262 3882   6.090   3.773   6.071 -0.2037 -1.5372  1.1020
   11MOL   H263 3883   6.059   4.066   6.086  1.3300 -0.0710  0.2943
   11MOL   H264 3884   6.121   3.991   5.938 -0.5179 -2.0370  0.0553
   11MOL   H265 3885   5.919   3.828   5.961  1.6753  0.7094  2.9021
   11MOL   H266 3886   5.841   3.940   6.051  0.2619  1.1496  1.0266
   11MOL   H267 3887   5.946   4.023   5.781  0.2381 -0.1879  0.6005
   11MOL   H268 3888   5.839   4.115   5.877  0.6356  0.6034 -2.2866
   11MOL   H269 3889   5.728   3.970   5.683 -0.1800 -0.3595 -0.1640
   11MOL   H270 3890   5.656   3.933   5.843  0.2006  1.0400  0.7842
   11MOL   H271 3891   5.784   3.834   5.771  0.0475  0.4173  0.6417
   11MOL   C272 3892   6.033   3.868   6.251  0.2652  0.1284  0.4189
   11MOL   C273 3893   6.063   3.760   6.354  0.0316 -0.0479 -0.4900
   11MOL   C274 3894   6.041   3.618   6.303  0.0615 -0.1875  0.0906
   11MOL   C275 3895   5.891   3.585   6.284  0.0365  0.1373 -1.1172
   11MOL   C276 3896   5.874   3.470   6.179  0.3952 -0.3085  0.2145
   11MOL   C277 3897   5.874   3.528   6.036  0.0974  0.9743  0.4354
   11MOL   H278 3898   6.055   3.964   6.298 -1.5716  0.6493  0.2412
   11MOL   H279 3899   5.926   3.878   6.235  0.4647  0.3643 -0.7829
   11MOL   H280 3900   6.169   3.777   6.372 -0.0037 -0.2108 -0.1105
   11MOL   H281 3901   6.083   3.546   6.374  1.1960  0.2971 -0.0785
   11MOL   H282 3902   6.095   3.604   6.209  1.2146  0.4895  0.6369
   11MOL   H283 3903   5.828   3.669   6.257  0.1352  1.8345  3.4164
   11MOL   H284 3904   5.850   3.560   6.382  0.2213 -2.0796 -1.5639
   11MOL   H285 3905   5.950   3.393   6.189  0.3355 -0.1847  1.7008
   11MOL   H286 3906   5.777   3.424   6.199  1.2141 -1.5500  1.4502
   11MOL   H287 3907   5.794   3.600   6.019 -0.5426  0.3060  0.5375
   11MOL   H288 3908   5.970   3.570   6.006  1.4207  0.3448  3.5863
   11MOL   H289 3909   5.864   3.447   5.963  1.3654  1.5278 -0.3582
   11MOL   C290 3910   5.991   3.792   6.486  0.7205 -0.0605  0.0784
   11MOL   C291 3911   5.999   3.696   6.596  0.1999 -0.5955  0.4415
   11MOL   C292 3912   6.149   3.674   6.650 -0.0568  0.0420  0.3258
   11MOL   C293 3913   6.211   3.786   6.736 -0.9665  0.5222 -0.6553
   11MOL   C294 3914   6.348   3.756   6.794 -0.0985 -0.1444 -0.7004
   11MOL   C295 3915   6.417   3.858   6.890 -1.1147 -0.8402  0.3097
   11MOL   H296 3916   5.887   3.801   6.456  1.4081 -1.3570 -2.8330
   11MOL   H297 3917   6.025   3.891   6.515 -1.1542  0.9277 -0.9787
   11MOL   H298 3918   5.952   3.608   6.552 -1.7789  1.4326 -1.6643
   11MOL   H299 3919   6.216   3.670   6.565 -1.6902  0.8448 -1.0211
   11MOL   H300 3920   6.137   3.579   6.704  3.3717 -1.1557 -0.8492
   11MOL   H301 3921   6.221   3.877   6.676  0.8492 -0.9011 -2.6118
   11MOL   H302 3922   6.150   3.797   6.825  2.3152  1.2938  1.5790
   11MOL   H303 3923   6.409   3.744   6.704 -2.0385  0.7696 -2.1811
   11MOL   H304 3924   6.348   3.658   6.842  2.2270  0.0533 -0.2259
   11MOL   H305 3925   6.498   3.809   6.944 -1.6034 -1.0992  0.8179
   11MOL   H306 3926   6.353   3.905   6.965  0.2680 -0.2619  1.1582
   11MOL   H307 3927   6.463   3.932   6.825 -1.8223  0.5805  1.3845
   11MOL   C308 3928   5.910   3.741   6.717  0.3225 -0.0925 -0.0516
   11MOL   C309 3929   5.866   3.641   6.824  0.1663 -0.3401  0.3080
   11MOL   C310 3930   5.742   3.559   6.773  0.0535 -0.9921  0.2010
   11MOL   C311 3931   5.737   3.405   6.787 -0.3430  0.3550  0.2742
   11MOL   C312 3932   5.689   3.352   6.916 -0.3067 -0.0517 -0.3384
   11MOL   C313 3933   5.715   3.202   6.931 -1.0488 -0.3634  0.8143
   11MOL   H314 3934   5.959   3.826   6.764  0.4939 -0.5560  0.6124
   11MOL   H315 3935   5.820   3.783   6.672  2.0230  0.7492 -2.8012
   11MOL   H316 3936   5.949   3.575   6.847  0.4527  0.0363  0.3447
   11MOL   H317 3937   5.739   3.580   6.666 -2.0447 -0.1336  0.4134
   11MOL   H318 3938   5.650   3.602   6.812  0.8894 -0.2799  1.3951
   11MOL   H319 3939   5.841   3.373   6.777 -0.1923  0.7931  0.4240
   11MOL   H320 3940   5.682   3.360   6.704 -0.3904  2.7499 -1.0247
   11MOL   H321 3941   5.746   3.402   6.995  0.3493  1.0728 -1.5105
   11MOL   H322 3942   5.585   3.372   6.942  0.4093  2.3623  0.7776
   11MOL   H323 3943   5.678   3.146   6.845  1.6552 -1.5550  0.3966
   11MOL   H324 3944   5.660   3.169   7.020  1.9103 -4.1090  1.3785
   11MOL   H325 3945   5.818   3.171   6.950 -1.0882  0.3731  2.2800
   11MOL   C326 3946   5.826   3.721   6.953  0.2189  0.2608 -0.3912
   11MOL   C327 3947   5.940   3.799   7.026  0.1043  0.3454  0.7328
   11MOL   C328 3948   5.889   3.906   7.124 -0.6384  0.5683  0.7429
   11MOL   C329 3949   5.835   4.028   7.052 -0.2707 -0.9194 -0.4967
   11MOL   C330 3950   5.786   4.145   7.142  0.3155 -0.8415  0.2207
   11MOL   C331 3951   5.747   4.272   7.053  0.1693  0.0433 -0.3022
   11MOL   H332 3952   5.776   3.651   7.020 -0.7771  0.7310 -0.6294
   11MOL   H333 3953   5.748   3.793   6.926 -0.9460 -1.5087 -1.8556
   11MOL   H334 3954   5.992   3.862   6.954 -2.4365 -0.5730 -1.9703
   11MOL   H335 3955   5.812   3.857   7.184  0.8038 -0.5210  1.7465
   11MOL   H336 3956   5.974   3.933   7.187  1.3430 -0.4193 -1.4100
   11MOL   H337 3957   5.757   3.994   6.983 -0.7463 -0.9886  0.0648
   11MOL   H338 3958   5.913   4.074   6.992 -0.8512  0.7737  0.0216
   11MOL   H339 3959   5.696   4.120   7.199 -0.2059  0.1835 -0.1437
   11MOL   H340 3960   5.867   4.148   7.214  0.8011  0.5323 -0.3695
   11MOL   H341 3961   5.654   4.253   6.999 -0.6206  2.1212  0.2654
   11MOL   H342 3962   5.838   4.295   6.997 -0.3089  1.2479 -0.5995
   11MOL   H343 3963   5.729   4.354   7.123 -0.0652  0.0783 -0.4037
   11MOL   C344 3964   6.044   3.699   7.082  0.0634  0.0403  0.2263
   11MOL   C345 3965   5.993   3.615   7.204  0.1656 -0.2849  0.3202
   11MOL   C346 3966   6.089   3.506   7.257  0.0584 -0.2389  0.8619
   11MOL   C347 3967   6.057   3.451   7.400  0.1561  0.1665  0.3880
   11MOL   C348 3968   6.166   3.367   7.462  0.4564  0.1587 -0.0053
   11MOL   C349 3969   6.162   3.349   7.612  0.0111  0.7124 -0.2508
   11MOL   H350 3970   6.082   3.637   7.001 -0.4726 -3.0719  2.2818
   11MOL   H351 3971   6.132   3.751   7.119 -0.6960  1.9636 -0.5792
   11MOL   H352 3972   5.903   3.564   7.170 -0.0154  1.0489 -1.2572
   11MOL   H353 3973   6.105   3.422   7.188 -0.7814 -2.2989  3.1036
   11MOL   H354 3974   6.185   3.556   7.267  1.9197 -3.6945  1.1975
   11MOL   H355 3975   6.032   3.530   7.471 -0.7675 -0.3736  0.6730
   11MOL   H356 3976   5.967   3.389   7.398  1.2274 -1.4879  1.9851
   11MOL   H357 3977   6.161   3.267   7.419 -1.6927 -0.1136  0.8523
   11MOL   H358 3978   6.267   3.394   7.430  0.7262  0.8480  1.3928
   11MOL   H359 3979   6.069   3.304   7.646  1.0219 -0.3026  1.2295
   11MOL   H360 3980   6.245   3.282   7.634  0.4169  1.1590 -0.4181
   11MOL   H361 3981   6.174   3.447   7.658  0.7165  0.0747  0.9524
   11MOL   H362 3982   5.949   3.678   7.281  1.8415  1.4474 -0.1122
   12MOL     C1 3983   1.706   6.264   7.574 -0.2110  0.8218  0.3586
   12MOL     C2 3984   1.829   6.231   7.487  0.2090  0.4839 -0.5212
   12MOL     C3 3985   1.812   6.085   7.429 -0.3627 -0.3633 -0.0267
   12MOL     C4 3986   1.860   6.069   7.280 -0.2530  0.2525  0.2920
   12MOL     C5 3987   1.860   5.925   7.237  0.7033  0.6260 -0.7420
   12MOL     C6 3988   1.890   5.899   7.092 -0.5049 -0.4406  0.1018
   12MOL     H7 3989   1.614   6.249   7.518 -0.6005 -0.4127  1.3027
   12MOL     H8 3990   1.702   6.211   7.669 -0.0509 -1.9839 -1.1241
   12MOL     H9 3991   1.820   6.306   7.408  0.6484  0.2756 -0.7721
   12MOL    H10 3992   1.704   6.070   7.424 -1.0922  3.5690  1.9849
   12MOL    H11 3993   1.856   6.008   7.493  1.4817  1.3355  0.8001
   12MOL    H12 3994   1.960   6.114   7.278 -1.2512  2.5205 -0.0310
   12MOL    H13 3995   1.793   6.122   7.212  1.2131 -0.1883 -1.5718
   12MOL    H14 3996   1.934   5.871   7.297 -1.0788 -1.3351 -0.2263
   12MOL    H15 3997   1.770   5.867   7.261 -0.1680  1.9779 -0.6743
   12MOL    H16 3998   1.996   5.899   7.067  0.1119 -2.1865  2.5134
   12MOL    H17 3999   1.824   5.962   7.033 -0.6196  2.4810  3.2186
   12MOL    H18 4000   1.862   5.795   7.074  0.5733 -0.4379 -1.6548
   12MOL    H19 4001   1.710   6.368   7.604 -0.8094  1.0515 -0.3557
   12MOL    C20 4002   1.976   6.245   7.543  0.1499  0.0627 -0.6381
   12MOL    C21 4003   2.016   6.379   7.601  1.4032 -0.2925  0.0169
   12MOL    C22 4004   1.970   6.395   0.016  0.3179 -1.1883 -0.5802
   12MOL    C23 4005   1.934   6.541   0.055 -0.2229 -0.0225  0.2573
   12MOL    C24 4006   1.884   6.566   0.206 -0.2676  0.7006  0.1355
   12MOL    C25 4007   1.923   6.706   0.259 -0.6244  0.8255  0.3326
   12MOL    H26 4008   2.052   6.212   7.473 -0.1582 -0.8130 -0.5613
   12MOL    H27 4009   1.996   6.170   7.620  4.0897 -0.4478 -2.0882
   12MOL    H28 4010   1.966   6.451   7.536  0.4469 -0.9367  0.0269
   12MOL    H29 4011   2.044   6.352   0.083  0.4890 -0.1595 -0.0990
   12MOL    H30 4012   1.882   6.330   0.016  0.3233 -1.2740  2.2145
   12MOL    H31 4013   1.857   6.587   7.720  0.5497  1.0780  0.1033
   12MOL    H32 4014   2.030   6.592   0.056 -0.1874 -0.0817  0.0637
   12MOL    H33 4015   1.775   6.558   0.205 -0.1729 -0.6173 -0.2636
   12MOL    H34 4016   1.925   6.492   0.274 -1.3504 -1.4072 -1.4453
   12MOL    H35 4017   1.862   6.720   0.348 -0.5463 -1.2105  0.7366
   12MOL    H36 4018   2.023   6.696   0.301 -1.1008  0.4497  1.4022
   12MOL    H37 4019   1.930   6.789   0.188  1.9090 -0.5409 -1.0727
   12MOL    C38 4020   2.164   6.405   7.585  0.3801  0.2571 -0.3507
   12MOL    C39 4021   2.229   6.431   7.444  0.8402 -0.2195  0.2251
   12MOL    C40 4022   2.228   6.582   7.411 -0.4660  0.4311 -0.1986
   12MOL    C41 4023   2.271   6.623   7.268  0.1551  0.7112  0.0969
   12MOL    C42 4024   2.232   6.762   7.228 -0.5540  0.0909 -0.1291
   12MOL    C43 4025   2.317   6.804   7.099 -0.0057  0.7424 -0.1855
   12MOL    H44 4026   2.222   6.321   7.624 -0.1566 -0.4710 -1.1114
   12MOL    H45 4027   2.194   6.488   7.649  1.4677  1.0159 -1.8080
   12MOL    H46 4028   2.163   6.381   7.373  1.1027  1.3721 -1.1554
   12MOL    H47 4029   2.134   6.632   7.433 -0.9610 -0.3283 -0.5838
   12MOL    H48 4030   2.288   6.631   7.488 -0.4145 -1.8868  1.2519
   12MOL    H49 4031   2.379   6.614   7.257  0.1417  1.6579 -0.9093
   12MOL    H50 4032   2.234   6.550   7.196 -0.4106  2.2169 -1.1677
   12MOL    H51 4033   2.126   6.754   7.201 -0.5064  1.0240 -0.6048
   12MOL    H52 4034   2.239   6.842   7.301  1.1484  1.2991 -1.5679
   12MOL    H53 4035   2.306   6.912   7.091  0.4686  0.9727  1.8600
   12MOL    H54 4036   2.284   6.744   7.015 -0.2214  0.8779 -0.1980
   12MOL    H55 4037   2.422   6.777   7.102 -0.0789  0.5535  0.9666
   12MOL    C56 4038   2.367   6.362   7.430  0.1280  0.1460 -0.0969
   12MOL    C57 4039   2.374   6.208   7.433  0.0477  0.4809 -0.5412
   12MOL    C58 4040   2.513   6.154   7.485 -0.2891  0.3677 -0.8083
   12MOL    C59 4041   2.641   6.214   7.415  0.3456  0.1379 -0.9459
   12MOL    C60 4042   2.773   6.153   7.465  0.0077 -0.1029  0.3256
   12MOL    C61 4043   2.898   6.234   7.443 -0.2696  0.3522  0.0049
   12MOL    H62 4044   2.414   6.399   7.339  1.8072  0.9353  1.0851
   12MOL    H63 4045   2.426   6.403   7.512  1.5884 -1.1808 -0.4705
   12MOL    H64 4046   2.309   6.172   7.513  0.0700  0.5840 -0.4757
   12MOL    H65 4047   2.514   6.170   7.593 -1.5108  0.7406 -0.8373
   12MOL    H66 4048   2.519   6.045   7.483  1.3850  0.3978  0.9301
   12MOL    H67 4049   2.635   6.316   7.454  0.5736 -0.6721  1.2839
   12MOL    H68 4050   2.624   6.208   7.307 -1.3531 -1.3564 -0.6185
   12MOL    H69 4051   2.752   6.136   7.571 -1.3781 -0.3552  0.0248
   12MOL    H70 4052   2.779   6.050   7.430 -0.4404 -1.2919  3.5510
   12MOL    H71 4053   2.884   6.338   7.471 -0.9816  0.4972 -0.8536
   12MOL    H72 4054   2.975   6.185   7.502 -0.8586 -1.3609 -0.6186
   12MOL    H73 4055   2.922   6.240   7.336 -0.2201 -0.8541 -0.0637
   12MOL    C74 4056   2.319   6.142   7.310  0.3625  0.1525  0.4908
   12MOL    C75 4057   2.308   5.983   7.309  0.0805 -0.1874 -0.4187
   12MOL    C76 4058   2.208   5.927   7.413 -0.0454  0.6842  0.2073
   12MOL    C77 4059   2.211   5.784   7.444 -0.0011  0.6521 -0.0726
   12MOL    C78 4060   2.116   5.756   7.558 -0.9537  0.1314 -1.0235
   12MOL    C79 4061   2.084   5.605   7.569  0.2261 -0.1001  0.1588
   12MOL    H80 4062   2.225   6.192   7.285 -0.3965 -0.5881  1.8220
   12MOL    H81 4063   2.387   6.159   7.227 -0.7883 -0.2850 -0.5589
   12MOL    H82 4064   2.402   5.954   7.355 -0.8123 -1.6384  0.5353
   12MOL    H83 4065   2.224   5.981   7.507  1.3829  0.0835  0.3224
   12MOL    H84 4066   2.110   5.964   7.384 -0.7052 -0.1077  1.3700
   12MOL    H85 4067   2.186   5.736   7.349  0.7078  2.3539 -1.1623
   12MOL    H86 4068   2.311   5.749   7.468 -0.0412  0.4544 -0.1933
   12MOL    H87 4069   2.025   5.815   7.570 -1.0761 -0.5631  1.9998
   12MOL    H88 4070   2.175   5.773   7.649 -1.5031  0.7001 -0.7681
   12MOL    H89 4071   2.032   5.578   7.477 -0.4289  2.5511 -0.2745
   12MOL    H90 4072   2.168   5.539   7.594  0.2283  0.0884  0.6747
   12MOL    H91 4073   2.021   5.589   7.657 -0.5993  0.0041 -0.4207
   12MOL    C92 4074   2.282   5.916   7.173  0.3612  0.2670 -0.7674
   12MOL    C93 4075   2.391   5.804   7.141 -0.2102 -0.2478 -0.1481
   12MOL    C94 4076   2.348   5.718   7.013  0.6584 -0.1075  0.0312
   12MOL    C95 4077   2.212   5.641   7.022 -0.6493 -0.3212  0.3460
   12MOL    C96 4078   2.212   5.516   6.935 -0.2382  0.3333  0.0370
   12MOL    C97 4079   2.080   5.449   6.917 -0.3014 -0.1122 -0.5235
   12MOL    H98 4080   2.177   5.888   7.165  0.4675  0.0014 -1.2084
   12MOL    H99 4081   2.290   5.983   7.087  1.0007  0.4818 -0.5478
   12MOL   H100 4082   2.406   5.729   7.219 -0.9594 -1.1510 -0.8578
   12MOL   H101 4083   2.422   5.638   7.008 -0.6423 -1.2712 -1.0660
   12MOL   H102 4084   2.351   5.779   6.922  0.6981  0.8320  0.6508
   12MOL   H103 4085   2.191   5.622   7.128 -0.2586 -1.7960  0.1695
   12MOL   H104 4086   2.151   5.719   6.975 -0.2718  0.8460  1.7648
   12MOL   H105 4087   2.257   5.534   6.837  0.0771 -2.3555 -0.3555
   12MOL   H106 4088   2.288   5.452   6.980 -2.4023 -0.2843  2.9774
   12MOL   H107 4089   2.025   5.434   7.010  0.3056 -1.1253 -0.3172
   12MOL   H108 4090   2.018   5.513   6.853  0.4644  0.3530 -0.8031
   12MOL   H109 4091   2.086   5.355   6.861 -2.3604  1.2138 -3.1129
   12MOL   C110 4092   2.528   5.867   7.118  1.1436 -0.3721 -0.1377
   12MOL   C111 4093   2.662   5.789   7.120 -0.9567  0.1490 -0.0804
   12MOL   C112 4094   2.752   5.812   7.242  0.0257 -0.4019  0.3216
   12MOL   C113 4095   2.685   5.777   7.372  0.6238 -0.4914  0.1881
   12MOL   C114 4096   2.783   5.763   7.493  0.2912  0.3073  0.3450
   12MOL   C115 4097   2.705   5.772   7.630 -0.5647 -0.7002  0.3586
   12MOL   H116 4098   2.511   5.906   7.017  0.7702  2.4456  0.9573
   12MOL   H117 4099   2.554   5.954   7.179  0.2536 -1.8800  2.4817
   12MOL   H118 4100   2.623   5.687   7.117 -0.7266 -0.0438  2.3389
   12MOL   H119 4101   2.803   5.908   7.243  0.2692 -0.5260  0.0887
   12MOL   H120 4102   2.839   5.745   7.235 -0.8760 -1.5993  0.3806
   12MOL   H121 4103   2.627   5.686   7.368 -2.4521  1.2792  2.1839
   12MOL   H122 4104   2.623   5.862   7.403 -1.8218 -2.2782  0.2977
   12MOL   H123 4105   2.865   5.835   7.495  2.1156 -1.6572 -1.0633
   12MOL   H124 4106   2.839   5.670   7.485 -1.5310 -0.7529 -0.3882
   12MOL   H125 4107   2.761   5.713   7.703  1.0773  0.2020 -0.1455
   12MOL   H126 4108   2.710   5.878   7.656  1.6988 -0.9173  0.9857
   12MOL   H127 4109   2.602   5.739   7.616 -0.7681  0.1923 -0.2676
   12MOL   C128 4110   2.740   5.803   6.987 -0.3036 -0.1699  0.4921
   12MOL   C129 4111   2.682   5.739   6.861 -0.3861  0.7126  0.4915
   12MOL   C130 4112   2.723   5.589   6.846 -0.0678 -0.0933  0.6521
   12MOL   C131 4113   2.619   5.505   6.765  0.1951 -0.5784  0.5642
   12MOL   C132 4114   2.649   5.357   6.750  0.7232 -0.2376  0.2665
   12MOL   C133 4115   2.661   5.291   6.890  0.3591 -0.3099  0.5527
   12MOL   H134 4116   2.841   5.764   7.000 -0.4087 -0.6219 -0.0581
   12MOL   H135 4117   2.760   5.911   6.991  0.5263 -0.3557  2.3252
   12MOL   H136 4118   2.575   5.745   6.880 -0.8516  0.1137 -1.7398
   12MOL   H137 4119   2.821   5.569   6.802 -0.7913  0.9550 -1.5425
   12MOL   H138 4120   2.715   5.539   6.942 -0.8153  1.5848  1.4724
   12MOL   H139 4121   2.612   5.539   6.662  0.0400  1.5324  1.2627
   12MOL   H140 4122   2.516   5.521   6.796 -0.5858  1.3158 -2.8428
   12MOL   H141 4123   2.573   5.298   6.698 -1.1666  1.7015  0.7701
   12MOL   H142 4124   2.734   5.338   6.684 -0.5063 -1.1649 -1.0852
   12MOL   H143 4125   2.592   5.337   6.960  0.5381 -0.2224  0.6722
   12MOL   H144 4126   2.758   5.316   6.932  0.0464  0.5847  0.7635
   12MOL   H145 4127   2.645   5.183   6.885  3.2260 -0.7214 -0.6337
   12MOL   C146 4128   2.712   5.824   6.733 -0.1165 -0.2160 -0.5166
   12MOL   C147 4129   2.635   5.964   6.720  0.0500  0.3266 -0.3657
   12MOL   C148 4130   2.494   5.946   6.653 -0.1668 -0.0910 -0.2384
   12MOL   C149 4131   2.415   6.078   6.659 -0.0213 -0.1961 -0.8974
   12MOL   C150 4132   2.266   6.063   6.614  0.5085  0.0218 -0.0608
   12MOL   C151 4133   2.176   5.992   6.713 -0.6251  0.3303  0.1783
   12MOL   H152 4134   2.816   5.853   6.742 -0.3113  0.9573 -1.9069
   12MOL   H153 4135   2.710   5.763   6.643 -1.2659 -1.2833  0.2053
   12MOL   H154 4136   2.612   6.001   6.820 -0.5006 -0.4948 -0.1758
   12MOL   H155 4137   2.426   5.873   6.697 -0.8254  1.0183  0.6210
   12MOL   H156 4138   2.514   5.914   6.551 -2.4121 -1.0979 -0.3823
   12MOL   H157 4139   2.424   6.110   6.763 -0.7285  0.5451 -1.0616
   12MOL   H158 4140   2.455   6.155   6.593  0.8739  0.4629  0.4055
   12MOL   H159 4141   2.255   6.032   6.510 -1.1079 -0.1641  0.1573
   12MOL   H160 4142   2.230   6.166   6.615 -1.3792 -0.6232  1.7211
   12MOL   H161 4143   2.191   5.884   6.710  0.3768  0.4555  0.6561
   12MOL   H162 4144   2.195   6.018   6.818 -1.2852 -0.7513  0.5746
   12MOL   H163 4145   2.073   6.013   6.683 -0.3900 -0.4142 -1.1664
   12MOL   C164 4146   2.738   6.071   6.647  0.2001  0.8904 -0.6599
   12MOL   C165 4147   2.854   6.129   6.736  0.4360 -0.3941 -0.1020
   12MOL   C166 4148   2.950   6.212   6.651  0.2886 -0.1194 -0.8061
   12MOL   C167 4149   2.883   6.329   6.581  0.3472 -0.2053 -0.7614
   12MOL   C168 4150   2.985   6.437   6.527 -1.0536 -0.6334  0.3464
   12MOL   C169 4151   3.057   6.517   6.642 -0.0215  0.6213  0.0574
   12MOL   H170 4152   2.788   6.037   6.556 -0.1531 -0.5522 -0.3199
   12MOL   H171 4153   2.689   6.164   6.618  1.1531  2.3778  2.2758
   12MOL   H172 4154   2.918   6.051   6.776  1.0302  1.3701  2.5198
   12MOL   H173 4155   2.995   6.146   6.577 -0.1762 -1.0903 -0.2297
   12MOL   H174 4156   3.029   6.255   6.713 -0.6599  3.0816 -1.7478
   12MOL   H175 4157   2.816   6.377   6.653 -0.9163 -1.9811 -0.7323
   12MOL   H176 4158   2.828   6.294   6.494 -0.9718 -0.5275  0.1914
   12MOL   H177 4159   2.936   6.507   6.460 -0.1592 -0.0548  0.2883
   12MOL   H178 4160   3.055   6.387   6.460 -0.1673  1.1914 -0.1233
   12MOL   H179 4161   3.130   6.583   6.596 -0.4810  0.5626 -0.7540
   12MOL   H180 4162   3.098   6.457   6.724 -0.4959 -1.7103 -1.3640
   12MOL   H181 4163   2.984   6.588   6.682  0.3317  0.0070  1.8526
   12MOL   C182 4164   2.798   6.214   6.862 -0.1706  0.2737  0.2689
   12MOL   C183 4165   2.897   6.297   6.946  0.0507 -0.0763  0.3055
   12MOL   C184 4166   3.011   6.204   6.994  0.0763  0.0471 -0.1532
   12MOL   C185 4167   3.138   6.276   7.035 -0.2301 -0.1216  0.3764
   12MOL   C186 4168   3.261   6.186   7.051  0.3600 -0.0175  0.1610
   12MOL   C187 4169   3.371   6.239   7.147 -0.3312 -0.1490 -0.0762
   12MOL   H188 4170   2.720   6.281   6.825 -2.3641 -1.6020  1.4064
   12MOL   H189 4171   2.751   6.145   6.931 -1.4192 -0.9641 -1.7674
   12MOL   H190 4172   2.935   6.372   6.877  0.8308 -2.4902 -1.9816
   12MOL   H191 4173   2.975   6.132   7.067 -1.4303  2.1037  1.1991
   12MOL   H192 4174   3.047   6.153   6.905  2.6234  1.6999 -0.1249
   12MOL   H193 4175   3.113   6.312   7.136 -1.1714  2.2476 -0.6559
   12MOL   H194 4176   3.153   6.360   6.967  0.4604 -0.6245 -0.0920
   12MOL   H195 4177   3.301   6.142   6.960 -2.6070 -1.4748 -0.4854
   12MOL   H196 4178   3.222   6.101   7.107  2.0556 -0.1013  1.2639
   12MOL   H197 4179   3.452   6.166   7.152 -0.9034 -0.8318 -0.6438
   12MOL   H198 4180   3.325   6.265   7.243  0.3059 -1.9313  0.7429
   12MOL   H199 4181   3.413   6.328   7.101  1.4623 -0.3833  1.0532
   12MOL   C200 4182   2.829   6.368   7.067  0.1239 -0.4470  0.0392
   12MOL   C201 4183   2.713   6.470   7.032 -0.3247 -0.2427 -0.2804
   12MOL   C202 4184   2.634   6.516   7.160  0.3262  0.2825  0.2268
   12MOL   C203 4185   2.727   6.573   7.262 -0.1526  0.4004 -0.5979
   12MOL   C204 4186   2.643   6.649   7.378  0.0726  0.9289  0.7065
   12MOL   C205 4187   2.733   6.691   7.501 -0.2283 -0.2534 -0.0536
   12MOL   H206 4188   2.915   6.419   7.110  2.2978 -0.1716 -4.3681
   12MOL   H207 4189   2.785   6.294   7.135  2.5370  0.3904  2.6087
   12MOL   H208 4190   2.644   6.412   6.971 -1.3745  1.0534 -0.3392
   12MOL   H209 4191   2.585   6.430   7.205  0.0250  0.8594  1.0030
   12MOL   H210 4192   2.564   6.597   7.143 -1.3137 -1.1867 -0.2101
   12MOL   H211 4193   2.801   6.643   7.222 -1.2377  0.7593 -2.0265
   12MOL   H212 4194   2.778   6.495   7.318 -0.1273  0.6637 -0.2552
   12MOL   H213 4195   2.560   6.587   7.411  0.1704  0.2836 -0.2202
   12MOL   H214 4196   2.597   6.740   7.337 -0.6692 -0.0528 -0.6829
   12MOL   H215 4197   2.824   6.743   7.470 -0.1636 -0.9854 -1.1056
   12MOL   H216 4198   2.689   6.763   7.571 -0.3416  0.0938 -0.4777
   12MOL   H217 4199   2.763   6.605   7.561 -0.4451 -0.8542 -0.8065
   12MOL   C218 4200   2.762   6.589   6.943 -0.3683  0.4808 -0.2844
   12MOL   C219 4201   2.654   6.669   6.872  0.6921 -0.3641 -0.2591
   12MOL   C220 4202   2.593   6.585   6.755  0.0183 -0.4371 -0.3690
   12MOL   C221 4203   2.467   6.637   6.703  1.1096  0.1909 -0.3067
   12MOL   C222 4204   2.406   6.554   6.591  0.3921 -0.9660  0.6941
   12MOL   C223 4205   2.334   6.436   6.647  0.8375  0.5164 -0.6248
   12MOL   H224 4206   2.816   6.657   7.008  0.3181 -1.9736  1.7967
   12MOL   H225 4207   2.833   6.567   6.863 -0.7904 -0.6831 -0.3564
   12MOL   H226 4208   2.583   6.700   6.949  0.4222  1.7316 -1.3182
   12MOL   H227 4209   2.581   6.484   6.794  3.9899 -1.1361 -0.7247
   12MOL   H228 4210   2.663   6.578   6.671 -0.8606  0.2016 -1.1640
   12MOL   H229 4211   2.487   6.733   6.655  2.3744 -0.2229 -0.6272
   12MOL   H230 4212   2.393   6.650   6.782 -0.0839  1.7096 -1.6238
   12MOL   H231 4213   2.343   6.620   6.532  1.4484  0.4139  1.0636
   12MOL   H232 4214   2.490   6.528   6.527  0.5019  0.2407  0.3333
   12MOL   H233 4215   2.396   6.382   6.719 -0.0888 -0.7133 -0.7268
   12MOL   H234 4216   2.306   6.362   6.572 -0.5171  0.9404 -0.5413
   12MOL   H235 4217   2.243   6.474   6.694  0.2341 -2.3433  0.6615
   12MOL   C236 4218   2.720   6.800   6.808  0.0055 -0.1571  0.0793
   12MOL   C237 4219   2.762   6.910   6.901 -0.3256  0.0342 -0.1741
   12MOL   C238 4220   2.650   6.969   6.989  0.1775 -0.1446 -0.3593
   12MOL   C239 4221   2.707   7.020   7.124  0.5463 -0.1314 -0.9442
   12MOL   C240 4222   2.604   7.081   7.222 -0.3094 -0.1119 -0.2932
   12MOL   C241 4223   2.656   7.107   7.362 -0.2079 -0.0347  0.5509
   12MOL   H242 4224   2.807   6.769   6.751 -0.9843 -1.3006 -0.8340
   12MOL   H243 4225   2.647   6.842   6.738  0.3320 -0.0956 -0.2222
   12MOL   H244 4226   2.832   6.865   6.971 -2.2178 -5.5568 -1.5927
   12MOL   H245 4227   2.594   7.051   6.945 -0.2721  0.0895  0.6460
   12MOL   H246 4228   2.582   6.887   7.009  1.6504 -1.4673 -0.6408
   12MOL   H247 4229   2.782   7.097   7.106 -0.7229  1.3547 -0.0335
   12MOL   H248 4230   2.760   6.937   7.172 -0.1207  0.3212  0.5876
   12MOL   H249 4231   2.557   7.171   7.183 -0.7982 -0.3582 -0.2768
   12MOL   H250 4232   2.523   7.008   7.222 -2.2112  1.9369 -2.0132
   12MOL   H251 4233   2.737   7.179   7.374 -1.0028  0.5947  2.3460
   12MOL   H252 4234   2.576   7.137   7.429 -1.9296  0.2622 -1.5702
   12MOL   H253 4235   2.690   7.012   7.404  0.3787 -0.2101 -0.3114
   12MOL   C254 4236   2.827   7.024   6.816  0.0224 -0.1010 -0.6830
   12MOL   C255 4237   2.962   6.997   6.731  0.7077  0.6787  0.5850
   12MOL   C256 4238   3.076   6.936   6.805 -0.4213  0.3175  0.1761
   12MOL   C257 4239   3.150   7.018   6.912  0.8538  0.0752  0.4260
   12MOL   C258 4240   3.262   6.940   6.991  0.0029  0.7842 -1.1641
   12MOL   C259 4241   3.298   7.008   7.122 -0.3655 -0.0339 -1.3593
   12MOL   H260 4242   2.861   7.100   6.886 -0.7263 -1.2675  0.9899
   12MOL   H261 4243   2.754   7.064   6.746 -0.3799 -1.0562 -0.8164
   12MOL   H262 4244   2.939   6.937   6.643  0.0185  1.7006  0.0518
   12MOL   H263 4245   3.035   6.844   6.849  1.0234 -0.9024 -0.9851
   12MOL   H264 4246   3.149   6.892   6.738 -0.6250 -0.1574  0.2642
   12MOL   H265 4247   3.196   7.108   6.871  0.1650 -0.4177 -1.4945
   12MOL   H266 4248   3.072   7.058   6.978 -1.2785  1.7369 -2.9664
   12MOL   H267 4249   3.342   6.926   6.918  0.3994  0.3016 -0.6387
   12MOL   H268 4250   3.232   6.839   7.019  0.7820  1.2405  1.4063
   12MOL   H269 4251   3.392   6.963   7.153 -0.8150  0.0402  0.1528
   12MOL   H270 4252   3.223   6.990   7.200  0.6449 -1.6814 -0.7404
   12MOL   H271 4253   3.323   7.114   7.115  1.5058 -0.4212 -0.8456
   12MOL   C272 4254   3.013   7.128   6.672 -0.3650 -0.0859  0.5304
   12MOL   C273 4255   3.140   7.127   6.573 -0.5613 -0.9018  0.3358
   12MOL   C274 4256   3.187   7.272   6.541 -0.4158 -0.5981 -0.1181
   12MOL   C275 4257   3.194   7.370   6.664  0.1013 -0.1121 -0.5738
   12MOL   C276 4258   3.294   7.482   6.627 -0.4005  0.0288  0.9504
   12MOL   C277 4259   3.309   7.581   6.740  0.1126  0.5256  0.5221
   12MOL   H278 4260   2.934   7.186   6.624  1.1089  4.1167  2.9395
   12MOL   H279 4261   3.044   7.192   6.754 -1.2640  3.6640 -1.9584
   12MOL   H280 4262   3.212   7.063   6.625 -0.8730 -1.3263  0.2529
   12MOL   H281 4263   3.136   7.321   6.458 -1.5274  0.8175  1.3714
   12MOL   H282 4264   3.289   7.254   6.508 -1.1267 -2.2355 -1.5309
   12MOL   H283 4265   3.235   7.318   6.751 -1.1647 -0.1502  0.0120
   12MOL   H284 4266   3.104   7.417   6.703 -0.4211 -0.6395 -1.1437
   12MOL   H285 4267   3.397   7.450   6.611 -0.9627 -1.8783  1.0932
   12MOL   H286 4268   3.256   7.536   6.541 -0.2959 -0.1536  0.7909
   12MOL   H287 4269   3.208   7.603   6.775 -0.7922 -1.8446 -0.4676
   12MOL   H288 4270   3.381   7.538   6.809  2.0726 -0.1230 -1.8717
   12MOL   H289 4271   3.360   7.670   6.703 -0.2186  1.1194  1.4736
   12MOL   C290 4272   3.127   7.050   6.438  0.1550 -0.6895 -0.2368
   12MOL   C291 4273   3.255   7.031   6.350 -0.6301 -0.8845 -0.5094
   12MOL   C292 4274   3.375   6.968   6.423 -0.5411  0.4782  1.0499
   12MOL   C293 4275   3.352   6.830   6.485  0.4346  0.7503 -0.3114
   12MOL   C294 4276   3.463   6.798   6.586  0.2055 -0.1726  0.1998
   12MOL   C295 4277   3.604   6.808   6.528  0.1520  0.4591  1.3290
   12MOL   H296 4278   3.066   7.107   6.368  1.5060 -0.1759 -1.0160
   12MOL   H297 4279   3.076   6.955   6.449 -1.5281  0.1900 -0.3328
   12MOL   H298 4280   3.278   7.134   6.322  1.2502 -0.9017  0.8689
   12MOL   H299 4281   3.422   7.045   6.483 -1.6382  0.7383  1.5730
   12MOL   H300 4282   3.448   6.958   6.342  0.7523 -1.7665  2.4278
   12MOL   H301 4283   3.268   6.832   6.554  1.3125 -3.4706  1.0746
   12MOL   H302 4284   3.351   6.752   6.409 -1.2098  0.3275  0.1238
   12MOL   H303 4285   3.447   6.697   6.622  1.6928 -0.0800  1.1684
   12MOL   H304 4286   3.463   6.872   6.667  0.9221 -0.8104  0.7915
   12MOL   H305 4287   3.637   6.910   6.511  1.5726 -0.0182  1.1005
   12MOL   H306 4288   3.593   6.756   6.433 -0.1142  0.5835  1.2917
   12MOL   H307 4289   3.678   6.762   6.594 -0.9811 -2.4782  0.6468
   12MOL   C308 4290   3.226   6.959   6.217  0.0433  0.1190  0.6011
   12MOL   C309 4291   3.336   6.968   6.101 -0.4499 -0.6645  0.3747
   12MOL   C310 4292   3.267   7.024   5.977 -0.3933  0.5332 -0.1459
   12MOL   C311 4293   3.180   6.918   5.904 -0.3517 -0.3132 -0.5334
   12MOL   C312 4294   3.090   6.991   5.800 -0.2690  0.5920 -0.0887
   12MOL   C313 4295   2.990   6.897   5.743 -0.4201  0.2476 -0.3217
   12MOL   H314 4296   3.205   6.854   6.236  1.5948 -0.4957 -1.0305
   12MOL   H315 4297   3.123   6.985   6.189  0.5409  0.5643 -0.8279
   12MOL   H316 4298   3.400   7.047   6.139 -1.4163  1.6577 -2.6244
   12MOL   H317 4299   3.335   7.055   5.898 -0.2395  0.5480 -0.0078
   12MOL   H318 4300   3.200   7.103   6.012  0.5883  0.4432  2.0337
   12MOL   H319 4301   3.118   6.852   5.964 -0.1217 -1.5011 -1.5940
   12MOL   H320 4302   3.254   6.863   5.846  0.3918  0.6050 -0.4658
   12MOL   H321 4303   3.049   7.083   5.841 -1.0876 -0.3810  1.3071
   12MOL   H322 4304   3.158   7.016   5.719  1.3930 -0.9825  0.7995
   12MOL   H323 4305   2.928   6.856   5.823 -1.0252  0.0571 -0.8803
   12MOL   H324 4306   3.047   6.817   5.695  1.1889  0.4959  1.1429
   12MOL   H325 4307   2.921   6.941   5.672  1.1318  1.2296 -1.2560
   12MOL   C326 4308   3.409   6.833   6.087 -0.0356 -0.9552  0.5941
   12MOL   C327 4309   3.525   6.842   5.989 -0.3885  0.2359  0.5135
   12MOL   C328 4310   3.655   6.916   6.041  0.7272 -0.4066  0.3339
   12MOL   C329 4311   3.706   6.856   6.171  0.8220  0.0900 -0.0792
   12MOL   C330 4312   3.856   6.899   6.180  0.0490  0.0468  0.7852
   12MOL   C331 4313   3.919   6.831   6.298 -0.3975 -0.0185  0.3784
   12MOL   H332 4314   3.335   6.763   6.049  1.0554 -0.4897 -2.4977
   12MOL   H333 4315   3.446   6.774   6.172  2.5889 -1.2828 -0.7325
   12MOL   H334 4316   3.508   6.916   5.911  0.1534 -1.2941 -1.1037
   12MOL   H335 4317   3.730   6.915   5.962  0.0882 -0.0296 -0.2863
   12MOL   H336 4318   3.644   7.023   6.060  1.8128 -0.4013  1.0013
   12MOL   H337 4319   3.692   6.748   6.178  1.3848  0.1034  1.8159
   12MOL   H338 4320   3.647   6.892   6.255 -2.8801 -3.1229 -1.1992
   12MOL   H339 4321   3.906   6.878   6.086 -1.3634  0.3665 -0.0443
   12MOL   H340 4322   3.848   7.007   6.190  1.7228  0.2307  0.2656
   12MOL   H341 4323   3.943   6.727   6.274  0.8443  0.1516  0.8109
   12MOL   H342 4324   3.863   6.842   6.391  1.1061 -0.9261  1.4266
   12MOL   H343 4325   4.017   6.878   6.313 -1.0449  0.9449  1.6750
   12MOL   C344 4326   3.571   6.700   5.925  0.1059 -0.2173 -0.5420
   12MOL   C345 4327   3.476   6.644   5.822 -0.4743  0.0268 -0.5359
   12MOL   C346 4328   3.500   6.493   5.797 -0.2149  0.3103  0.0979
   12MOL   C347 4329   3.404   6.431   5.692  0.4772  0.5671 -0.3896
   12MOL   C348 4330   3.432   6.275   5.680  0.5788 -0.1054  0.7041
   12MOL   C349 4331   3.576   6.226   5.675 -0.0024 -0.3781 -0.3403
   12MOL   H350 4332   3.666   6.713   5.872  0.9003 -1.3960  0.5835
   12MOL   H351 4333   3.594   6.632   6.006 -1.8551  0.9425  1.0316
   12MOL   H352 4334   3.486   6.696   5.726  0.1617 -0.5705 -0.7903
   12MOL   H353 4335   3.597   6.483   5.748 -1.3726  1.6109 -2.5700
   12MOL   H354 4336   3.494   6.436   5.889  0.3593 -0.0806 -0.1043
   12MOL   H355 4337   3.299   6.448   5.718  0.4865  0.4995 -0.3058
   12MOL   H356 4338   3.418   6.483   5.597  2.6868 -0.8252 -0.8636
   12MOL   H357 4339   3.379   6.230   5.764  1.1947  1.1682  1.7943
   12MOL   H358 4340   3.398   6.247   5.580  0.2656  3.0488 -0.1242
   12MOL   H359 4341   3.626   6.226   5.772 -2.6961  1.4087  1.1039
   12MOL   H360 4342   3.593   6.121   5.650 -1.8646 -0.7635 -0.0115
   12MOL   H361 4343   3.630   6.282   5.599 -1.2528  2.2015  0.6414
   12MOL   H362 4344   3.371   6.654   5.851  0.2201  0.7574  1.8552
   13MOL     C1 4345   3.664   0.050   3.759 -0.0106  0.3183  0.3464
   13MOL     C2 4346   3.748   7.720   3.645  0.4260 -0.5238  0.3566
   13MOL     C3 4347   3.794   0.084   3.535  0.5058 -0.4846  0.1159
   13MOL     C4 4348   3.697   0.147   3.446 -0.7677  0.3869  0.9068
   13MOL     C5 4349   3.759   0.241   3.342  0.2847  0.1120  0.4673
   13MOL     C6 4350   3.658   0.337   3.274  0.7887  0.6019 -0.8574
   13MOL     H7 4351   3.559   0.047   3.729  1.0484  1.1867 -3.8060
   13MOL     H8 4352   3.681   7.718   3.849  1.9917 -0.3105 -0.4164
   13MOL     H9 4353   3.845   7.700   3.691  0.7988  1.0820  0.3213
   13MOL    H10 4354   3.873   0.034   3.480  0.4043 -1.5896  0.9598
   13MOL    H11 4355   3.838   0.172   3.582  0.2518 -1.2209  1.7819
   13MOL    H12 4356   3.614   0.199   3.493 -1.4516  2.0111 -2.0030
   13MOL    H13 4357   3.658   0.061   3.393  1.6362  0.3955 -0.9603
   13MOL    H14 4358   3.838   0.303   3.384 -0.8267  1.6181  0.4115
   13MOL    H15 4359   3.816   0.184   3.269  0.2389 -0.0955  0.5956
   13MOL    H16 4360   3.696   0.383   3.182  2.6418 -1.0781 -0.9611
   13MOL    H17 4361   3.640   0.413   3.350  3.0094 -0.8230  1.1551
   13MOL    H18 4362   3.561   0.289   3.259 -1.1143  4.1168 -0.3143
   13MOL    H19 4363   3.687   0.153   3.783 -0.6777  0.0868  1.9993
   13MOL    C20 4364   3.689   7.590   3.586 -0.9290  0.0674 -0.5423
   13MOL    C21 4365   3.760   7.503   3.486 -0.0652 -0.2218 -0.1577
   13MOL    C22 4366   3.905   7.475   3.527  0.0684 -0.5562 -0.1641
   13MOL    C23 4367   3.935   7.418   3.668  0.6356 -0.1017 -0.7551
   13MOL    C24 4368   4.086   7.421   3.704  0.1643 -0.7162  0.2289
   13MOL    C25 4369   4.122   7.392   3.850 -0.6583 -0.4229  0.0563
   13MOL    H26 4370   3.597   7.626   3.540 -1.0738  2.5755  1.5830
   13MOL    H27 4371   3.663   7.520   3.665  0.8728 -0.0089  0.0169
   13MOL    H28 4372   3.775   7.540   3.384  0.7642  2.8647  1.0287
   13MOL    H29 4373   3.958   7.570   3.523  0.0446 -0.5455 -0.2088
   13MOL    H30 4374   3.945   7.396   3.463 -0.2628 -1.6130  0.9065
   13MOL    H31 4375   3.890   7.319   3.674 -2.4895  1.2191 -1.5043
   13MOL    H32 4376   3.892   7.479   3.747  3.2290 -1.2379  1.6155
   13MOL    H33 4377   4.133   7.350   3.636  0.5405 -2.6515  2.4242
   13MOL    H34 4378   4.137   7.514   3.680 -0.6136 -0.4776 -0.5118
   13MOL    H35 4379   4.097   7.291   3.884 -0.5187  0.0351  1.5750
   13MOL    H36 4380   4.231   7.391   3.860 -0.5164  0.8950 -1.2650
   13MOL    H37 4381   4.075   7.468   3.912  1.1652  1.6864 -1.0781
   13MOL    C38 4382   3.679   7.375   3.477 -0.1948 -0.4767  0.1704
   13MOL    C39 4383   3.539   7.364   3.411  0.0186 -0.1231  0.0931
   13MOL    C40 4384   3.530   7.404   3.262 -0.1063 -0.5008 -0.2013
   13MOL    C41 4385   3.599   7.303   3.160  0.0200 -0.1035  0.1595
   13MOL    C42 4386   3.595   7.357   3.021 -0.3890  0.1760  0.1050
   13MOL    C43 4387   3.620   7.250   2.912  0.1963 -0.4847  0.4978
   13MOL    H44 4388   3.677   7.333   3.578  1.3454 -0.8121  0.0728
   13MOL    H45 4389   3.726   7.308   3.405  1.0926  0.1231  0.4297
   13MOL    H46 4390   3.484   7.443   3.464  2.3540 -0.2617  2.8686
   13MOL    H47 4391   3.427   7.408   3.228 -0.8432  0.3145  2.0209
   13MOL    H48 4392   3.578   7.502   3.255 -0.2313 -0.5567 -1.9708
   13MOL    H49 4393   3.702   7.278   3.186  0.2631  0.8163  0.1133
   13MOL    H50 4394   3.547   7.207   3.163  0.5245 -0.3739  0.1704
   13MOL    H51 4395   3.495   7.398   3.005 -0.7557 -1.1517 -1.1034
   13MOL    H52 4396   3.668   7.438   3.023  1.5622 -1.4788 -1.3991
   13MOL    H53 4397   3.531   7.188   2.906  0.1080 -0.1168 -3.0640
   13MOL    H54 4398   3.716   7.201   2.928 -0.4013 -1.3070  1.5988
   13MOL    H55 4399   3.630   7.298   2.815  1.0528 -1.0391  0.3013
   13MOL    C56 4400   3.479   7.225   3.436  0.8399 -0.1570  0.4990
   13MOL    C57 4401   3.381   7.216   3.549 -0.0543  0.3056 -0.3377
   13MOL    C58 4402   3.407   7.095   3.645  0.4559 -0.3643  0.6252
   13MOL    C59 4403   3.383   6.953   3.581 -0.1805  0.3527 -0.1457
   13MOL    C60 4404   3.464   6.845   3.655  0.9463 -0.1140  0.0029
   13MOL    C61 4405   3.445   6.842   3.807 -0.5791  0.3135 -0.2881
   13MOL    H62 4406   3.436   7.194   3.341  1.1065  0.2835  0.2286
   13MOL    H63 4407   3.569   7.164   3.449  0.8636 -0.8714 -2.6538
   13MOL    H64 4408   3.413   7.300   3.611  1.3627 -1.0470  0.8054
   13MOL    H65 4409   3.508   7.096   3.686  0.0975 -0.5107  1.5206
   13MOL    H66 4410   3.349   7.091   3.738  0.5908 -2.0701  0.6589
   13MOL    H67 4411   3.417   6.954   3.478  1.2466 -0.6755  0.3024
   13MOL    H68 4412   3.279   6.922   3.577 -0.4750  1.0308  1.7113
   13MOL    H69 4413   3.424   6.751   3.617 -2.9414  1.9466 -1.2545
   13MOL    H70 4414   3.570   6.855   3.631  0.6785  0.7158 -0.8575
   13MOL    H71 4415   3.341   6.861   3.836 -0.2451 -2.0689  2.6883
   13MOL    H72 4416   3.474   6.755   3.865 -2.9071 -1.5038 -1.7490
   13MOL    H73 4417   3.500   6.922   3.857 -0.3820  1.5462 -2.3933
   13MOL    C74 4418   3.225   7.236   3.510 -0.1991  0.8950 -0.0813
   13MOL    C75 4419   3.186   7.394   3.484  0.3725  0.6926  0.4030
   13MOL    C76 4420   3.052   7.411   3.403  1.0971  0.8841  0.5785
   13MOL    C77 4421   3.060   7.361   3.261 -0.6596 -0.1396 -0.1734
   13MOL    C78 4422   2.979   7.459   3.167 -0.7028  0.2130  0.2371
   13MOL    C79 4423   2.975   7.409   3.023 -0.1045 -0.0743  0.3512
   13MOL    H80 4424   3.216   7.180   3.417 -0.5510 -0.2426  0.6254
   13MOL    H81 4425   3.158   7.195   3.586 -2.7892  2.0381 -1.6881
   13MOL    H82 4426   3.270   7.446   3.438  1.1898 -0.5169  0.4714
   13MOL    H83 4427   2.961   7.371   3.448  1.5440  0.2501  0.9214
   13MOL    H84 4428   3.046   7.519   3.392  2.0255  0.9378  0.5798
   13MOL    H85 4429   3.164   7.363   3.232 -0.2629 -0.5246  1.1569
   13MOL    H86 4430   3.018   7.261   3.251 -1.4096  0.1705 -0.1546
   13MOL    H87 4431   3.012   7.563   3.168  1.0250 -0.3290  0.2075
   13MOL    H88 4432   2.878   7.462   3.209 -1.2625 -1.5895 -0.9665
   13MOL    H89 4433   3.073   7.429   2.981 -1.0650  2.5268 -0.7955
   13MOL    H90 4434   2.956   7.302   3.017 -1.8371  0.2281  0.1991
   13MOL    H91 4435   2.898   7.458   2.963  2.4421  0.2149 -2.7895
   13MOL    C92 4436   3.170   7.460   3.625  0.3519 -0.1382  0.0702
   13MOL    C93 4437   3.132   7.606   3.650  0.1941  0.2563 -0.2209
   13MOL    C94 4438   3.104   7.650   3.799  0.3814  0.2780  0.2321
   13MOL    C95 4439   3.218   7.601   3.895  0.1921 -0.6716  0.1013
   13MOL    C96 4440   3.188   7.655   4.042 -0.4497 -0.2346  0.2304
   13MOL    C97 4441   3.305   7.643   4.148 -0.3422  0.5083  1.3343
   13MOL    H98 4442   3.087   7.402   3.667  0.1740  0.1516  0.1213
   13MOL    H99 4443   3.262   7.450   3.682 -0.3680 -1.9566  0.9615
   13MOL   H100 4444   3.039   7.621   3.596 -0.5059  1.1950  1.2100
   13MOL   H101 4445   3.008   7.614   3.836  0.4077  1.0665  1.1027
   13MOL   H102 4446   3.094   0.031   3.791 -2.6307  0.0259  0.3348
   13MOL   H103 4447   3.233   7.493   3.893  0.9136 -0.5673 -0.2783
   13MOL   H104 4448   3.301   7.659   3.855  0.4794 -0.1106  1.4812
   13MOL   H105 4449   3.181   0.036   4.030  0.2664 -0.2566 -0.4095
   13MOL   H106 4450   3.092   7.621   4.082  0.7647 -0.6562  2.8768
   13MOL   H107 4451   3.381   7.715   4.118 -0.5584  0.6131  1.0313
   13MOL   H108 4452   3.272   7.661   4.251 -1.2664  1.8337  0.8215
   13MOL   H109 4453   3.333   7.538   4.150  0.0816  0.6318  2.4947
   13MOL   C110 4454   3.241   7.706   3.588  0.0167  0.1839  0.4510
   13MOL   C111 4455   3.181   0.057   3.462 -0.1455  0.2201 -0.1219
   13MOL   C112 4456   3.302   0.125   3.382  0.1480 -0.1533 -0.3528
   13MOL   C113 4457   3.296   0.124   3.233  0.0850  0.0430  0.4643
   13MOL   C114 4458   3.307   7.705   3.173  0.5996  0.5047 -0.3752
   13MOL   C115 4459   3.322   7.696   3.016 -0.6954 -0.1070 -0.0283
   13MOL   H116 4460   3.267   0.050   3.667  1.6161 -0.1825  0.2691
   13MOL   H117 4461   3.330   7.647   3.563 -0.4846 -0.7778  0.9168
   13MOL   H118 4462   3.140   7.709   3.395 -0.1903  0.6263 -0.5465
   13MOL   H119 4463   3.386   0.060   3.402 -0.8200 -1.6182 -0.9700
   13MOL   H120 4464   3.340   0.211   3.436  0.8885 -0.4342 -0.4263
   13MOL   H121 4465   3.386   0.174   3.198 -0.5746  0.7493 -0.2276
   13MOL   H122 4466   3.214   0.190   3.207  0.4501  0.4405  0.3315
   13MOL   H123 4467   3.212   7.659   3.201  0.5749  0.3359 -0.7305
   13MOL   H124 4468   3.383   7.646   3.223 -0.2214 -0.4970 -0.3097
   13MOL   H125 4469   3.374   7.603   2.990 -3.4194 -1.7643  0.2692
   13MOL   H126 4470   3.222   7.689   2.972  0.0642 -3.1037 -1.4451
   13MOL   H127 4471   3.369   0.058   2.974 -0.1995  0.5348  1.8309
   13MOL   C128 4472   3.069   0.150   3.506 -0.2306 -0.0470  0.3165
   13MOL   C129 4473   2.976   0.206   3.390  0.3525  0.2279 -0.0886
   13MOL   C130 4474   2.924   0.353   3.430 -0.1416  0.6644  0.4359
   13MOL   C131 4475   3.009   0.469   3.372 -0.2394 -0.2939 -0.3841
   13MOL   C132 4476   3.154   0.479   3.419  0.0990  0.2846 -0.4567
   13MOL   C133 4477   3.204   0.619   3.383  0.0245  0.1723  0.6458
   13MOL   H134 4478   3.113   0.237   3.556  0.7558 -0.8284  0.8323
   13MOL   H135 4479   3.003   0.095   3.574  1.0774  1.1362  2.6386
   13MOL   H136 4480   3.036   0.216   3.300  1.4263 -0.8178  0.5060
   13MOL   H137 4481   2.827   0.364   3.382  1.1148 -0.1902 -2.4005
   13MOL   H138 4482   2.907   0.365   3.537  3.3926  0.4390  1.0904
   13MOL   H139 4483   2.962   0.568   3.376  1.5681  0.6396 -1.5419
   13MOL   H140 4484   3.008   0.463   3.263 -0.0338 -0.7354 -0.3633
   13MOL   H141 4485   3.164   0.470   3.528 -2.9569  1.9980  0.0240
   13MOL   H142 4486   3.210   0.394   3.381  0.6118  0.2283  0.4030
   13MOL   H143 4487   3.186   0.653   3.281 -2.0200  1.8025  1.5195
   13MOL   H144 4488   3.311   0.631   3.401 -0.1231  0.9894  1.0087
   13MOL   H145 4489   3.152   0.693   3.444 -0.7280  0.8853 -0.8327
   13MOL   C146 4490   2.855   0.107   3.373 -0.0523  0.2661 -0.5522
   13MOL   C147 4491   2.759   0.129   3.255 -0.8869 -0.1387 -0.0436
   13MOL   C148 4492   2.627   0.065   3.276  0.5447 -0.2607 -0.9830
   13MOL   C149 4493   2.533   0.129   3.381 -0.1839 -0.7878 -0.8778
   13MOL   C150 4494   2.436   0.026   3.434  0.5869  0.4491  0.6238
   13MOL   C151 4495   2.317   7.722   3.346 -0.0029 -0.0723 -0.2266
   13MOL   H152 4496   2.897   0.007   3.365 -0.2697 -0.0043  1.4133
   13MOL   H153 4497   2.807   0.103   3.471 -0.0085  0.9992 -0.4932
   13MOL   H154 4498   2.739   0.236   3.250 -1.0193 -0.1819 -0.4282
   13MOL   H155 4499   2.641   7.686   3.297 -0.2573  0.0616  1.4068
   13MOL   H156 4500   2.581   0.056   3.178  0.0373 -4.6185 -0.4382
   13MOL   H157 4501   2.598   0.148   3.467 -1.7978 -0.1439  0.2384
   13MOL   H158 4502   2.481   0.221   3.353 -3.5590 -2.2489  0.3474
   13MOL   H159 4503   2.393   0.053   3.530  0.6069 -1.1408  1.0984
   13MOL   H160 4504   2.479   7.657   3.464  0.4913  0.1272 -0.2313
   13MOL   H161 4505   2.348   7.668   3.257 -4.3387 -2.4408 -0.3788
   13MOL   H162 4506   2.245   7.659   3.398 -0.7309  1.1188  0.2342
   13MOL   H163 4507   2.265   0.081   3.304 -0.2846 -0.6590 -1.0869
   13MOL   C164 4508   2.838   0.098   3.127  0.6259  0.0297  0.2284
   13MOL   C165 4509   2.800   0.175   3.001 -0.8460  0.6249  0.4679
   13MOL   C166 4510   2.792   0.327   3.016  0.0242  0.2656  0.1684
   13MOL   C167 4511   2.654   0.378   2.982  0.0206 -0.1632  0.5736
   13MOL   C168 4512   2.639   0.534   2.974 -0.1939  0.4053 -0.2633
   13MOL   C169 4513   2.497   0.578   2.941  0.2146 -0.6357 -0.2783
   13MOL   H170 4514   2.946   0.113   3.136  0.4519  0.8766  0.9878
   13MOL   H171 4515   2.830   7.718   3.113  0.0606  0.2544 -1.3169
   13MOL   H172 4516   2.702   0.130   2.989 -0.6370 -0.0619  1.2937
   13MOL   H173 4517   2.859   0.383   2.950  0.9633 -0.7244  0.2818
   13MOL   H174 4518   2.824   0.361   3.115 -2.1803  1.7524  0.3886
   13MOL   H175 4519   2.583   0.325   3.046  1.1306 -2.4718 -0.0482
   13MOL   H176 4520   2.631   0.346   2.880 -1.6145  0.9083  0.5792
   13MOL   H177 4521   2.707   0.573   2.898  1.6792  0.3633  1.3568
   13MOL   H178 4522   2.660   0.570   3.075 -0.4693  1.0116 -0.4215
   13MOL   H179 4523   2.490   0.681   2.976  0.0009 -0.7322 -0.0308
   13MOL   H180 4524   2.424   0.520   2.998 -1.0736 -1.7634 -2.9750
   13MOL   H181 4525   2.479   0.578   2.834 -1.4040 -0.1345 -0.0150
   13MOL   C182 4526   2.899   0.120   2.889  0.0969  0.2154  0.1096
   13MOL   C183 4527   2.868   0.148   2.742 -0.4480 -0.7120  0.7387
   13MOL   C184 4528   2.724   0.094   2.697  0.4461 -0.2435  0.3665
   13MOL   C185 4529   2.706   7.672   2.725 -0.1816 -0.1058  0.6169
   13MOL   C186 4530   2.562   7.619   2.680  0.0657  0.4765  0.2775
   13MOL   C187 4531   2.555   7.472   2.659  0.7112  0.1623  0.4681
   13MOL   H188 4532   2.996   0.165   2.911 -0.6879  2.2205 -0.4851
   13MOL   H189 4533   2.918   0.013   2.894 -0.7367 -0.0511 -1.8278
   13MOL   H190 4534   2.851   0.255   2.730 -2.2763 -1.0586  0.1532
   13MOL   H191 4535   2.653   0.150   2.757 -0.1565  0.6054 -1.1083
   13MOL   H192 4536   2.692   0.119   2.596  1.6304 -0.5991 -0.1123
   13MOL   H193 4537   2.727   7.640   2.827 -1.5882  0.4941  1.0994
   13MOL   H194 4538   2.784   7.624   2.665 -0.6894  0.7158 -0.7208
   13MOL   H195 4539   2.535   7.657   2.581  0.1446  1.7934  0.7529
   13MOL   H196 4540   2.493   7.650   2.759 -0.3048  1.8519 -0.5888
   13MOL   H197 4541   2.455   7.428   2.663  0.7416  0.0217 -0.2754
   13MOL   H198 4542   2.613   7.427   2.739 -0.8447 -2.9392 -0.0796
   13MOL   H199 4543   2.592   7.445   2.560  1.5481  0.0097  0.8225
   13MOL   C200 4544   2.978   0.111   2.639 -0.5893  0.8835 -0.6387
   13MOL   C201 4545   2.956   0.143   2.479  0.2230 -0.6108  0.5680
   13MOL   C202 4546   2.939   0.295   2.459  0.6841  0.6129  0.0606
   13MOL   C203 4547   2.893   0.359   2.326  0.1792  0.6622 -0.4271
   13MOL   C204 4548   2.919   0.513   2.335 -0.0058  0.5401  0.4437
   13MOL   C205 4549   2.840   0.590   2.235 -0.0187  0.1583  0.2557
   13MOL   H206 4550   3.013   0.009   2.653  2.0895  1.6675 -1.3563
   13MOL   H207 4551   3.066   0.168   2.670  0.6016 -2.2067  1.9623
   13MOL   H208 4552   2.858   0.099   2.457 -0.0823 -0.3823  1.4432
   13MOL   H209 4553   3.028   0.348   2.495  0.2739  0.9073  0.6446
   13MOL   H210 4554   2.874   0.346   2.530 -0.2273  0.8707 -0.9534
   13MOL   H211 4555   2.786   0.342   2.310  0.0378  1.2739 -0.1366
   13MOL   H212 4556   2.936   0.325   2.232  1.0137 -1.9512  0.8408
   13MOL   H213 4557   3.026   0.527   2.315  0.3453 -0.8753  1.2407
   13MOL   H214 4558   2.906   0.555   2.434 -3.0707 -0.1659  0.3805
   13MOL   H215 4559   2.737   0.555   2.225 -0.8999  2.0667  2.3641
   13MOL   H216 4560   2.838   0.692   2.273  0.2323 -0.6662  2.5801
   13MOL   H217 4561   2.881   0.598   2.134 -2.2348 -0.1327 -0.7057
   13MOL   C218 4562   3.073   0.090   2.394  0.2305 -0.8634 -0.1463
   13MOL   C219 4563   3.055   7.663   2.361  0.4446 -0.2278  0.8533
   13MOL   C220 4564   3.182   7.578   2.359 -0.7693  0.3699 -0.2299
   13MOL   C221 4565   3.246   7.564   2.498 -0.1383 -0.2273 -0.2671
   13MOL   C222 4566   3.182   7.464   2.589  0.0097  0.1926  0.2193
   13MOL   C223 4567   3.267   7.424   2.711  0.0304 -0.3615  0.3523
   13MOL   H224 4568   3.082   0.131   2.294 -0.9898 -1.0934 -0.3615
   13MOL   H225 4569   3.163   0.110   2.451  0.2288 -0.6009 -0.2401
   13MOL   H226 4570   2.997   7.617   2.441 -0.1778 -0.4714  0.2612
   13MOL   H227 4571   3.267   7.603   2.296 -0.2755  0.2642  0.3937
   13MOL   H228 4572   3.169   7.474   2.329  1.6554 -0.1767  0.4954
   13MOL   H229 4573   3.281   7.652   2.551  0.3241  0.4309 -1.6495
   13MOL   H230 4574   3.338   7.510   2.476  1.2721  2.4056 -1.0054
   13MOL   H231 4575   3.091   7.511   2.625 -0.2096  1.0486 -1.3705
   13MOL   H232 4576   3.155   7.382   2.523  0.9185 -0.3993  0.5797
   13MOL   H233 4577   3.262   7.508   2.781  0.6551  0.1609 -0.2133
   13MOL   H234 4578   3.372   7.404   2.688  0.2815  0.3930  0.8100
   13MOL   H235 4579   3.220   7.339   2.761 -3.5203 -0.3690 -2.7805
   13MOL   C236 4580   2.964   7.649   2.236 -0.0204 -0.1293  0.5852
   13MOL   C237 4581   2.941   7.507   2.175 -0.7417  0.2961  0.5346
   13MOL   C238 4582   2.838   7.528   2.055 -0.5702  0.3257 -0.7099
   13MOL   C239 4583   2.904   7.554   1.922 -0.1386 -0.2659  0.7742
   13MOL   C240 4584   2.809   7.525   1.801  0.1023  0.4585  0.0653
   13MOL   C241 4585   2.891   7.553   1.675 -0.4059  0.1704 -0.2308
   13MOL   H242 4586   2.875   7.710   2.245 -0.4304 -0.6707  0.2688
   13MOL   H243 4587   3.015   7.703   2.156  0.8813 -2.2849 -0.3548
   13MOL   H244 4588   3.034   7.474   2.129 -1.2098  1.1234 -1.0646
   13MOL   H245 4589   2.789   7.433   2.032 -0.4058  0.0095  0.2281
   13MOL   H246 4590   2.759   7.600   2.076 -0.6291  0.5977 -1.8086
   13MOL   H247 4591   2.984   7.483   1.904 -0.8271 -0.6888 -0.7288
   13MOL   H248 4592   2.938   7.658   1.924 -1.5972  0.2576 -0.8992
   13MOL   H249 4593   2.781   7.420   1.810  3.2351 -0.3907  0.4974
   13MOL   H250 4594   2.720   7.586   1.810  0.0598  0.0683  3.1090
   13MOL   H251 4595   2.833   7.586   1.589 -2.0239 -0.3683  0.6102
   13MOL   H252 4596   2.957   7.637   1.696 -0.6418  0.4818 -0.7346
   13MOL   H253 4597   2.966   7.479   1.649  1.2640  1.7925 -0.0742
   13MOL   C254 4598   2.888   7.406   2.280  0.3081 -0.3696  0.3679
   13MOL   C255 4599   2.895   7.255   2.250 -0.1542  0.3064  0.2728
   13MOL   C256 4600   2.804   7.172   2.350  0.3706  0.0484  0.1823
   13MOL   C257 4601   2.854   7.141   2.489 -0.0882 -0.2244 -0.2642
   13MOL   C258 4602   2.759   7.062   2.583  0.4560 -0.0902 -0.1905
   13MOL   C259 4603   2.816   7.059   2.721 -0.0323  0.4368  0.7156
   13MOL   H260 4604   2.785   7.434   2.301  0.9284  1.3254  1.2348
   13MOL   H261 4605   2.925   7.408   2.382  0.1534  1.8491  0.4076
   13MOL   H262 4606   2.857   7.241   2.148 -0.5492  1.0102  0.3213
   13MOL   H263 4607   2.717   7.237   2.355  0.9456  1.0498 -2.2786
   13MOL   H264 4608   2.774   7.077   2.306  1.5481 -0.6413  0.8321
   13MOL   H265 4609   2.944   7.080   2.478  0.5178  0.6215 -0.0938
   13MOL   H266 4610   2.882   7.233   2.540 -1.7756  1.0551 -1.5884
   13MOL   H267 4611   2.750   6.963   2.537 -1.1279 -0.3751  0.6765
   13MOL   H268 4612   2.652   7.082   2.574  0.4108 -0.0899  0.3341
   13MOL   H269 4613   2.920   7.029   2.716 -0.1509 -0.2510  2.2662
   13MOL   H270 4614   2.771   6.984   2.786 -0.8659  0.0920 -0.2460
   13MOL   H271 4615   2.803   7.158   2.765 -1.4832 -0.0019  1.3001
   13MOL   C272 4616   3.038   7.205   2.242 -0.0292  0.6908  0.8304
   13MOL   C273 4617   3.069   7.084   2.163 -0.8213  0.9710 -0.3973
   13MOL   C274 4618   3.050   7.100   2.010 -0.2858  0.1884  1.2424
   13MOL   C275 4619   3.133   7.207   1.945 -0.8522 -0.1917  0.8707
   13MOL   C276 4620   3.093   7.213   1.792 -0.1638 -0.2413 -0.7514
   13MOL   C277 4621   3.192   7.287   1.703  0.2148 -0.6253  0.2396
   13MOL   H278 4622   3.102   7.285   2.205 -1.4701  1.9946  1.0907
   13MOL   H279 4623   3.071   7.187   2.344 -1.1918 -1.3739  0.8798
   13MOL   H280 4624   3.173   7.059   2.181 -0.7775  0.7129 -0.9933
   13MOL   H281 4625   2.944   7.112   1.987 -0.2298 -2.8158 -0.9295
   13MOL   H282 4626   3.082   7.004   1.969 -1.0252 -0.0354  1.1761
   13MOL   H283 4627   3.238   7.182   1.948 -0.8971 -0.4524  0.3272
   13MOL   H284 4628   3.110   7.304   1.989  0.2336  0.5911 -0.2602
   13MOL   H285 4629   3.094   7.115   1.743 -0.3803 -0.9181  0.5643
   13MOL   H286 4630   2.991   7.249   1.777  0.2129  0.4868 -1.5483
   13MOL   H287 4631   3.180   7.395   1.716 -1.3286 -0.7643  0.0322
   13MOL   H288 4632   3.294   7.256   1.727  0.2309 -1.6261 -1.0829
   13MOL   H289 4633   3.172   7.261   1.599  0.9146  0.5316 -0.1913
   13MOL   C290 4634   3.011   6.944   2.208 -0.7236 -0.2231  0.1883
   13MOL   C291 4635   3.064   6.807   2.157  0.1393  0.0670 -0.8567
   13MOL   C292 4636   3.214   6.770   2.174 -0.5502  0.0302 -0.7035
   13MOL   C293 4637   3.302   6.804   2.051  0.0926  0.0386  0.5796
   13MOL   C294 4638   3.449   6.750   2.055 -0.1402  0.3338  0.2527
   13MOL   C295 4639   3.518   6.725   1.925 -0.3099 -0.3049 -0.4363
   13MOL   H296 4640   2.905   6.944   2.182 -0.2606  2.0691 -1.9947
   13MOL   H297 4641   3.018   6.947   2.317 -2.3935 -0.3011  0.3104
   13MOL   H298 4642   3.051   6.812   2.049 -3.2870  1.6714 -0.4542
   13MOL   H299 4643   3.240   6.666   2.193  1.3027  0.2913 -1.6887
   13MOL   H300 4644   3.254   6.821   2.261  0.0824 -0.6043 -0.6192
   13MOL   H301 4645   3.263   6.760   1.960  0.8374  0.5156  0.0152
   13MOL   H302 4646   3.304   6.912   2.038 -1.0928  0.0253  0.2567
   13MOL   H303 4647   3.446   6.658   2.115 -2.3447 -0.1705 -0.6201
   13MOL   H304 4648   3.510   6.820   2.112 -0.8045  1.0862  0.0487
   13MOL   H305 4649   3.462   6.655   1.863 -1.6956 -0.2457  0.7242
   13MOL   H306 4650   3.616   6.678   1.937  0.0785  1.2409  2.9611
   13MOL   H307 4651   3.531   6.818   1.869 -1.0285 -0.2446 -0.5067
   13MOL   C308 4652   2.967   6.692   2.196 -0.0082  0.6796 -0.5109
   13MOL   C309 4653   2.986   6.562   2.107  0.1148 -0.0389 -0.0834
   13MOL   C310 4654   2.902   6.560   1.972  0.0984  0.7914  0.6979
   13MOL   C311 4655   2.954   6.463   1.863  0.6931 -0.0619  0.1164
   13MOL   C312 4656   2.859   6.461   1.744 -0.4892  0.2920 -0.0427
   13MOL   C313 4657   2.919   6.399   1.618  0.9738 -0.2240 -0.4086
   13MOL   H314 4658   2.999   6.673   2.298 -1.1192 -0.8847 -0.4411
   13MOL   H315 4659   2.862   6.719   2.197 -0.0008  0.7070 -0.4812
   13MOL   H316 4660   3.093   6.551   2.094  0.0270 -0.6395 -0.3096
   13MOL   H317 4661   2.909   6.657   1.923  2.0715  0.6075  0.6035
   13MOL   H318 4662   2.795   6.555   1.991  0.5897  0.3293  3.5441
   13MOL   H319 4663   2.965   6.359   1.895 -0.9345 -0.3280 -0.1353
   13MOL   H320 4664   3.054   6.491   1.829  0.3417 -1.0727 -1.8365
   13MOL   H321 4665   2.770   6.403   1.770 -1.0946  1.5251  0.6504
   13MOL   H322 4666   2.824   6.562   1.723 -1.0676 -0.1504 -1.2910
   13MOL   H323 4667   2.866   6.435   1.529  2.2884  0.0875 -1.0774
   13MOL   H324 4668   2.909   6.291   1.624 -1.9782 -0.1543 -2.7941
   13MOL   H325 4669   3.025   6.423   1.613  0.9055 -0.0738 -1.2471
   13MOL   C326 4670   2.954   6.437   2.188 -0.8806 -0.3224  0.5402
   13MOL   C327 4671   3.054   6.403   2.301  0.0557  0.3002  0.2216
   13MOL   C328 4672   2.992   6.316   2.413  0.2076  0.2159  0.3091
   13MOL   C329 4673   2.899   6.390   2.504  0.5028 -0.0127 -0.1763
   13MOL   C330 4674   2.830   6.302   2.610  0.1747 -0.2063  0.0194
   13MOL   C331 4675   2.739   6.378   2.711  0.2027 -0.0272  0.7478
   13MOL   H332 4676   2.945   6.356   2.115  0.2281  0.4249 -0.4490
   13MOL   H333 4677   2.852   6.458   2.218 -1.0949 -1.6671  0.8114
   13MOL   H334 4678   3.078   6.501   2.344  0.0389  1.1971 -1.7443
   13MOL   H335 4679   2.941   6.239   2.356  0.7562  0.3298 -0.3379
   13MOL   H336 4680   3.063   6.262   2.474  0.4139 -0.7625 -0.7795
   13MOL   H337 4681   2.812   6.433   2.454 -0.3719  0.4046  1.6615
   13MOL   H338 4682   2.956   6.473   2.544 -0.8274  1.9822 -2.2974
   13MOL   H339 4683   2.771   6.225   2.560 -0.6976 -0.4145  1.3412
   13MOL   H340 4684   2.908   6.248   2.663  0.7327  2.0223  1.5401
   13MOL   H341 4685   2.799   6.426   2.788  2.2014  0.3379 -0.9592
   13MOL   H342 4686   2.665   6.312   2.756 -0.9933 -0.6345 -1.9737
   13MOL   H343 4687   2.668   6.442   2.659 -0.7226 -1.1518  0.6145
   13MOL   C344 4688   3.179   6.337   2.244  0.1625 -0.2884 -0.2385
   13MOL   C345 4689   3.307   6.358   2.338 -0.2714  0.0599  0.6727
   13MOL   C346 4690   3.441   6.291   2.285  0.1659 -0.1048 -0.0390
   13MOL   C347 4691   3.556   6.301   2.385  0.2416 -0.0854 -0.0307
   13MOL   C348 4692   3.665   6.190   2.374 -0.0659  0.0660  0.3362
   13MOL   C349 4693   3.753   6.192   2.494  0.0146 -0.3854  0.1815
   13MOL   H350 4694   3.155   6.231   2.234 -1.3298  0.1352 -1.1364
   13MOL   H351 4695   3.197   6.363   2.140 -1.4427 -1.1826 -0.7584
   13MOL   H352 4696   3.291   6.303   2.430 -2.4466 -2.6119 -1.2022
   13MOL   H353 4697   3.418   6.186   2.271 -1.1971  0.1873 -0.0551
   13MOL   H354 4698   3.476   6.330   2.189 -1.1566 -1.0098 -0.8934
   13MOL   H355 4699   3.604   6.397   2.365  0.4475  0.2280  1.8695
   13MOL   H356 4700   3.509   6.294   2.483 -1.3114  0.4872 -0.7154
   13MOL   H357 4701   3.626   6.088   2.363  0.2433 -0.1434  1.1469
   13MOL   H358 4702   3.725   6.210   2.285 -3.6423  0.7865 -2.0240
   13MOL   H359 4703   3.798   6.291   2.497 -0.8518  0.1300 -2.7956
   13MOL   H360 4704   3.694   6.173   2.584 -0.6788  2.7115  0.4287
   13MOL   H361 4705   3.838   6.123   2.496  1.0447  0.8718  0.3235
   13MOL   H362 4706   3.329   6.461   2.367  1.4948 -0.2846  0.6032
   14MOL     C1 4707   6.682   2.392   1.733 -0.6311 -0.2526  0.2392
   14MOL     C2 4708   6.607   2.526   1.700 -0.1374  0.2587  0.3412
   14MOL     C3 4709   6.639   2.573   1.562  0.1543 -0.3110  0.7680
   14MOL     C4 4710   6.781   2.633   1.534 -0.6939  0.1877 -0.0999
   14MOL     C5 4711   6.787   2.706   1.401 -0.5986  0.0945  0.3989
   14MOL     C6 4712   6.926   2.778   1.390 -0.1605 -0.0940  0.3568
   14MOL     H7 4713   6.788   2.408   1.754 -0.7078  2.2912 -1.1011
   14MOL     H8 4714   6.638   2.331   1.811 -1.7725 -2.4601 -2.0884
   14MOL     H9 4715   6.502   2.509   1.680 -0.1540  0.9528 -0.1627
   14MOL    H10 4716   6.567   2.649   1.533 -1.1127 -1.0423  1.9062
   14MOL    H11 4717   6.639   2.491   1.490  0.3430  1.0527 -0.8103
   14MOL    H12 4718   6.863   2.563   1.548 -1.1302  0.0006  1.7023
   14MOL    H13 4719   6.799   2.707   1.612 -0.5734 -1.8919  1.8863
   14MOL    H14 4720   6.771   2.626   1.328  1.0352  0.0651  0.0594
   14MOL    H15 4721   6.703   2.774   1.384 -1.3873 -1.5729 -2.8904
   14MOL    H16 4722   6.950   2.851   1.467 -1.6491  0.9860 -0.1884
   14MOL    H17 4723   6.928   2.817   1.289 -1.1241 -0.6356  0.1237
   14MOL    H18 4724   7.000   2.700   1.409 -1.2584 -1.8508 -2.1994
   14MOL    H19 4725   6.681   2.317   1.655 -0.5919 -0.8055  0.7713
   14MOL    C20 4726   6.638   2.622   1.812  0.2286 -0.4819  0.3941
   14MOL    C21 4727   6.559   2.583   1.945  0.1923 -0.0311 -0.4260
   14MOL    C22 4728   6.655   2.555   2.063  0.2869 -0.0337  0.3994
   14MOL    C23 4729   6.591   2.472   2.174 -0.7849  0.2989  0.6989
   14MOL    C24 4730   6.578   2.325   2.127 -0.1104 -0.4512  0.1102
   14MOL    C25 4731   6.526   2.243   2.238 -0.1887 -0.0375 -0.1237
   14MOL    H26 4732   6.619   2.725   1.784 -0.5522 -0.7860 -0.2157
   14MOL    H27 4733   6.746   2.620   1.825  0.1776 -0.5932  0.8199
   14MOL    H28 4734   6.499   2.494   1.924 -0.8471  0.9415 -1.7245
   14MOL    H29 4735   6.691   2.654   2.090 -1.5465  0.3229  1.6276
   14MOL    H30 4736   6.753   2.516   2.034  0.2562 -1.2548  1.8607
   14MOL    H31 4737   6.494   2.518   2.197 -0.5214  2.1169 -1.6028
   14MOL    H32 4738   6.654   2.477   2.262 -3.2790  2.1825  2.4824
   14MOL    H33 4739   6.505   2.307   2.049 -0.9005 -1.0817  0.9805
   14MOL    H34 4740   6.677   2.288   2.101 -0.1047 -1.6251  1.7271
   14MOL    H35 4741   6.436   2.295   2.274  0.8916  1.8188 -0.0267
   14MOL    H36 4742   6.510   2.137   2.222  0.9159 -0.0318 -1.2786
   14MOL    H37 4743   6.603   2.245   2.315 -0.3691 -0.0654  0.0595
   14MOL    C38 4744   6.455   2.690   1.976  0.2863  0.0192 -0.1639
   14MOL    C39 4745   6.333   2.700   1.880  0.8932  0.4534  0.1418
   14MOL    C40 4746   6.248   2.570   1.852  0.5977 -0.1425 -0.1552
   14MOL    C41 4747   6.193   2.497   1.979 -0.5644 -0.2249  0.1598
   14MOL    C42 4748   6.132   2.355   1.943  0.2024  0.3501  0.2834
   14MOL    C43 4749   6.109   2.263   2.059  0.2994  0.2211 -0.0824
   14MOL    H44 4750   6.504   2.787   1.981 -0.6864  0.4848  0.4108
   14MOL    H45 4751   6.403   2.670   2.070 -1.4870  0.9113 -0.9303
   14MOL    H46 4752   6.360   2.717   1.776  0.4559 -1.6806 -0.3360
   14MOL    H47 4753   6.170   2.596   1.780 -0.2506  0.4230  0.9396
   14MOL    H48 4754   6.313   2.509   1.789  1.6276  1.2243 -0.4390
   14MOL    H49 4755   6.284   2.478   2.036  0.3339  0.3981 -1.0387
   14MOL    H50 4756   6.127   2.560   2.039  0.1072  1.1969 -0.5705
   14MOL    H51 4757   6.042   2.376   1.885 -0.2665 -2.1337  0.0521
   14MOL    H52 4758   6.192   2.304   1.867 -0.6784  0.1786 -0.3098
   14MOL    H53 4759   6.018   2.303   2.104  0.5759  0.7919 -0.0241
   14MOL    H54 4760   6.182   2.257   2.139  0.1767  0.7376  0.0708
   14MOL    H55 4761   6.094   2.163   2.018 -0.9765 -0.1860  1.3146
   14MOL    C56 4762   6.243   2.816   1.926 -0.4400 -0.1568 -0.0744
   14MOL    C57 4763   6.291   2.955   1.886  0.6773 -0.0778 -0.2672
   14MOL    C58 4764   6.235   3.052   1.989  0.3437  0.0653  0.1407
   14MOL    C59 4765   6.288   3.040   2.138 -0.2587  0.2349 -0.5733
   14MOL    C60 4766   6.212   3.123   2.244 -0.3006  0.5832 -0.5243
   14MOL    C61 4767   6.073   3.054   2.282 -0.2349 -0.3755 -0.4088
   14MOL    H62 4768   6.144   2.796   1.885 -0.2109 -1.4130 -0.0216
   14MOL    H63 4769   6.213   2.804   2.030  0.8993 -1.8595  0.1392
   14MOL    H64 4770   6.400   2.952   1.893  0.6235 -0.6261  0.4000
   14MOL    H65 4771   6.266   3.148   1.948 -3.7938  1.5226  0.1074
   14MOL    H66 4772   6.127   3.038   1.996  0.2366  1.4676  1.4232
   14MOL    H67 4773   6.396   3.053   2.140 -0.2987  0.3077  1.4561
   14MOL    H68 4774   6.277   2.936   2.167  0.7170  0.4323  0.5080
   14MOL    H69 4775   6.271   3.132   2.336 -2.6016  1.9881  0.8658
   14MOL    H70 4776   6.184   3.225   2.219 -1.9777  0.2394 -0.1154
   14MOL    H71 4777   6.097   2.948   2.292 -1.9884 -0.6595  1.1055
   14MOL    H72 4778   6.041   3.104   2.373  0.0477 -1.3585  0.2356
   14MOL    H73 4779   6.004   3.069   2.199 -0.8174  0.2165  0.1767
   14MOL    C74 4780   6.243   2.998   1.740 -0.0149 -0.3641 -0.2419
   14MOL    C75 4781   6.336   3.105   1.673  0.2242 -0.0267 -0.5908
   14MOL    C76 4782   6.449   3.032   1.591 -0.5747  0.3065  0.4668
   14MOL    C77 4783   6.565   3.115   1.535  0.4989 -0.1542 -0.3779
   14MOL    C78 4784   6.663   3.035   1.443 -0.4223 -0.3463  0.5368
   14MOL    C79 4785   6.785   3.111   1.400 -0.5356  0.3032 -0.2322
   14MOL    H80 4786   6.224   2.909   1.679 -0.7201  0.0773 -0.6790
   14MOL    H81 4787   6.143   3.042   1.749  0.4094  0.6618 -0.5640
   14MOL    H82 4788   6.378   3.168   1.750  0.1780 -1.5837  0.7382
   14MOL    H83 4789   6.490   2.953   1.654 -2.8457 -0.6100  0.8325
   14MOL    H84 4790   6.418   2.977   1.502  0.1684  1.6683 -0.6585
   14MOL    H85 4791   6.519   3.199   1.484 -0.4786 -0.3632  0.1281
   14MOL    H86 4792   6.608   3.162   1.623 -2.3675  1.2400  0.3499
   14MOL    H87 4793   6.613   2.999   1.353 -0.2107 -0.4942  0.4771
   14MOL    H88 4794   6.700   2.950   1.500  1.7424  1.6903  2.2725
   14MOL    H89 4795   6.837   3.056   1.321  1.5403  0.9332  0.6552
   14MOL    H90 4796   6.780   3.218   1.382  4.4520  1.0565  2.0976
   14MOL    H91 4797   6.851   3.111   1.487 -1.0439  0.7675  0.1529
   14MOL    C92 4798   6.256   3.204   1.589  0.1810 -0.1335 -0.5196
   14MOL    C93 4799   6.190   3.322   1.675 -0.5337  0.6214 -0.0373
   14MOL    C94 4800   6.284   3.433   1.718  0.5704 -0.0832 -0.4210
   14MOL    C95 4801   6.397   3.486   1.623  0.7527 -0.1398  0.1677
   14MOL    C96 4802   6.463   3.603   1.696  0.0476 -0.7138 -0.0386
   14MOL    C97 4803   6.557   3.682   1.606 -0.7003  0.0865  0.3409
   14MOL    H98 4804   6.316   3.249   1.510  2.6432 -1.9157  0.2806
   14MOL    H99 4805   6.183   3.147   1.532  0.5416 -3.1681  1.9195
   14MOL   H100 4806   6.164   3.269   1.767 -1.0397 -0.0866 -0.5769
   14MOL   H101 4807   6.327   3.399   1.813 -0.4238  0.2148  0.1467
   14MOL   H102 4808   6.221   3.518   1.745  0.8402 -0.0785  0.1996
   14MOL   H103 4809   6.462   3.399   1.608  0.3492 -0.5036  0.5299
   14MOL   H104 4810   6.362   3.513   1.523  3.8515 -0.2428 -1.0166
   14MOL   H105 4811   6.389   3.667   1.743 -1.2468 -1.2137 -1.3606
   14MOL   H106 4812   6.537   3.575   1.772  0.1444 -0.2285  0.0499
   14MOL   H107 4813   6.501   3.718   1.519  0.6896 -0.9540 -0.9980
   14MOL   H108 4814   6.604   3.771   1.648 -2.2939  0.8467  0.5679
   14MOL   H109 4815   6.622   3.603   1.568 -2.9989 -1.8265  0.2648
   14MOL   C110 4816   6.059   3.379   1.615  0.5240 -0.7037 -0.4297
   14MOL   C111 4817   5.961   3.436   1.721  0.2333  0.1420  0.2644
   14MOL   C112 4818   5.881   3.329   1.804 -0.3317 -0.1345  0.8876
   14MOL   C113 4819   5.797   3.383   1.921  0.0066 -1.2829  0.1643
   14MOL   C114 4820   5.733   3.287   2.017  0.1933 -0.5020 -0.7273
   14MOL   C115 4821   5.637   3.359   2.116  0.1831 -0.1020 -0.5894
   14MOL   H116 4822   6.087   3.447   1.534 -0.9790  0.6098  0.1286
   14MOL   H117 4823   6.000   3.305   1.561  0.1454 -1.4301  0.9391
   14MOL   H118 4824   6.021   3.489   1.796 -0.9114  1.4178  0.3044
   14MOL   H119 4825   5.933   3.237   1.832  0.9930  0.3606  0.0966
   14MOL   H120 4826   5.809   3.294   1.729 -0.9371  0.3494  1.2412
   14MOL   H121 4827   5.722   3.451   1.879 -1.0803 -1.1500  2.2607
   14MOL   H122 4828   5.847   3.453   1.988  2.5293 -0.7051 -2.2278
   14MOL   H123 4829   5.816   3.234   2.064 -0.1959  0.1529  0.7328
   14MOL   H124 4830   5.670   3.210   1.973  0.7393 -2.3015  1.5287
   14MOL   H125 4831   5.556   3.408   2.063 -0.5254  1.8363  2.1678
   14MOL   H126 4832   5.592   3.283   2.180 -0.8534  2.5573  1.9858
   14MOL   H127 4833   5.689   3.425   2.186 -1.1716  1.5759 -1.1530
   14MOL   C128 4834   5.870   3.536   1.649  0.1585  0.4092  1.1733
   14MOL   C129 4835   5.930   3.674   1.610 -0.1067 -0.1224  0.5623
   14MOL   C130 4836   5.959   3.764   1.739 -0.4607 -0.0538 -0.4221
   14MOL   C131 4837   6.022   3.899   1.713 -0.2181  0.2693  0.4812
   14MOL   C132 4838   6.050   3.972   1.837 -0.5781  0.0958  0.2836
   14MOL   C133 4839   6.117   4.103   1.852  0.1224  0.4037 -0.3197
   14MOL   H134 4840   5.782   3.552   1.711  0.1289 -0.9477  1.4955
   14MOL   H135 4841   5.830   3.478   1.566  1.4246  0.6065  0.4133
   14MOL   H136 4842   6.029   3.666   1.567 -0.1371  1.4098  0.1546
   14MOL   H137 4843   5.868   3.792   1.793 -0.4773  1.8221 -1.3694
   14MOL   H138 4844   6.028   3.710   1.803 -1.4359  0.7939  1.3993
   14MOL   H139 4845   5.961   3.958   1.644  2.1009  0.6568 -1.2693
   14MOL   H140 4846   6.110   3.869   1.657  0.5502 -0.9050  2.2813
   14MOL   H141 4847   5.955   3.968   1.891 -1.7959  1.9332 -1.6330
   14MOL   H142 4848   6.115   3.904   1.892  1.6688 -0.4092 -2.8586
   14MOL   H143 4849   6.193   4.115   1.775  0.5845 -0.1463  0.0442
   14MOL   H144 4850   6.167   4.105   1.949 -0.4007  0.9576 -0.0563
   14MOL   H145 4851   6.052   4.189   1.833  0.2958  0.7148  0.4465
   14MOL   C146 4852   5.843   3.752   1.497  0.2843 -0.4511  0.5107
   14MOL   C147 4853   5.859   3.693   1.354 -0.3965  0.3223 -0.4651
   14MOL   C148 4854   6.002   3.714   1.294  0.1658  0.8163  0.3073
   14MOL   C149 4855   6.050   3.857   1.265 -0.2567  0.4704 -0.4684
   14MOL   C150 4856   6.191   3.868   1.202  0.0982  0.3356 -0.1676
   14MOL   C151 4857   6.299   3.860   1.312 -0.1506 -0.2017  0.0210
   14MOL   H152 4858   5.738   3.735   1.522  0.1007 -1.4045 -0.8207
   14MOL   H153 4859   5.861   3.859   1.494  0.6567 -0.4915  1.2419
   14MOL   H154 4860   5.857   3.585   1.371  1.9778  0.6506  2.1952
   14MOL   H155 4861   6.008   3.652   1.204  0.4446 -1.0881  1.6020
   14MOL   H156 4862   6.086   3.676   1.353  1.0418  0.3209 -1.2299
   14MOL   H157 4863   5.976   3.904   1.200 -0.6985  2.6108  1.5451
   14MOL   H158 4864   6.034   3.913   1.357  0.3532  1.6898 -1.0940
   14MOL   H159 4865   6.205   3.962   1.149 -1.6664 -0.5129 -2.2198
   14MOL   H160 4866   6.213   3.792   1.128 -3.2486  1.1454 -2.1302
   14MOL   H161 4867   6.299   3.761   1.357  0.2024  0.0826  0.6502
   14MOL   H162 4868   6.398   3.887   1.274 -0.1375  1.2142  1.0535
   14MOL   H163 4869   6.295   3.921   1.402  0.6286 -1.6243  1.0514
   14MOL   C164 4870   5.742   3.726   1.267  0.2965 -0.2089 -0.6128
   14MOL   C165 4871   5.698   3.621   1.150  0.6150 -0.2974 -0.5061
   14MOL   C166 4872   5.685   3.479   1.207  0.5044 -0.3816  0.7972
   14MOL   C167 4873   5.798   3.383   1.184  0.2265  0.3831 -0.7072
   14MOL   C168 4874   5.808   3.285   1.300 -0.4057 -0.3815 -0.5693
   14MOL   C169 4875   5.930   3.180   1.280  0.4407 -0.5472  0.3975
   14MOL   H170 4876   5.655   3.739   1.332 -0.4779 -1.3505 -1.4056
   14MOL   H171 4877   5.768   3.824   1.226  0.4774  0.1083  0.2433
   14MOL   H172 4878   5.779   3.618   1.077  0.6675 -1.5691 -0.4011
   14MOL   H173 4879   5.593   3.455   1.153  0.4086  1.0588  0.2730
   14MOL   H174 4880   5.648   3.473   1.309  1.7515 -0.5579  1.2553
   14MOL   H175 4881   5.886   3.444   1.164  1.0836 -0.3614  0.6439
   14MOL   H176 4882   5.783   3.327   1.092  4.3235  0.5465 -1.5642
   14MOL   H177 4883   5.709   3.242   1.287 -0.1907 -1.4956  1.4160
   14MOL   H178 4884   5.821   3.324   1.400  2.9282  1.4201 -1.6317
   14MOL   H179 4885   6.027   3.223   1.305  0.5172 -0.0328 -0.7559
   14MOL   H180 4886   5.925   3.126   1.186  0.8667 -0.1000  0.1149
   14MOL   H181 4887   5.927   3.102   1.356 -0.0396  1.3624  2.3992
   14MOL   C182 4888   5.578   3.673   1.071 -0.4834 -0.4739  0.1247
   14MOL   C183 4889   5.523   3.605   0.941  0.0139 -0.1703  0.6955
   14MOL   C184 4890   5.622   3.627   0.827 -0.6253 -0.7833  0.0277
   14MOL   C185 4891   5.695   3.496   0.789 -0.7102 -0.4131 -0.7630
   14MOL   C186 4892   5.766   3.505   0.656  0.1521 -0.2875  0.1541
   14MOL   C187 4893   5.833   3.371   0.622 -0.6280 -0.3535  0.6138
   14MOL   H188 4894   5.494   3.673   1.141 -0.6335 -2.7485 -0.0399
   14MOL   H189 4895   5.589   3.778   1.043  0.1515  0.0468  2.1972
   14MOL   H190 4896   5.511   3.498   0.954  0.0048 -0.4087 -1.2052
   14MOL   H191 4897   5.574   3.671   0.740 -1.0361  0.8072  1.0506
   14MOL   H192 4898   5.692   3.705   0.854  0.6846 -1.7389 -0.5333
   14MOL   H193 4899   5.628   3.411   0.773 -3.1132  1.8396 -3.4263
   14MOL   H194 4900   5.768   3.477   0.867 -1.0173 -0.8843 -0.5815
   14MOL   H195 4901   5.843   3.582   0.665 -0.4353  0.3184  0.0441
   14MOL   H196 4902   5.692   3.532   0.581 -1.0843 -0.3887  1.2971
   14MOL   H197 4903   5.882   3.323   0.706  0.1499 -1.8712 -0.7021
   14MOL   H198 4904   5.913   3.379   0.549 -0.7911  0.5135  0.5262
   14MOL   H199 4905   5.762   3.294   0.590  0.2886  0.2355 -2.9691
   14MOL   C200 4906   5.380   3.651   0.911  0.0961  0.3342  0.6094
   14MOL   C201 4907   5.284   3.547   0.848 -0.2987 -0.3307  0.6286
   14MOL   C202 4908   5.133   3.592   0.892  0.5214 -0.1671 -0.8085
   14MOL   C203 4909   5.095   3.731   0.826 -0.5908  0.0576 -0.0549
   14MOL   C204 4910   4.950   3.759   0.863  0.0458  0.3378  0.3862
   14MOL   C205 4911   4.893   3.881   0.788  0.7520 -0.2522 -0.3167
   14MOL   H206 4912   5.381   3.747   0.860  2.2315  0.4717  0.8511
   14MOL   H207 4913   5.326   3.681   1.001 -0.0809  2.6004 -0.2333
   14MOL   H208 4914   5.290   3.452   0.901 -0.1357 -1.4945 -1.4291
   14MOL   H209 4915   5.131   3.601   1.000 -1.4636 -0.6681 -0.7868
   14MOL   H210 4916   5.064   3.511   0.870 -0.4162  0.9888 -2.2413
   14MOL   H211 4917   5.104   3.732   0.717  1.0262  0.1500  0.0762
   14MOL   H212 4918   5.162   3.810   0.859 -1.8555  1.1857 -0.1383
   14MOL   H213 4919   4.940   3.772   0.971 -2.5502 -1.9608  0.4768
   14MOL   H214 4920   4.881   3.679   0.836  1.5350 -0.3261 -1.4903
   14MOL   H215 4921   4.802   3.913   0.837  0.5160  0.2861 -1.0902
   14MOL   H216 4922   4.969   3.959   0.794  0.0448  0.5408 -1.5083
   14MOL   H217 4923   4.867   3.858   0.684  0.6507  0.9399 -0.5586
   14MOL   C218 4924   5.300   3.525   0.698  0.3105  0.3620  0.3185
   14MOL   C219 4925   5.200   3.432   0.628 -0.0420  0.7914  0.2051
   14MOL   C220 4926   5.204   3.293   0.699  0.1206  0.1784  0.3959
   14MOL   C221 4927   5.088   3.204   0.645 -0.5654  0.1819 -0.3016
   14MOL   C222 4928   5.099   3.066   0.714  0.0656 -0.1437 -0.2928
   14MOL   C223 4929   4.976   2.979   0.666  0.5265  0.0219 -0.4576
   14MOL   H224 4930   5.292   3.626   0.660  2.2433  0.3141 -0.2665
   14MOL   H225 4931   5.407   3.504   0.694  0.2006  0.0830 -1.4113
   14MOL   H226 4932   5.100   3.472   0.643  0.9080  3.4723 -0.4339
   14MOL   H227 4933   5.182   3.304   0.805  0.7980  3.0247  0.3067
   14MOL   H228 4934   5.297   3.238   0.685 -1.2738 -2.2862  0.6549
   14MOL   H229 4935   5.093   3.194   0.537  0.3474 -2.6216 -0.0262
   14MOL   H230 4936   4.996   3.261   0.653 -0.7406  0.0346 -1.2376
   14MOL   H231 4937   5.189   3.015   0.680  0.2709 -0.9290  1.4073
   14MOL   H232 4938   5.100   3.074   0.822  2.0902  2.1770 -0.4441
   14MOL   H233 4939   4.945   2.895   0.728  2.3031 -1.7734 -1.9458
   14MOL   H234 4940   4.982   2.963   0.559  0.7093  0.9105 -0.5864
   14MOL   H235 4941   4.885   3.038   0.673  0.9751  0.6787 -0.1113
   14MOL   C236 4942   5.246   3.428   0.479  0.4864 -0.4375  0.2442
   14MOL   C237 4943   5.239   3.561   0.393  0.0354 -0.6681  0.3415
   14MOL   C238 4944   5.094   3.604   0.376 -0.1935 -0.0540  0.6659
   14MOL   C239 4945   5.066   3.739   0.299  0.6442 -0.3167  0.1425
   14MOL   C240 4946   4.924   3.789   0.334  0.2235  0.0325 -0.1016
   14MOL   C241 4947   4.896   3.910   0.256 -0.1690 -0.1532  0.1147
   14MOL   H242 4948   5.347   3.390   0.467  0.2669 -0.4297 -1.8532
   14MOL   H243 4949   5.176   3.358   0.433  1.0359 -1.0243  0.3065
   14MOL   H244 4950   5.292   3.637   0.449 -0.2504  0.1398 -0.4748
   14MOL   H245 4951   5.040   3.530   0.317  0.6526  0.3089 -0.5681
   14MOL   H246 4952   5.040   3.623   0.469 -0.5406 -1.9451  0.8637
   14MOL   H247 4953   5.065   3.716   0.192 -2.2542  0.3844 -0.0078
   14MOL   H248 4954   5.140   3.809   0.337  0.5182 -1.1432  1.9498
   14MOL   H249 4955   4.854   3.715   0.295 -0.2435  1.2290 -1.5982
   14MOL   H250 4956   4.891   3.805   0.437 -1.1548 -1.0564 -0.3518
   14MOL   H251 4957   4.789   3.928   0.258  0.0253  1.4362 -2.3404
   14MOL   H252 4958   4.944   3.998   0.301  2.0817 -1.7271  0.8759
   14MOL   H253 4959   4.933   3.898   0.154 -1.1989 -2.0287 -0.0457
   14MOL   C254 4960   5.300   3.541   0.251 -0.5982 -0.8459 -0.3378
   14MOL   C255 4961   5.460   3.549   0.236  0.2889  0.2008  0.0223
   14MOL   C256 4962   5.509   3.686   0.244  0.4935  0.7662 -0.2882
   14MOL   C257 4963   5.554   3.733   0.386 -0.7121  0.1585  0.1875
   14MOL   C258 4964   5.595   3.885   0.387  0.1060 -0.3010  0.3760
   14MOL   C259 4965   5.659   3.930   0.517  0.1942  0.3444 -0.8559
   14MOL   H260 4966   5.248   3.604   0.179  0.0077  0.9768  0.7624
   14MOL   H261 4967   5.281   3.437   0.225 -0.0510 -0.5071 -2.0915
   14MOL   H262 4968   5.488   3.493   0.325 -2.3486  2.2270  2.2082
   14MOL   H263 4969   5.581   3.711   0.166  2.7299 -1.5912  0.9061
   14MOL   H264 4970   5.433   3.756   0.211  0.5295  1.6145  1.3632
   14MOL   H265 4971   5.482   3.714   0.466 -1.3696 -2.7609 -1.0506
   14MOL   H266 4972   5.648   3.686   0.414 -0.1296  1.3827  0.3262
   14MOL   H267 4973   5.506   3.941   0.357 -1.3434 -2.3218  0.7671
   14MOL   H268 4974   5.671   3.902   0.311  0.2216 -0.6667  0.4095
   14MOL   H269 4975   5.754   3.887   0.547 -0.1169  0.9873  1.0899
   14MOL   H270 4976   5.594   3.907   0.601  0.9268  0.6598 -0.1978
   14MOL   H271 4977   5.675   4.037   0.523  0.6085  0.3680 -2.2281
   14MOL   C272 4978   5.500   3.476   0.102  0.0115 -0.1574  0.5934
   14MOL   C273 4979   5.643   3.453   0.067  0.1106 -0.5907  0.1463
   14MOL   C274 4980   5.656   3.365   7.670  0.2616  0.3196  0.3118
   14MOL   C275 4981   5.614   3.435   7.534  0.2836  0.4373 -0.3686
   14MOL   C276 4982   5.613   3.339   7.419  0.6285 -0.4726 -0.2386
   14MOL   C277 4983   5.600   3.407   7.282 -0.4947 -0.7119 -0.3388
   14MOL   H278 4984   5.467   3.374   0.119 -1.8188  0.8270  3.2935
   14MOL   H279 4985   5.437   3.515   0.022 -0.1201  1.2624  1.3735
   14MOL   H280 4986   5.694   3.547   0.044 -1.8040  0.1758 -1.0664
   14MOL   H281 4987   5.600   3.272   7.678 -2.9285  1.6749 -4.0994
   14MOL   H282 4988   5.760   3.343   7.647  0.2718  0.4642  0.2171
   14MOL   H283 4989   5.683   3.518   7.521  1.0673 -0.2837 -0.8900
   14MOL   H284 4990   5.511   3.470   7.545  0.5701  1.3828 -0.7121
   14MOL   H285 4991   5.700   3.274   7.423  1.7788  0.7064 -3.6232
   14MOL   H286 4992   5.525   3.279   7.440 -1.6667  2.6150 -0.5719
   14MOL   H287 4993   5.619   3.336   7.202  0.2474  0.5233 -1.2689
   14MOL   H288 4994   5.500   3.448   7.265 -1.1543 -2.0885  0.1173
   14MOL   H289 4995   5.673   3.488   7.278  0.7771 -1.8015  0.3807
   14MOL   C290 4996   5.719   3.379   0.176  0.1703  0.3197  0.1174
   14MOL   C291 4997   5.871   3.378   0.163  0.5818  0.7374 -0.0059
   14MOL   C292 4998   5.939   3.517   0.142  0.1901 -0.5676 -0.5296
   14MOL   C293 4999   5.902   3.629   0.247 -0.0464  0.8126  0.1098
   14MOL   C294 5000   5.980   3.753   0.260  0.9237 -0.8549  1.1292
   14MOL   C295 5001   6.126   3.744   0.298 -0.1791 -0.1701  0.1825
   14MOL   H296 5002   5.684   3.276   0.182  0.5976  0.2439  1.3183
   14MOL   H297 5003   5.692   3.434   0.266  1.7424  0.5853  0.4497
   14MOL   H298 5004   5.897   3.324   0.071  0.2510  1.0650 -0.2936
   14MOL   H299 5005   5.909   3.544   0.041 -1.4880 -0.5152 -0.0364
   14MOL   H300 5006   6.048   3.511   0.146  0.3709  1.2136 -2.0156
   14MOL   H301 5007   5.797   3.656   0.233 -0.4651 -0.3733  0.8265
   14MOL   H302 5008   5.907   3.585   0.347  1.9089 -2.0877 -1.1969
   14MOL   H303 5009   5.932   3.811   0.339 -0.4041 -1.2012  0.5909
   14MOL   H304 5010   5.970   3.819   0.174 -2.1162 -1.5397  0.9127
   14MOL   H305 5011   6.146   3.713   0.401  1.1995  1.3860  0.3979
   14MOL   H306 5012   6.160   3.846   0.286 -0.9372  0.1728  0.8435
   14MOL   H307 5013   6.178   3.677   0.230  1.7054 -0.5382  1.9202
   14MOL   C308 5014   5.943   3.309   0.279  0.2055  0.0392  0.4557
   14MOL   C309 5015   5.997   3.171   0.236 -0.2933 -0.3669 -0.4981
   14MOL   C310 5016   5.881   3.070   0.196  0.3247 -0.7636 -0.5969
   14MOL   C311 5017   5.917   2.929   0.127  0.0391 -0.8821 -0.0251
   14MOL   C312 5018   5.799   2.832   0.114  0.8039 -1.8048 -0.4165
   14MOL   C313 5019   5.834   2.724   0.012  0.2881  0.1481 -0.7130
   14MOL   H314 5020   6.024   3.365   0.325  0.6201 -1.7721  2.0003
   14MOL   H315 5021   5.883   3.293   0.369 -0.6120  0.4139 -0.0171
   14MOL   H316 5022   6.057   3.189   0.146 -0.6271  0.3034 -0.5892
   14MOL   H317 5023   5.832   3.124   0.115 -1.3136  0.0716  0.9130
   14MOL   H318 5024   5.819   3.066   0.285  1.7838 -0.9949  0.4241
   14MOL   H319 5025   6.002   2.875   0.168 -0.3604 -1.2118  0.3776
   14MOL   H320 5026   5.936   2.946   0.021 -2.3640 -0.5105 -0.4324
   14MOL   H321 5027   5.791   2.794   0.216 -0.1873  1.1576  0.6600
   14MOL   H322 5028   5.713   2.889   0.081  1.0888  0.5935  2.8456
   14MOL   H323 5029   5.752   2.655   7.717  0.9277 -1.1095  0.6746
   14MOL   H324 5030   5.920   2.669   0.052 -0.1783  0.0693  0.1927
   14MOL   H325 5031   5.858   2.775   7.646  1.3872 -0.0545 -0.5521
   14MOL   C326 5032   6.078   3.110   0.357 -0.1072 -0.3577  0.4927
   14MOL   C327 5033   6.217   3.167   0.395  0.4598  0.2979  1.0455
   14MOL   C328 5034   6.242   3.172   0.549  1.5054  0.3159 -0.1081
   14MOL   C329 5035   6.244   3.028   0.609 -0.0653 -0.4686  0.7549
   14MOL   C330 5036   6.328   3.009   0.731 -0.1495 -0.1216  0.9176
   14MOL   C331 5037   6.346   2.864   0.764 -0.2771  0.6181  0.0824
   14MOL   H332 5038   6.105   3.007   0.332  1.0269  0.1072 -0.2439
   14MOL   H333 5039   6.020   3.109   0.449  0.4288 -0.8879  0.8280
   14MOL   H334 5040   6.207   3.267   0.351  1.6099  0.1363  0.4053
   14MOL   H335 5041   6.340   3.216   0.565  0.8679  0.4758  3.6601
   14MOL   H336 5042   6.169   3.243   0.587  2.6434 -0.2616  3.3312
   14MOL   H337 5043   6.264   2.951   0.536 -0.0761 -1.0205  1.3272
   14MOL   H338 5044   6.139   3.013   0.635 -0.3857 -0.0773 -0.2990
   14MOL   H339 5045   6.418   3.061   0.699  0.7754 -1.4474  1.3452
   14MOL   H340 5046   6.294   3.063   0.819 -0.4449  0.7340  0.2904
   14MOL   H341 5047   6.249   2.826   0.795  0.1475 -0.9810 -0.5235
   14MOL   H342 5048   6.413   2.858   0.850 -0.9572 -0.2778  0.5544
   14MOL   H343 5049   6.379   2.801   0.682 -0.3676 -0.9946  1.2550
   14MOL   C344 5050   6.346   3.110   0.326 -0.4185  0.2513 -1.0561
   14MOL   C345 5051   6.351   3.129   0.173  0.1527  0.3616 -0.0798
   14MOL   C346 5052   6.486   3.108   0.107  0.1081 -0.3523 -0.2738
   14MOL   C347 5053   6.478   3.117   7.689 -0.0700  0.3007  0.4617
   14MOL   C348 5054   6.538   3.243   7.632 -0.7212 -0.8918 -0.0619
   14MOL   C349 5055   6.550   3.238   7.477 -0.5254 -0.0649 -0.7652
   14MOL   H350 5056   6.438   3.156   0.362 -0.1152 -1.0578 -0.1060
   14MOL   H351 5057   6.349   3.003   0.348  1.4375  0.7339  1.1845
   14MOL   H352 5058   6.305   3.224   0.147 -1.4828 -0.8287 -1.6399
   14MOL   H353 5059   6.555   3.185   0.144  0.0169 -0.8827  1.0087
   14MOL   H354 5060   6.526   3.013   0.141  2.6190  0.9680  0.6916
   14MOL   H355 5061   6.537   3.035   7.648  0.1846  0.1912  1.0511
   14MOL   H356 5062   6.380   3.102   7.643  0.1990 -0.2716  0.0618
   14MOL   H357 5063   6.486   3.336   7.655  0.0517 -1.0037  2.1830
   14MOL   H358 5064   6.640   3.249   7.668 -1.2666  0.6317  1.2679
   14MOL   H359 5065   6.589   3.145   7.436 -0.0261  0.5065 -1.5992
   14MOL   H360 5066   6.453   3.252   7.428 -0.0854  4.6749 -0.5273
   14MOL   H361 5067   6.609   3.317   7.432 -0.0980  1.7055  2.7525
   14MOL   H362 5068   6.284   3.056   0.128 -1.4633  0.4891  2.0624
   15MOL     C1 5069   6.476   4.085   2.450 -0.5364  0.1864  0.6128
   15MOL     C2 5070   6.406   4.076   2.312 -0.0562  0.0535  0.3133
   15MOL     C3 5071   6.254   4.103   2.320  0.1650  0.2393  0.6270
   15MOL     C4 5072   6.224   4.254   2.295  0.3871 -0.6353 -1.0245
   15MOL     C5 5073   6.079   4.289   2.313  0.1179  0.7141 -0.1108
   15MOL     C6 5074   6.042   4.305   2.462 -0.0795  0.3652 -0.1496
   15MOL     H7 5075   6.476   4.183   2.498 -0.3969 -0.4396  1.9061
   15MOL     H8 5076   6.429   4.029   2.531 -0.6591  3.3057  2.7800
   15MOL     H9 5077   6.453   4.157   2.257  0.0564  1.0069  1.7707
   15MOL    H10 5078   6.205   4.057   2.406  4.4527  0.5295  3.3723
   15MOL    H11 5079   6.205   4.052   2.237 -0.2628  0.4466  0.7519
   15MOL    H12 5080   6.262   4.284   2.197 -1.3333  2.0881 -0.8946
   15MOL    H13 5081   6.272   4.313   2.374  0.5884 -1.7193 -0.3213
   15MOL    H14 5082   6.057   4.387   2.270  1.9033  0.1679 -2.3472
   15MOL    H15 5083   6.012   4.226   2.256  2.8272 -2.2654 -0.1123
   15MOL    H16 5084   6.093   4.392   2.503 -0.1523  0.3573 -0.0424
   15MOL    H17 5085   6.049   4.210   2.515 -0.0562 -0.7092 -2.0332
   15MOL    H18 5086   5.943   4.350   2.456 -0.0560  0.2456 -1.5186
   15MOL    H19 5087   6.581   4.064   2.431 -0.9963 -1.4260 -0.2271
   15MOL    C20 5088   6.437   3.936   2.252  0.1718 -0.0702  1.0593
   15MOL    C21 5089   6.400   3.904   2.104  0.0022  0.3104 -0.1428
   15MOL    C22 5090   6.447   4.019   2.009 -0.5568 -0.2139  0.6575
   15MOL    C23 5091   6.468   3.986   1.856  1.0549  0.3936  0.8288
   15MOL    C24 5092   6.496   4.112   1.778 -0.6655  0.0674 -0.0311
   15MOL    C25 5093   6.520   4.086   1.633  0.2560 -0.1599 -0.1784
   15MOL    H26 5094   6.393   3.857   2.314 -0.6584  0.6338  1.3673
   15MOL    H27 5095   6.544   3.916   2.262  0.3706  0.0249 -0.6938
   15MOL    H28 5096   6.291   3.901   2.097 -0.0878  1.3897  0.6945
   15MOL    H29 5097   6.551   4.044   2.030 -0.3092 -0.0075 -0.7410
   15MOL    H30 5098   6.391   4.112   2.020 -2.3232 -0.9862 -1.5119
   15MOL    H31 5099   6.390   3.922   1.815  1.3525 -0.0634  0.9667
   15MOL    H32 5100   6.551   3.915   1.854  1.2686  0.6685 -0.3426
   15MOL    H33 5101   6.425   4.189   1.808  0.6173  0.5970  1.7136
   15MOL    H34 5102   6.594   4.149   1.810 -0.6812 -1.2512  1.6015
   15MOL    H35 5103   6.544   4.174   1.572  0.5353 -0.6296 -0.7477
   15MOL    H36 5104   6.603   4.016   1.627 -0.2733 -0.8410  0.3234
   15MOL    H37 5105   6.438   4.022   1.601  0.9175 -0.6887 -0.8312
   15MOL    C38 5106   6.447   3.764   2.061  0.7239 -0.6215  0.2304
   15MOL    C39 5107   6.408   3.643   2.163 -0.6479 -0.1785  0.2123
   15MOL    C40 5108   6.255   3.631   2.164 -0.3444  0.3707  0.6360
   15MOL    C41 5109   6.200   3.540   2.276  0.0712 -0.0545  0.2096
   15MOL    C42 5110   6.053   3.516   2.260  0.4063  0.3748  0.2219
   15MOL    C43 5111   5.961   3.636   2.243  0.2934  0.6194  0.2103
   15MOL    H44 5112   6.556   3.766   2.050  0.7416 -0.9506  0.3652
   15MOL    H45 5113   6.403   3.738   1.965  0.1846 -0.4558  0.4336
   15MOL    H46 5114   6.447   3.664   2.262 -1.8056 -0.8056  0.8069
   15MOL    H47 5115   6.213   3.730   2.182  0.9786  1.0339  0.1596
   15MOL    H48 5116   6.219   3.596   2.067  0.3034 -0.0041  0.5318
   15MOL    H49 5117   6.250   3.443   2.268  0.9441  0.4101 -0.0020
   15MOL    H50 5118   6.220   3.581   2.376 -2.2072 -0.1423  0.7246
   15MOL    H51 5119   6.036   3.447   2.177 -0.9490  0.5197  0.3537
   15MOL    H52 5120   6.020   3.453   2.343 -1.7189  1.1108 -0.0305
   15MOL    H53 5121   5.970   3.684   2.341 -1.3439 -0.5727  0.9755
   15MOL    H54 5122   5.853   3.621   2.251 -0.1455  1.5502 -3.4211
   15MOL    H55 5123   5.987   3.710   2.169  1.1713 -1.5607 -1.7169
   15MOL    C56 5124   6.473   3.512   2.097  0.0294 -0.2314 -0.0176
   15MOL    C57 5125   6.578   3.437   2.186 -0.4949  0.5572  0.4448
   15MOL    C58 5126   6.669   3.345   2.109 -1.0402  0.2401  0.5459
   15MOL    C59 5127   6.785   3.407   2.015 -0.0972 -0.6322  0.9804
   15MOL    C60 5128   6.839   3.332   1.899  0.1125  0.1680 -0.5828
   15MOL    C61 5129   6.737   3.299   1.781 -0.5598  0.5306  0.2839
   15MOL    H62 5130   6.393   3.445   2.066 -0.4664 -1.0218  2.7967
   15MOL    H63 5131   6.533   3.540   2.011 -1.1900 -1.9399 -1.4536
   15MOL    H64 5132   6.632   3.521   2.232 -0.3250  0.8950 -0.3645
   15MOL    H65 5133   6.724   3.272   2.169 -2.2707 -1.7488 -0.7121
   15MOL    H66 5134   6.609   3.276   2.051  0.3553 -0.7509  0.2393
   15MOL    H67 5135   6.859   3.442   2.088 -0.0464  1.7617 -0.1634
   15MOL    H68 5136   6.743   3.501   1.978  0.0932  0.1320  2.6712
   15MOL    H69 5137   6.938   3.367   1.870  1.1960 -2.4334 -0.2208
   15MOL    H70 5138   6.871   3.240   1.948 -3.2303 -0.8226 -0.1797
   15MOL    H71 5139   6.695   3.385   1.728 -0.7416 -0.7694 -1.7278
   15MOL    H72 5140   6.800   3.242   1.713  0.2777  0.6317  0.9548
   15MOL    H73 5141   6.665   3.229   1.823  1.8074 -2.9618 -1.2741
   15MOL    C74 5142   6.512   3.353   2.301  1.0074 -0.1513  0.4071
   15MOL    C75 5143   6.596   3.316   2.425 -0.1091 -0.2891 -0.6005
   15MOL    C76 5144   6.663   3.438   2.490  0.3334  0.4116 -0.1399
   15MOL    C77 5145   6.574   3.545   2.561  0.2660 -0.6303  0.4381
   15MOL    C78 5146   6.642   3.652   2.641 -0.0756  0.2415 -0.3654
   15MOL    C79 5147   6.712   3.773   2.573 -0.0517 -0.3267 -0.3717
   15MOL    H80 5148   6.435   3.422   2.334  0.2733 -0.1286 -1.2665
   15MOL    H81 5149   6.457   3.274   2.249  0.4128  0.4603  0.0918
   15MOL    H82 5150   6.675   3.250   2.387  2.7940  2.7503 -0.0975
   15MOL    H83 5151   6.727   3.400   2.569  2.4749  0.4595 -1.8044
   15MOL    H84 5152   6.739   3.485   2.427 -0.4972  0.6772 -0.9492
   15MOL    H85 5153   6.505   3.581   2.485 -1.9691  0.6434  3.0009
   15MOL    H86 5154   6.513   3.480   2.624  3.0638 -1.5860  2.2549
   15MOL    H87 5155   6.690   3.595   2.720 -0.9415  2.3150  1.7122
   15MOL    H88 5156   6.570   3.695   2.711  1.3313  0.9394  0.6820
   15MOL    H89 5157   6.784   3.722   2.508  0.2313 -3.0558  1.9736
   15MOL    H90 5158   6.650   3.828   2.502 -0.3196 -0.9863 -0.6578
   15MOL    H91 5159   6.758   3.850   2.635 -0.4231  2.1228 -2.9966
   15MOL    C92 5160   6.502   3.238   2.517  0.2028  0.1204 -0.1823
   15MOL    C93 5161   6.563   3.193   2.653  0.0380 -0.0472 -0.1369
   15MOL    C94 5162   6.448   3.156   2.744 -0.4386 -0.4328 -0.3610
   15MOL    C95 5163   6.384   3.283   2.814  0.4079  0.0695  0.4222
   15MOL    C96 5164   6.272   3.237   2.916 -0.6897  0.3437  0.3769
   15MOL    C97 5165   6.202   3.354   2.986  0.5130  0.1412 -0.5794
   15MOL    H98 5166   6.413   3.297   2.541 -0.9873 -1.0752 -1.5405
   15MOL    H99 5167   6.455   3.152   2.469  0.2559  0.5180 -0.9576
   15MOL   H100 5168   6.625   3.270   2.699 -1.3341  0.7676  0.3762
   15MOL   H101 5169   6.480   3.091   2.826  1.5398 -1.5531 -1.9631
   15MOL   H102 5170   6.367   3.102   2.694 -1.4541 -0.5425  1.3513
   15MOL   H103 5171   6.464   3.344   2.856 -0.8198  1.8033  0.2798
   15MOL   H104 5172   6.340   3.347   2.738 -0.9398 -0.1719  0.9876
   15MOL   H105 5173   6.193   3.184   2.862 -0.8134  1.2324 -0.3386
   15MOL   H106 5174   6.322   3.172   2.988 -1.5226  1.2468  1.8003
   15MOL   H107 5175   6.270   3.415   3.045  0.0843  0.8582 -0.8216
   15MOL   H108 5176   6.134   3.409   2.921 -1.0389 -0.8289  0.1754
   15MOL   H109 5177   6.140   3.312   3.065 -0.8508  0.6679 -1.3446
   15MOL   C110 5178   6.661   3.079   2.627 -0.3126 -0.0685 -0.2673
   15MOL   C111 5179   6.736   3.017   2.750  0.2198  0.0257  0.4028
   15MOL   C112 5180   6.825   3.112   2.819  0.0803 -0.5699  0.4946
   15MOL   C113 5181   6.925   3.192   2.739  0.3517  0.2646  0.1872
   15MOL   C114 5182   7.076   3.150   2.742  0.3157 -0.2877  0.6782
   15MOL   C115 5183   7.178   3.264   2.737 -0.7262 -0.5527 -0.6330
   15MOL   H116 5184   6.608   2.994   2.584  0.2331 -0.4441 -0.1988
   15MOL   H117 5185   6.719   3.109   2.540  0.0977 -0.2277 -0.0494
   15MOL   H118 5186   6.656   2.983   2.816  0.6264  0.2288  1.0019
   15MOL   H119 5187   6.873   3.058   2.900  0.8360 -3.5532 -1.8178
   15MOL   H120 5188   6.767   3.186   2.874 -0.7763 -0.0595 -1.0697
   15MOL   H121 5189   6.921   3.291   2.785  0.4458 -1.3200  3.7762
   15MOL   H122 5190   6.887   3.226   2.642 -0.5296  0.6735  0.6588
   15MOL   H123 5191   7.078   3.082   2.658  2.9589  0.8864 -0.2645
   15MOL   H124 5192   7.094   3.085   2.828  0.0960 -0.3393  0.6847
   15MOL   H125 5193   7.141   3.356   2.693  1.4896  0.2410 -0.9095
   15MOL   H126 5194   7.213   3.295   2.836  0.4984  0.4659 -1.3618
   15MOL   H127 5195   7.271   3.241   2.683 -0.6858  2.0725 -1.7427
   15MOL   C128 5196   6.827   2.891   2.715  0.0237 -0.1281 -0.1491
   15MOL   C129 5197   6.763   2.797   2.612 -0.0980 -0.9441 -0.1920
   15MOL   C130 5198   6.629   2.736   2.665 -0.2190 -0.6990  0.4561
   15MOL   C131 5199   6.524   2.713   2.556  0.3617  0.2461 -0.3540
   15MOL   C132 5200   6.390   2.664   2.628 -1.4241 -0.4341 -1.3379
   15MOL   C133 5201   6.267   2.692   2.544 -0.1704  0.3544  0.2862
   15MOL   H134 5202   6.847   2.827   2.801 -1.9591 -0.1701  0.3100
   15MOL   H135 5203   6.923   2.921   2.673 -0.4199 -0.6162 -1.5343
   15MOL   H136 5204   6.741   2.857   2.524 -1.3946  0.5575  1.1286
   15MOL   H137 5205   6.651   2.644   2.718  0.5471 -1.1143 -0.5708
   15MOL   H138 5206   6.583   2.805   2.736  0.2593 -0.8176  0.8870
   15MOL   H139 5207   6.555   2.634   2.487  0.7925 -0.8848  1.1040
   15MOL   H140 5208   6.499   2.806   2.505 -0.5191 -0.5085 -1.3199
   15MOL   H141 5209   6.405   2.560   2.658 -2.8951 -0.5199 -0.8540
   15MOL   H142 5210   6.370   2.728   2.713  1.6410  0.8136 -1.4899
   15MOL   H143 5211   6.272   2.653   2.443 -0.4128  1.7215 -0.2663
   15MOL   H144 5212   6.271   2.797   2.515  0.8997  0.4603  0.7973
   15MOL   H145 5213   6.180   2.655   2.599 -0.8123 -0.0547 -0.9880
   15MOL   C146 5214   6.870   2.696   2.557  0.1997 -0.4535  0.3022
   15MOL   C147 5215   6.982   2.751   2.460  0.2117 -0.3936  0.2066
   15MOL   C148 5216   6.911   2.780   2.321 -0.1133  0.2027  0.0743
   15MOL   C149 5217   6.911   2.929   2.288  0.3908  0.2925 -0.0129
   15MOL   C150 5218   6.825   2.962   2.165 -0.6519  0.4611  0.2071
   15MOL   C151 5219   6.674   2.967   2.207  0.9561 -0.2350 -0.2634
   15MOL   H152 5220   6.919   2.659   2.647  0.2946 -1.0098  0.0211
   15MOL   H153 5221   6.817   2.615   2.506  2.1227 -0.8957 -1.0362
   15MOL   H154 5222   7.017   2.849   2.493 -1.1437  0.3675 -0.5479
   15MOL   H155 5223   6.809   2.741   2.321 -0.2790  0.6130  1.0735
   15MOL   H156 5224   6.955   2.726   2.237  1.0322  0.9367  0.1967
   15MOL   H157 5225   6.882   2.984   2.378  1.1578  1.7027 -0.6124
   15MOL   H158 5226   7.013   2.957   2.262 -0.1705  0.6984 -1.8018
   15MOL   H159 5227   6.819   2.873   2.103 -1.2515 -1.1549  2.5372
   15MOL   H160 5228   6.851   3.052   2.108  0.6298 -1.2410 -1.9846
   15MOL   H161 5229   6.610   3.021   2.137 -0.2607  0.8088  1.6373
   15MOL   H162 5230   6.635   2.866   2.221  1.1189 -0.4566 -1.3616
   15MOL   H163 5231   6.659   3.027   2.296 -0.6371  1.7983 -1.8631
   15MOL   C164 5232   7.105   2.655   2.456 -0.8517 -1.0660 -0.5323
   15MOL   C165 5233   7.240   2.707   2.396  0.2977  0.6522 -0.2433
   15MOL   C166 5234   7.309   2.795   2.500  0.3445 -0.3915 -0.5158
   15MOL   C167 5235   7.388   2.907   2.427 -0.6708 -0.4801  0.2104
   15MOL   C168 5236   7.363   3.045   2.505  0.1928  0.1998 -0.0423
   15MOL   C169 5237   7.427   3.171   2.426 -0.2974  0.6268  0.2496
   15MOL   H170 5238   7.133   2.605   2.548  2.1462 -0.7740 -1.2134
   15MOL   H171 5239   7.082   2.572   2.390  4.1706 -2.2372 -1.0361
   15MOL   H172 5240   7.221   2.759   2.302 -1.7805 -0.2590 -0.3533
   15MOL   H173 5241   7.362   2.733   2.574 -0.2795 -0.0117  0.2581
   15MOL   H174 5242   7.233   2.841   2.564 -0.6144  0.7397 -2.4460
   15MOL   H175 5243   7.353   2.927   2.326 -0.4236 -0.0414  0.2107
   15MOL   H176 5244   7.494   2.884   2.434 -0.6523 -0.9539 -1.4229
   15MOL   H177 5245   7.409   3.047   2.604  0.7068  1.0427 -0.2955
   15MOL   H178 5246   7.255   3.052   2.517  0.0513 -0.8769 -0.6012
   15MOL   H179 5247   7.518   3.144   2.373 -0.1342 -0.5721  1.1207
   15MOL   H180 5248   7.446   3.259   2.488 -2.2844  1.0965  0.2470
   15MOL   H181 5249   7.360   3.211   2.349 -0.4673  3.5717  1.8366
   15MOL   C182 5250   7.334   2.581   2.370 -0.0141 -0.1720  0.4814
   15MOL   C183 5251   7.319   2.520   2.228 -0.4837 -0.0141 -0.0581
   15MOL   C184 5252   7.205   2.419   2.209  0.1095  0.6695 -0.1867
   15MOL   C185 5253   7.125   2.445   2.085  0.0588  0.1344  0.1791
   15MOL   C186 5254   7.014   2.342   2.061 -0.3630 -0.1061  0.4115
   15MOL   C187 5255   6.931   2.300   2.182  0.0249 -0.5021  0.0365
   15MOL   H188 5256   7.432   2.627   2.364  0.8255 -1.8186  1.3651
   15MOL   H189 5257   7.327   2.506   2.449  0.1804  0.3030  0.9485
   15MOL   H190 5258   7.304   2.607   2.163 -2.2968 -0.3448 -0.1153
   15MOL   H191 5259   7.254   2.323   2.193  1.8687  1.3517  0.9952
   15MOL   H192 5260   7.141   2.412   2.297  1.0125  1.6032  0.5545
   15MOL   H193 5261   7.185   2.464   1.996 -1.7559  1.1993 -0.8764
   15MOL   H194 5262   7.084   2.544   2.109 -1.0292 -0.2710  0.0131
   15MOL   H195 5263   7.056   2.258   2.007 -0.7246 -0.1883  0.2551
   15MOL   H196 5264   6.945   2.387   1.989  1.2057 -1.0425 -1.7087
   15MOL   H197 5265   6.991   2.249   2.258 -0.7063 -2.1605 -0.4853
   15MOL   H198 5266   6.861   2.224   2.147 -0.1809 -0.0951 -0.4361
   15MOL   H199 5267   6.868   2.381   2.219 -1.4253 -0.8484 -1.6203
   15MOL   C200 5268   7.463   2.459   2.189  0.3434  0.3417  0.5939
   15MOL   C201 5269   7.519   2.460   2.045 -0.1932  0.5960  0.5059
   15MOL   C202 5270   7.676   2.484   2.043 -0.3214  0.0158  0.1564
   15MOL   C203 5271   0.031   2.364   2.081  0.2219  0.2555  0.2969
   15MOL   C204 5272   0.171   2.403   2.064  0.5100  0.3096  0.0306
   15MOL   C205 5273   0.276   2.298   2.085  0.4871 -0.1515 -0.5614
   15MOL   H206 5274   7.465   2.358   2.230 -1.6954  0.4803  1.1103
   15MOL   H207 5275   7.539   2.505   2.252  0.3748  0.7435  0.2648
   15MOL   H208 5276   7.473   2.547   1.999  1.0228  1.0253  0.0775
   15MOL   H209 5277   7.709   2.570   2.103 -1.2878  2.4032 -2.5969
   15MOL   H210 5278   7.701   2.523   1.944 -0.9614  2.5895  0.9501
   15MOL   H211 5279   0.018   2.263   2.041 -0.0616 -0.5619  2.3942
   15MOL   H212 5280   0.007   2.348   2.186 -0.5082  1.9800  0.4027
   15MOL   H213 5281   0.185   2.485   2.136 -2.0477  2.4386 -1.8082
   15MOL   H214 5282   0.191   2.439   1.963  1.9195 -0.2501  0.0884
   15MOL   H215 5283   0.254   2.216   2.017 -2.1913 -0.0603  0.1098
   15MOL   H216 5284   0.373   2.342   2.061  0.0274 -0.0811 -2.3857
   15MOL   H217 5285   0.273   2.272   2.191 -1.7291  2.4778  0.0869
   15MOL   C218 5286   7.478   2.334   1.967 -0.2035  0.1164  0.5351
   15MOL   C219 5287   7.523   2.325   1.817  0.2289 -0.2983 -0.2321
   15MOL   C220 5288   7.472   2.452   1.742  0.0904  0.3192 -0.6561
   15MOL   C221 5289   7.315   2.460   1.717 -0.3802  0.2074  0.7130
   15MOL   C222 5290   7.283   2.579   1.624  0.3686  0.6877 -0.3235
   15MOL   C223 5291   7.353   2.581   1.490 -0.3821  0.2058 -0.2070
   15MOL   H224 5292   7.523   2.243   2.007  0.1570  0.3751  0.7199
   15MOL   H225 5293   7.371   2.311   1.975 -0.7700  0.3862 -4.8148
   15MOL   H226 5294   7.632   2.327   1.822  0.2520  1.2097 -0.8149
   15MOL   H227 5295   7.525   2.438   1.647 -0.2944  1.9175 -1.1241
   15MOL   H228 5296   7.506   2.546   1.785  0.8185  0.5142 -1.6230
   15MOL   H229 5297   7.254   2.473   1.806 -0.5110 -0.3566  0.7043
   15MOL   H230 5298   7.276   2.367   1.676  0.7870 -0.1155  0.3097
   15MOL   H231 5299   7.174   2.585   1.629  0.5630  3.5527  1.9698
   15MOL   H232 5300   7.322   2.666   1.676 -0.7502 -0.0771  1.8787
   15MOL   H233 5301   7.320   2.500   1.425 -2.9246  1.1801 -0.1988
   15MOL   H234 5302   7.462   2.584   1.497 -0.1390 -1.4684 -2.5660
   15MOL   H235 5303   7.322   2.666   1.429 -3.2401  0.8634  2.0484
   15MOL   C236 5304   7.487   2.194   1.749 -0.3970 -0.0263 -0.2315
   15MOL   C237 5305   7.569   2.069   1.795 -0.2848  0.1498 -0.4827
   15MOL   C238 5306   7.722   2.078   1.776 -0.1284 -0.2241  0.0987
   15MOL   C239 5307   0.037   2.119   1.629  0.4756 -0.1730 -0.1328
   15MOL   C240 5308   0.192   2.103   1.615  0.3622 -0.1134 -0.6938
   15MOL   C241 5309   0.257   2.150   1.484  0.1694  0.0701 -0.0402
   15MOL   H242 5310   7.384   2.168   1.775  0.0353 -0.8550  0.6980
   15MOL   H243 5311   7.489   2.190   1.640  1.4224 -0.2403 -0.2057
   15MOL   H244 5312   7.568   2.057   1.903  0.4135 -2.5517 -0.7307
   15MOL   H245 5313   0.036   2.154   1.842 -1.4738  0.0848  0.6026
   15MOL   H246 5314   0.045   1.988   1.809 -2.4593 -0.9450  1.7670
   15MOL   H247 5315   7.721   2.216   1.603  1.1590  0.0128 -0.5767
   15MOL   H248 5316   0.003   2.044   1.557 -0.7496  0.2274  0.0152
   15MOL   H249 5317   0.238   2.160   1.695 -1.5974  0.7401 -0.1508
   15MOL   H250 5318   0.210   1.997   1.635  0.3227  0.1015  0.5141
   15MOL   H251 5319   0.364   2.128   1.484 -0.0265 -0.8682  0.3931
   15MOL   H252 5320   0.221   2.104   1.392  0.2956  0.9078 -0.5170
   15MOL   H253 5321   0.249   2.256   1.457 -0.6657  0.2025  0.7307
   15MOL   C254 5322   7.509   1.943   1.723  0.7582  0.1937 -0.1758
   15MOL   C255 5323   7.573   1.802   1.743 -0.1406  0.0827 -0.1341
   15MOL   C256 5324   7.533   1.706   1.629 -0.6769 -0.1820  0.0281
   15MOL   C257 5325   7.595   1.731   1.488 -0.1041 -0.6221  0.3089
   15MOL   C258 5326   0.028   1.691   1.479 -1.0508  0.2397  0.6663
   15MOL   C259 5327   0.052   1.540   1.445  0.0114  0.2070 -0.2342
   15MOL   H260 5328   7.499   1.960   1.616 -0.8931  1.8157  0.2244
   15MOL   H261 5329   7.402   1.940   1.740  0.8237  0.2566  0.2445
   15MOL   H262 5330   7.681   1.813   1.738 -0.2086  0.4780 -0.7002
   15MOL   H263 5331   7.564   1.603   1.642  1.8445  0.3320 -1.5538
   15MOL   H264 5332   7.424   1.712   1.628 -0.6672  0.4006  1.3370
   15MOL   H265 5333   7.543   1.671   1.414  1.6340 -0.6197 -0.9499
   15MOL   H266 5334   7.579   1.834   1.454  4.0039 -0.2248 -0.7681
   15MOL   H267 5335   0.076   1.723   1.571  1.2504 -2.7014  0.5668
   15MOL   H268 5336   0.066   1.738   1.388  1.4802 -1.5105  0.7767
   15MOL   H269 5337   0.043   1.537   1.337  0.0183 -0.7818 -0.2134
   15MOL   H270 5338   7.708   1.474   1.495  0.1941  1.0167  1.1378
   15MOL   H271 5339   0.155   1.508   1.465 -0.0481 -0.8285 -1.5245
   15MOL   C272 5340   7.533   1.746   1.883 -0.1072 -0.1528  0.6765
   15MOL   C273 5341   7.592   1.612   1.931  0.3483  0.5593 -0.1762
   15MOL   C274 5342   7.519   1.546   2.060  0.2003 -0.1580 -0.2753
   15MOL   C275 5343   7.506   1.647   2.178 -0.4158 -0.4563 -0.7407
   15MOL   C276 5344   7.413   1.598   2.287 -0.0279 -0.0804 -0.0955
   15MOL   C277 5345   7.460   1.479   2.365  0.1476  0.6767  0.5441
   15MOL   H278 5346   7.571   1.823   1.950 -1.4596  2.3693 -1.3556
   15MOL   H279 5347   7.425   1.759   1.891  0.0643  0.0196  2.8077
   15MOL   H280 5348   7.564   1.532   1.862 -0.2249 -0.4455  1.1962
   15MOL   H281 5349   7.575   1.457   2.091  0.3775 -0.1471 -0.5630
   15MOL   H282 5350   7.422   1.516   2.022 -0.6836  2.0244  0.1742
   15MOL   H283 5351   7.461   1.736   2.135  1.1333  0.2226 -0.9980
   15MOL   H284 5352   7.599   1.675   2.230 -1.3978  2.0688 -0.2725
   15MOL   H285 5353   7.418   1.680   2.359 -1.2010  0.1876 -0.3016
   15MOL   H286 5354   7.314   1.593   2.240 -0.2402 -0.8716  0.4268
   15MOL   H287 5355   7.557   1.496   2.413  1.2869  0.5247 -1.6538
   15MOL   H288 5356   7.388   1.470   2.447  0.2295  2.4925  0.8372
   15MOL   H289 5357   7.473   1.388   2.307 -1.6079 -0.5401  2.0173
   15MOL   C290 5358   0.023   1.621   1.953  0.1172 -0.2432  0.2997
   15MOL   C291 5359   0.114   1.493   1.951  0.5021  0.4025  0.1512
   15MOL   C292 5360   0.123   1.437   2.096 -0.9891 -0.0149  0.1306
   15MOL   C293 5361   0.232   1.502   2.188 -0.9032  0.0622 -0.3472
   15MOL   C294 5362   0.261   1.436   2.322 -0.4049  0.5109  0.2397
   15MOL   C295 5363   0.200   1.531   2.434 -0.4858 -0.1373  0.0174
   15MOL   H296 5364   0.044   1.680   2.043  0.2928  0.8571 -0.4495
   15MOL   H297 5365   0.048   1.696   1.877 -1.1143  1.4832  1.5430
   15MOL   H298 5366   0.215   1.526   1.925  0.3744  0.9966  0.3800
   15MOL   H299 5367   0.130   1.329   2.105  1.5761  0.1961  1.1249
   15MOL   H300 5368   0.040   1.469   2.158 -1.4488 -1.1570  0.1074
   15MOL   H301 5369   0.328   1.494   2.135 -0.9868  0.5083 -0.5670
   15MOL   H302 5370   0.215   1.609   2.197 -1.2220 -0.2389  3.1547
   15MOL   H303 5371   0.368   1.422   2.338 -0.1765  1.8312 -0.0726
   15MOL   H304 5372   0.202   1.345   2.333  0.9769 -0.4037  0.2723
   15MOL   H305 5373   0.095   1.547   2.412 -0.1359  0.3287 -1.4008
   15MOL   H306 5374   0.253   1.626   2.445  1.4402 -1.1094 -0.4847
   15MOL   H307 5375   0.194   1.488   2.534  0.4297  0.7925  0.4805
   15MOL   C308 5376   0.059   1.403   1.848 -0.7030  0.0559  0.0849
   15MOL   C309 5377   0.160   1.293   1.798 -0.4115 -0.1314  0.3315
   15MOL   C310 5378   0.236   1.314   1.665 -0.5901 -0.1528 -0.2812
   15MOL   C311 5379   0.365   1.229   1.640 -0.0212  0.2754 -0.6511
   15MOL   C312 5380   0.458   1.290   1.536  0.0665 -0.0663 -0.2036
   15MOL   C313 5381   0.393   1.285   1.394 -0.0726 -0.0510  0.0837
   15MOL   H314 5382   7.694   1.354   1.883 -0.4631 -0.1486  0.4386
   15MOL   H315 5383   0.033   1.469   1.766 -0.0290  0.8490  0.5073
   15MOL   H316 5384   0.225   1.273   1.883 -1.8774 -0.1156  1.4790
   15MOL   H317 5385   0.262   1.420   1.660  1.6817 -0.7191 -1.2159
   15MOL   H318 5386   0.179   1.297   1.574  1.7057 -1.8940 -1.4595
   15MOL   H319 5387   0.334   1.129   1.611 -0.1282  0.3695 -0.8638
   15MOL   H320 5388   0.412   1.208   1.736  0.5352 -2.9379 -1.5685
   15MOL   H321 5389   0.482   1.392   1.568 -0.1003  0.7202 -2.4719
   15MOL   H322 5390   0.552   1.235   1.534 -0.6695 -1.3757  0.6491
   15MOL   H323 5391   0.363   1.182   1.373  2.0639 -0.5752 -0.4317
   15MOL   H324 5392   0.459   1.304   1.310  2.0360 -1.0838  1.4592
   15MOL   H325 5393   0.301   1.342   1.379  0.1675  0.7460  1.5135
   15MOL   C326 5394   0.085   1.153   1.794 -0.3223 -0.8997  0.4599
   15MOL   C327 5395   0.057   1.089   1.930 -0.6739 -0.5098  0.5546
   15MOL   C328 5396   7.641   1.038   1.942 -0.3474  0.6920  0.1354
   15MOL   C329 5397   7.617   0.907   1.860  0.0229  0.4271 -0.6677
   15MOL   C330 5398   7.473   0.895   1.816 -0.3385  0.3514  0.2558
   15MOL   C331 5399   7.447   0.791   1.706  0.2780 -0.2605 -0.0605
   15MOL   H332 5400   0.144   1.084   1.734  1.5942  0.6285  0.5293
   15MOL   H333 5401   7.720   1.169   1.738 -1.0775 -1.4338  1.5098
   15MOL   H334 5402   0.062   1.163   2.010  1.1085 -0.2175  0.2119
   15MOL   H335 5403   7.620   1.035   2.049 -2.6602 -3.4448 -0.3499
   15MOL   H336 5404   7.572   1.116   1.908 -0.0707 -0.2707 -2.7016
   15MOL   H337 5405   7.637   0.824   1.927 -1.0841  1.7835  1.3858
   15MOL   H338 5406   7.677   0.904   1.769  1.8434  1.7717  0.4466
   15MOL   H339 5407   7.400   0.864   1.891 -0.5200  1.5077  0.5779
   15MOL   H340 5408   7.440   0.988   1.770  0.2284  0.1573 -0.5605
   15MOL   H341 5409   7.520   0.814   1.629  1.3823 -1.6317  0.5587
   15MOL   H342 5410   7.347   0.794   1.661 -0.4123  2.6365  1.5589
   15MOL   H343 5411   7.471   0.693   1.748  2.9042  0.3503 -0.0385
   15MOL   C344 5412   0.168   0.982   1.958 -0.6060  0.4219 -0.1215
   15MOL   C345 5413   0.160   0.928   2.107  0.5543  0.1644  0.9193
   15MOL   C346 5414   0.260   0.811   2.126 -0.3287  0.8020 -0.1095
   15MOL   C347 5415   0.406   0.838   2.087 -0.3305  0.3838  0.1713
   15MOL   C348 5416   0.467   0.969   2.139 -0.0828  0.0499 -0.0114
   15MOL   C349 5417   0.622   0.966   2.117 -0.0417 -0.0831  0.2968
   15MOL   H350 5418   0.159   0.904   1.882  1.0688 -0.7943  0.8986
   15MOL   H351 5419   0.261   1.038   1.948  0.1132 -0.5718  0.8491
   15MOL   H352 5420   0.058   0.899   2.129  0.1088  1.1067  0.1369
   15MOL   H353 5421   0.269   0.785   2.232  3.3755 -1.3820 -0.8821
   15MOL   H354 5422   0.223   0.721   2.077 -1.0298  0.9572  0.1299
   15MOL   H355 5423   0.471   0.761   2.128  0.6046 -0.2010 -2.3165
   15MOL   H356 5424   0.411   0.831   1.978  0.3136 -2.2734  0.3452
   15MOL   H357 5425   0.423   1.060   2.099  0.2559 -0.0475 -0.6213
   15MOL   H358 5426   0.453   0.987   2.245  0.0888  1.0090 -0.1544
   15MOL   H359 5427   0.696   1.031   2.164  1.1337 -0.7935 -0.5565
   15MOL   H360 5428   0.668   0.868   2.121 -0.6541 -0.3059  2.3797
   15MOL   H361 5429   0.638   0.983   2.011  1.7328 -0.0294  0.5508
   15MOL   H362 5430   0.190   1.009   2.173 -0.5216  1.6467 -0.3812
   16MOL     C1 5431   1.768   1.047   5.508  0.6044  0.6563  0.2459
   16MOL     C2 5432   1.782   1.154   5.401  0.2281 -0.1657  0.8328
   16MOL     C3 5433   1.651   1.156   5.318  0.2378  0.4431  0.9720
   16MOL     C4 5434   1.624   1.027   5.236 -0.1201 -0.2146  0.8133
   16MOL     C5 5435   1.478   1.017   5.184  0.3394  0.2054  0.2044
   16MOL     C6 5436   1.441   1.128   5.075  0.8595  0.7996 -0.5251
   16MOL     H7 5437   1.663   1.046   5.535 -0.0540  1.9187 -2.1555
   16MOL     H8 5438   1.791   0.955   5.453 -1.5255  0.3672 -0.1778
   16MOL     H9 5439   1.790   1.248   5.457  2.4018  0.4606 -0.4683
   16MOL    H10 5440   1.640   1.236   5.244 -1.5963 -2.0941 -1.5966
   16MOL    H11 5441   1.565   1.161   5.385 -1.0135 -0.1797 -0.5580
   16MOL    H12 5442   1.653   0.944   5.300 -2.8575 -1.0150  1.0593
   16MOL    H13 5443   1.686   1.025   5.146  0.6442  0.3573  1.3071
   16MOL    H14 5444   1.469   0.920   5.135  1.8220 -0.2674  0.8404
   16MOL    H15 5445   1.418   1.005   5.274 -0.5437 -1.5245 -0.5862
   16MOL    H16 5446   1.475   1.230   5.089 -0.4859  1.3480 -1.1911
   16MOL    H17 5447   1.334   1.136   5.056  0.6700  1.3056  0.7047
   16MOL    H18 5448   1.483   1.092   4.981  3.6165 -1.6249  1.5243
   16MOL    H19 5449   1.833   1.057   5.595  1.9506 -2.5237 -0.3073
   16MOL    C20 5450   1.902   1.129   5.308  0.9846  0.0566 -0.5895
   16MOL    C21 5451   1.937   1.234   5.202 -0.0143  0.1978 -0.5492
   16MOL    C22 5452   1.980   1.377   5.246  0.1902 -0.2538  0.0131
   16MOL    C23 5453   1.954   1.489   5.136  0.4820 -0.5140  0.0826
   16MOL    C24 5454   1.811   1.534   5.110  0.2515 -0.3472 -0.3110
   16MOL    C25 5455   1.752   1.603   5.231  0.0575  0.1575  0.0277
   16MOL    H26 5456   1.898   1.035   5.252 -0.2433 -0.6862  0.7026
   16MOL    H27 5457   1.993   1.109   5.364  1.3773  0.7988 -0.9578
   16MOL    H28 5458   1.849   1.250   5.139  0.0863  2.1970 -0.1989
   16MOL    H29 5459   2.084   1.381   5.276 -0.0884  1.1011  0.8660
   16MOL    H30 5460   1.918   1.400   5.333  1.1422 -0.3571  0.7258
   16MOL    H31 5461   2.015   1.479   5.046 -0.5102 -0.8419 -0.5620
   16MOL    H32 5462   2.002   1.575   5.183 -0.0826  0.0534 -0.3579
   16MOL    H33 5463   1.798   1.594   5.020  1.3313 -1.8830 -1.5185
   16MOL    H34 5464   1.749   1.446   5.093 -1.1310  0.8065 -1.3857
   16MOL    H35 5465   1.826   1.672   5.272  2.9364 -1.9014 -1.5323
   16MOL    H36 5466   1.658   1.649   5.201  1.3865  3.2561  0.3541
   16MOL    H37 5467   1.720   1.535   5.310  0.2541  0.5003  0.4047
   16MOL    C38 5468   2.048   1.166   5.114 -0.5977 -0.5524 -0.1535
   16MOL    C39 5469   2.064   1.201   4.965 -0.3213  0.6796 -0.1234
   16MOL    C40 5470   2.192   1.128   4.902 -0.3443 -0.1092  0.6752
   16MOL    C41 5471   2.169   0.979   4.913 -0.3979  0.5023 -0.4342
   16MOL    C42 5472   2.268   0.896   4.832  0.2206 -0.2534  0.3850
   16MOL    C43 5473   2.262   0.745   4.861 -0.1179  0.2934 -0.7107
   16MOL    H44 5474   2.052   1.057   5.124 -1.0054 -0.5322  0.2093
   16MOL    H45 5475   2.149   1.191   5.146 -0.1097 -3.1273  0.5084
   16MOL    H46 5476   2.080   1.309   4.957 -0.1534  0.6904  0.3374
   16MOL    H47 5477   2.202   1.154   4.797 -1.4579 -2.0568  0.0625
   16MOL    H48 5478   2.282   1.157   4.958 -1.9205  2.7489  1.8575
   16MOL    H49 5479   2.187   0.951   5.016  1.1164 -0.2081 -0.8729
   16MOL    H50 5480   2.067   0.952   4.888 -0.6663  1.1158  0.0204
   16MOL    H51 5481   2.250   0.921   4.728  1.1326 -0.9739  0.0467
   16MOL    H52 5482   2.367   0.933   4.860 -0.2785 -0.7543  3.0012
   16MOL    H53 5483   2.279   0.737   4.969 -1.2946 -0.3983 -0.5698
   16MOL    H54 5484   2.339   0.697   4.802  1.2526  2.9180 -1.1595
   16MOL    H55 5485   2.165   0.696   4.855 -0.4883  0.7832  0.8911
   16MOL    C56 5486   1.930   1.186   4.886 -0.2696 -0.5529 -0.2630
   16MOL    C57 5487   1.935   1.181   4.735  0.4793 -0.0122 -0.3725
   16MOL    C58 5488   1.979   1.317   4.676 -0.1543 -0.8622 -0.8466
   16MOL    C59 5489   1.882   1.438   4.676 -0.3313  0.1940 -0.3149
   16MOL    C60 5490   1.957   1.571   4.651 -0.5949 -0.2013  0.2130
   16MOL    C61 5491   1.868   1.690   4.626 -0.4930  0.3534  0.3467
   16MOL    H62 5492   1.884   1.093   4.921 -0.7959 -0.1873  0.0229
   16MOL    H63 5493   1.858   1.261   4.919 -0.4894 -0.5300 -0.7900
   16MOL    H64 5494   2.012   1.113   4.700  0.8458 -0.1423  0.6703
   16MOL    H65 5495   2.059   1.348   4.743 -1.6274 -1.0230  1.0310
   16MOL    H66 5496   2.027   1.305   4.580  1.4082 -2.1682  0.0712
   16MOL    H67 5497   1.825   1.451   4.768  0.8794 -0.2140  0.5139
   16MOL    H68 5498   1.817   1.424   4.590 -2.0938  2.5005  0.5775
   16MOL    H69 5499   2.035   1.592   4.724 -0.7222  0.3754  0.1880
   16MOL    H70 5500   2.013   1.544   4.561  2.2298 -0.7184  2.0735
   16MOL    H71 5501   1.810   1.701   4.718 -0.5581 -0.9174  0.4725
   16MOL    H72 5502   1.911   1.786   4.597  0.4281 -0.4489 -1.0258
   16MOL    H73 5503   1.803   1.661   4.544  0.0690 -0.9089  0.3331
   16MOL    C74 5504   1.797   1.129   4.683  0.5803 -0.6174 -0.3958
   16MOL    C75 5505   1.771   1.116   4.530  0.0228  0.3093  0.0814
   16MOL    C76 5506   1.848   0.990   4.483  0.2593  0.9105 -0.7980
   16MOL    C77 5507   1.914   0.993   4.347  0.6725  0.0225 -1.0448
   16MOL    C78 5508   2.016   0.883   4.328 -0.8154  0.3396 -0.3045
   16MOL    C79 5509   2.096   0.897   4.194 -0.4481  0.1738 -0.5071
   16MOL    H80 5510   1.770   1.036   4.734  1.1887 -1.7945 -2.2016
   16MOL    H81 5511   1.721   1.188   4.735 -0.3584 -0.2602 -2.1364
   16MOL    H82 5512   1.825   1.197   4.481 -0.7490 -0.5301 -2.2097
   16MOL    H83 5513   1.921   0.946   4.551 -1.4317  0.8032  1.0126
   16MOL    H84 5514   1.778   0.908   4.469  0.5660  0.7745 -1.5488
   16MOL    H85 5515   1.832   0.978   4.277 -0.4444 -0.5078  0.3699
   16MOL    H86 5516   1.962   1.089   4.328  0.6243  0.2489 -0.0388
   16MOL    H87 5517   1.967   0.786   4.337  0.1580 -0.1010  0.3595
   16MOL    H88 5518   2.088   0.898   4.409  0.0238 -2.4460 -0.4625
   16MOL    H89 5519   2.041   0.877   4.102 -1.7548  2.1542 -0.1830
   16MOL    H90 5520   2.130   1.000   4.191  1.1510 -0.3563 -1.4896
   16MOL    H91 5521   2.187   0.836   4.190 -2.2298 -2.5757 -0.4234
   16MOL    C92 5522   1.623   1.126   4.495  0.0660  0.5948 -0.1030
   16MOL    C93 5523   1.570   1.150   4.351  0.6671  0.7903  0.4700
   16MOL    C94 5524   1.419   1.119   4.334 -0.0054 -0.4298  0.7055
   16MOL    C95 5525   1.370   0.982   4.385  0.4781  0.4937  0.0549
   16MOL    C96 5526   1.449   0.861   4.343 -0.4047  0.2751 -0.8074
   16MOL    C97 5527   1.360   0.740   4.352  0.0580 -0.0596  0.2159
   16MOL    H98 5528   1.586   1.034   4.540  0.4981  0.3943 -0.1549
   16MOL    H99 5529   1.582   1.200   4.563  1.4225  0.8627  0.4275
   16MOL   H100 5530   1.620   1.075   4.289  1.2726  1.2877  0.3482
   16MOL   H101 5531   1.395   1.118   4.228 -0.6886 -0.9693  0.8572
   16MOL   H102 5532   1.353   1.193   4.379 -1.3336 -0.3733 -1.2803
   16MOL   H103 5533   1.344   0.986   4.491  1.2516  1.6625  0.2082
   16MOL   H104 5534   1.277   0.979   4.329  0.4336  3.1814 -0.0695
   16MOL   H105 5535   1.474   0.880   4.239 -0.4564  1.6930 -0.5752
   16MOL   H106 5536   1.540   0.850   4.402 -0.0974 -0.5355 -1.4210
   16MOL   H107 5537   1.260   0.760   4.314 -0.6777  0.6628  2.4599
   16MOL   H108 5538   1.393   0.659   4.286 -0.8904 -0.1592 -0.1479
   16MOL   H109 5539   1.347   0.712   4.456 -0.1108 -0.4312  0.0988
   16MOL   C110 5540   1.611   1.292   4.307  0.0680 -0.4001 -0.1692
   16MOL   C111 5541   1.553   1.362   4.179  0.4551 -0.2443 -0.2075
   16MOL   C112 5542   1.588   1.291   4.049 -0.4609  0.3283  0.3735
   16MOL   C113 5543   1.736   1.275   4.016 -0.4948 -0.0905  0.7340
   16MOL   C114 5544   1.754   1.251   3.867  0.2931  0.4473 -0.4244
   16MOL   C115 5545   1.903   1.250   3.835  0.1557  0.0349  0.1374
   16MOL   H116 5546   1.581   1.363   4.384  2.7457 -0.3457  0.8968
   16MOL   H117 5547   1.719   1.297   4.291  0.2930  1.2367  1.5859
   16MOL   H118 5548   1.445   1.347   4.184  0.1718  2.1109  1.0169
   16MOL   H119 5549   1.534   1.319   3.959  1.8726  0.0290 -1.1514
   16MOL   H120 5550   1.563   1.186   4.059  0.2003  0.0369 -0.9633
   16MOL   H121 5551   1.782   1.192   4.070 -2.1153  0.0423  2.3819
   16MOL   H122 5552   1.789   1.368   4.041 -0.9034  0.0692  1.0008
   16MOL   H123 5553   1.722   1.336   3.806 -0.2929 -0.0600 -0.8330
   16MOL   H124 5554   1.706   1.160   3.832  1.2917  0.2725 -1.3626
   16MOL   H125 5555   1.954   1.163   3.877 -1.1215 -0.7067  0.1557
   16MOL   H126 5556   1.905   1.254   3.727 -0.8423 -0.0301  0.1140
   16MOL   H127 5557   1.954   1.337   3.878  0.3063  0.9277 -1.8262
   16MOL   C128 5558   1.601   1.504   4.168 -0.1613 -0.1986  0.2993
   16MOL   C129 5559   1.504   1.612   4.216 -0.1017 -0.0543 -0.2933
   16MOL   C130 5560   1.548   1.760   4.186 -0.4551 -0.3313 -0.0857
   16MOL   C131 5561   1.673   1.799   4.260 -0.4670  0.1491  0.8105
   16MOL   C132 5562   1.702   1.945   4.257 -0.1214 -0.6606  0.4479
   16MOL   C133 5563   1.839   1.974   4.328  0.2337  0.2721  0.4209
   16MOL   H134 5564   1.608   1.523   4.061 -2.3919  1.4268  0.4045
   16MOL   H135 5565   1.700   1.518   4.213 -0.1495 -2.2435  0.9669
   16MOL   H136 5566   1.409   1.604   4.164 -0.7833  2.7541  0.4465
   16MOL   H137 5567   1.577   1.763   4.081  2.9384 -0.6053  0.7745
   16MOL   H138 5568   1.471   1.835   4.201 -3.5392 -3.5683  0.8595
   16MOL   H139 5569   1.764   1.744   4.237 -1.7494 -1.6767  0.0193
   16MOL   H140 5570   1.655   1.772   4.364 -0.8898  1.7906  1.1823
   16MOL   H141 5571   1.712   1.970   4.151  1.4130 -2.1506  0.2339
   16MOL   H142 5572   1.628   2.007   4.308  0.1029 -0.4032  0.4639
   16MOL   H143 5573   1.920   1.903   4.312 -2.0197 -2.1681 -0.4356
   16MOL   H144 5574   1.830   1.970   4.436  0.0510 -0.1391  0.3920
   16MOL   H145 5575   1.873   2.071   4.291  0.2524  0.1854  0.2116
   16MOL   C146 5576   1.458   1.593   4.366 -0.7420  0.3357  0.7596
   16MOL   C147 5577   1.372   1.707   4.432 -0.1672 -0.3771  0.0620
   16MOL   C148 5578   1.336   1.670   4.580 -0.7107 -0.2818 -0.1882
   16MOL   C149 5579   1.452   1.643   4.672  0.5141  0.5737 -1.5016
   16MOL   C150 5580   1.438   1.703   4.812 -0.6096  0.1127 -0.1599
   16MOL   C151 5581   1.544   1.643   4.908 -0.1119  0.2040 -0.1248
   16MOL   H152 5582   1.396   1.503   4.370  0.2389 -0.3222  1.3895
   16MOL   H153 5583   1.542   1.571   4.432  2.1840  0.3704 -2.8187
   16MOL   H154 5584   1.433   1.798   4.435 -0.8844  0.1020  0.1472
   16MOL   H155 5585   1.255   1.598   4.590 -0.5184 -0.4297  0.3277
   16MOL   H156 5586   1.299   1.763   4.623  4.4763  1.5220  0.7559
   16MOL   H157 5587   1.470   1.536   4.675  1.1242  0.7386  1.1193
   16MOL   H158 5588   1.538   1.695   4.629  0.8791  0.2940 -1.1069
   16MOL   H159 5589   1.335   1.683   4.842 -0.4561 -1.6534 -0.7366
   16MOL   H160 5590   1.451   1.810   4.799  2.0263 -0.1752 -0.1281
   16MOL   H161 5591   1.649   1.659   4.883  0.4800 -2.0922  0.8337
   16MOL   H162 5592   1.520   1.675   5.010 -0.8731  1.0844 -0.5721
   16MOL   H163 5593   1.534   1.536   4.926 -1.5074  0.6264  1.7530
   16MOL   C164 5594   1.235   1.730   4.354  0.3522 -0.5801 -0.7141
   16MOL   C165 5595   1.150   1.856   4.388 -0.6914  0.3603 -0.0117
   16MOL   C166 5596   1.219   1.978   4.336  0.1548 -0.4310 -0.4959
   16MOL   C167 5597   1.169   2.114   4.391  0.8007 -0.9548 -0.0945
   16MOL   C168 5598   1.234   2.238   4.321 -0.2717  0.0424  0.0628
   16MOL   C169 5599   1.179   2.372   4.360 -0.2614  0.1217 -0.5229
   16MOL   H170 5600   1.242   1.721   4.246  0.1105  2.0071 -0.9752
   16MOL   H171 5601   1.173   1.642   4.368 -0.0740 -0.8263 -3.7292
   16MOL   H172 5602   1.148   1.860   4.497 -0.9701  0.7404 -0.0279
   16MOL   H173 5603   1.212   1.976   4.228 -1.3981 -1.3217 -0.3891
   16MOL   H174 5604   1.328   1.966   4.335  0.3805  1.4234 -1.5252
   16MOL   H175 5605   1.164   2.124   4.500  0.7948  2.0379 -0.3357
   16MOL   H176 5606   1.065   2.123   4.358  1.0425 -0.1403 -0.6487
   16MOL   H177 5607   1.227   2.224   4.213  1.7811 -1.6970  0.1255
   16MOL   H178 5608   1.339   2.235   4.350 -0.3586 -0.4704  0.3397
   16MOL   H179 5609   1.221   2.449   4.294  0.3525  0.8947  0.7480
   16MOL   H180 5610   1.210   2.394   4.462  0.9166 -1.9633 -0.4051
   16MOL   H181 5611   1.071   2.364   4.348 -0.3210  0.9237 -0.5820
   16MOL   C182 5612   1.008   1.845   4.323 -0.5154  0.0998 -0.5032
   16MOL   C183 5613   0.907   1.765   4.410  0.6029  0.0075  0.0516
   16MOL   C184 5614   0.777   1.714   4.332  0.1575  0.2993 -0.0248
   16MOL   C185 5615   0.695   1.838   4.286  0.5168  0.9629  0.6248
   16MOL   C186 5616   0.589   1.804   4.187  0.4218  0.3207 -0.0456
   16MOL   C187 5617   0.509   1.918   4.131  0.0128 -0.5639 -0.1873
   16MOL   H188 5618   0.960   1.942   4.304 -2.5883 -0.6289  0.8195
   16MOL   H189 5619   1.031   1.806   4.224  1.6290  1.2080 -0.4643
   16MOL   H190 5620   0.955   1.670   4.437 -0.6612 -0.5073  0.5253
   16MOL   H191 5621   0.809   1.656   4.245  0.7100  0.9322 -0.2526
   16MOL   H192 5622   0.708   1.660   4.396 -0.9462  1.5510 -0.1226
   16MOL   H193 5623   0.768   1.909   4.247  0.5994  0.4435 -0.1891
   16MOL   H194 5624   0.651   1.878   4.377 -0.0966  3.5498 -0.7465
   16MOL   H195 5625   0.529   1.722   4.225 -0.9506  0.9200 -0.8596
   16MOL   H196 5626   0.641   1.764   4.101  1.6988  0.2111  0.7502
   16MOL   H197 5627   0.419   1.883   4.080  0.8637 -0.1760 -2.0017
   16MOL   H198 5628   0.582   1.983   4.083 -0.0802  0.6160  1.2275
   16MOL   H199 5629   0.460   1.980   4.206 -1.3492  0.4455 -1.8654
   16MOL   C200 5630   0.870   1.831   4.551 -0.3176  0.1859 -0.8002
   16MOL   C201 5631   0.927   1.739   4.669  0.0325  0.4540 -0.0106
   16MOL   C202 5632   0.934   1.830   4.796  0.3690 -0.2031 -0.9376
   16MOL   C203 5633   1.044   1.937   4.786  0.1122  0.2216 -0.0831
   16MOL   C204 5634   1.031   2.034   4.901 -0.2575 -0.1060  0.4624
   16MOL   C205 5635   1.129   2.153   4.908 -0.2794 -0.0723  0.0180
   16MOL   H206 5636   0.762   1.834   4.561 -0.1511  2.7046  0.9964
   16MOL   H207 5637   0.897   1.937   4.553 -1.5102  0.4865  0.7898
   16MOL   H208 5638   1.027   1.711   4.636  0.2638  1.1599  0.0817
   16MOL   H209 5639   0.944   1.773   4.888  0.8496 -0.4364 -1.1328
   16MOL   H210 5640   0.836   1.875   4.810 -0.5741 -2.5232  0.2475
   16MOL   H211 5641   1.039   1.993   4.692  2.3348 -1.3486 -1.1833
   16MOL   H212 5642   1.142   1.891   4.776  0.7095  1.5629 -0.6046
   16MOL   H213 5643   1.045   1.978   4.993 -0.6555 -4.3579 -1.9556
   16MOL   H214 5644   0.928   2.070   4.901 -0.8547 -1.7757  1.9991
   16MOL   H215 5645   1.127   2.193   5.010  2.4598  1.7709 -0.6115
   16MOL   H216 5646   1.233   2.126   4.893 -0.4943 -0.6444 -0.4805
   16MOL   H217 5647   1.106   2.232   4.837 -0.1643 -0.5029 -0.5013
   16MOL   C218 5648   0.839   1.617   4.698  0.1154 -0.2157  0.2691
   16MOL   C219 5649   0.916   1.502   4.750  0.0450 -1.1668  0.5230
   16MOL   C220 5650   1.007   1.430   4.652  0.2476 -0.1148 -0.3243
   16MOL   C221 5651   1.091   1.319   4.720 -0.0214 -0.2824 -1.0381
   16MOL   C222 5652   1.210   1.275   4.640 -0.9751  0.5281 -0.4771
   16MOL   C223 5653   1.300   1.174   4.717 -0.2425 -0.1007  0.0947
   16MOL   H224 5654   0.758   1.644   4.766 -0.2832  2.9920 -1.3443
   16MOL   H225 5655   0.795   1.587   4.603  0.9159  0.1609 -0.2280
   16MOL   H226 5656   0.985   1.542   4.824 -0.6033  2.1491 -0.5679
   16MOL   H227 5657   1.076   1.507   4.618  0.3368 -1.6918 -3.9121
   16MOL   H228 5658   0.956   1.388   4.566 -1.9680  0.8636  0.4792
   16MOL   H229 5659   1.040   1.226   4.745  0.5220 -0.2794  0.1420
   16MOL   H230 5660   1.132   1.353   4.815 -1.1339 -0.7269 -0.3933
   16MOL   H231 5661   1.179   1.232   4.544 -1.9806 -1.3672  0.6778
   16MOL   H232 5662   1.277   1.357   4.614  1.1909 -0.4745  1.6957
   16MOL   H233 5663   1.228   1.093   4.720 -2.4176  1.7857  1.2593
   16MOL   H234 5664   1.334   1.210   4.814 -1.7704  0.6047  0.3874
   16MOL   H235 5665   1.386   1.143   4.659 -1.7225 -2.4182 -0.9174
   16MOL   C236 5666   0.821   1.406   4.825  0.5328 -0.7149  0.1696
   16MOL   C237 5667   0.844   1.396   4.974 -0.8245  0.2598 -0.0204
   16MOL   C238 5668   0.776   1.276   5.048 -0.2685  0.0464  0.2777
   16MOL   C239 5669   0.818   1.138   4.994  0.6562  0.9117 -0.3440
   16MOL   C240 5670   0.820   1.038   5.109 -0.2701 -0.9711  0.3465
   16MOL   C241 5671   0.685   1.025   5.176  0.8958  0.3730  0.1896
   16MOL   H242 5672   0.715   1.405   4.799  0.6177  1.3854 -0.2809
   16MOL   H243 5673   0.828   1.304   4.786  0.8175 -0.3000 -0.8784
   16MOL   H244 5674   0.952   1.379   4.982 -1.1990 -1.8141  0.6556
   16MOL   H245 5675   0.810   1.281   5.151 -0.5098 -1.3460  0.4367
   16MOL   H246 5676   0.668   1.288   5.046 -0.3975 -0.4356  2.8932
   16MOL   H247 5677   0.912   1.149   4.939  0.2593 -1.2084 -1.5214
   16MOL   H248 5678   0.757   1.104   4.910  2.3635 -1.0930 -0.8138
   16MOL   H249 5679   0.845   0.937   5.076 -0.0682 -0.3509 -1.4881
   16MOL   H250 5680   0.903   1.065   5.174  0.5863 -0.7729 -0.8113
   16MOL   H251 5681   0.619   0.973   5.106  1.6321 -0.3364  0.0151
   16MOL   H252 5682   0.686   0.982   5.276  3.8395  0.8769  0.4123
   16MOL   H253 5683   0.638   1.121   5.196  0.5815  0.1053  0.7350
   16MOL   C254 5684   0.820   1.530   5.050  0.0564  0.7273 -0.2161
   16MOL   C255 5685   0.912   1.564   5.170  0.1368  0.0780  1.0930
   16MOL   C256 5686   0.838   1.657   5.268 -0.3748  0.1069  0.6818
   16MOL   C257 5687   0.817   1.805   5.231 -0.2561  0.5686  0.4615
   16MOL   C258 5688   0.758   1.886   5.343 -0.7601 -0.0436 -0.1922
   16MOL   C259 5689   0.727   2.031   5.296 -0.6134 -0.0400 -0.6196
   16MOL   H260 5690   0.714   1.528   5.075 -0.1972 -0.2978 -1.2893
   16MOL   H261 5691   0.838   1.616   4.986  1.6970  0.9942  0.5884
   16MOL   H262 5692   0.925   1.470   5.224 -1.1252  0.3140  1.8118
   16MOL   H263 5693   0.741   1.611   5.286 -0.3505 -1.2318 -2.3121
   16MOL   H264 5694   0.890   1.654   5.364  1.6142  0.3394 -0.3389
   16MOL   H265 5695   0.909   1.851   5.194 -0.4242  0.4691 -0.0871
   16MOL   H266 5696   0.748   1.798   5.147  1.7787  0.0512 -1.2326
   16MOL   H267 5697   0.825   1.901   5.428 -1.3263  0.8548  0.1005
   16MOL   H268 5698   0.664   1.842   5.377 -1.2993 -0.1839 -1.8033
   16MOL   H269 5699   0.639   2.035   5.232 -0.5114  2.7258 -0.6586
   16MOL   H270 5700   0.810   2.087   5.253  2.2443 -1.5476  2.6623
   16MOL   H271 5701   0.678   2.092   5.373  0.4103  0.2527 -0.1827
   16MOL   C272 5702   1.050   1.599   5.118  0.7708  0.6821  0.0079
   16MOL   C273 5703   1.164   1.615   5.218 -0.2879 -0.2840  0.5555
   16MOL   C274 5704   1.281   1.702   5.170  1.0019  0.6595  0.1770
   16MOL   C275 5705   1.259   1.849   5.213  0.2290 -0.1998 -0.0874
   16MOL   C276 5706   1.371   1.941   5.163  0.3028  0.0756 -0.3635
   16MOL   C277 5707   1.344   2.092   5.189  0.0909 -0.0910 -1.0132
   16MOL   H278 5708   1.084   1.531   5.040  1.9095 -0.2951  1.3377
   16MOL   H279 5709   1.041   1.694   5.065 -2.6393  0.1851 -0.4086
   16MOL   H280 5710   1.110   1.655   5.304 -0.7576  0.5530 -0.1194
   16MOL   H281 5711   1.292   1.694   5.061 -0.4837 -0.9062  0.1294
   16MOL   H282 5712   1.378   1.672   5.211  1.3115  1.4883  0.0625
   16MOL   H283 5713   1.247   1.861   5.321 -0.4929  0.4528 -0.2273
   16MOL   H284 5714   1.165   1.885   5.171  0.0696 -0.2517  0.2176
   16MOL   H285 5715   1.470   1.912   5.199 -0.1451  0.8624  1.6114
   16MOL   H286 5716   1.370   1.914   5.058 -0.6154 -2.2170  0.2007
   16MOL   H287 5717   1.377   2.154   5.106 -0.6845  0.4470 -0.9201
   16MOL   H288 5718   1.240   2.123   5.197  0.0294 -0.5830  0.2665
   16MOL   H289 5719   1.390   2.128   5.281 -2.5758  0.3441  0.1879
   16MOL   C290 5720   1.209   1.474   5.254  0.0903 -0.5506  0.5808
   16MOL   C291 5721   1.234   1.448   5.402  0.0954  0.5713 -0.2648
   16MOL   C292 5722   1.225   1.293   5.435  0.8548  0.7413 -1.7251
   16MOL   C293 5723   1.084   1.237   5.447  0.0647  0.7965  0.6048
   16MOL   C294 5724   1.073   1.082   5.465 -0.2533 -0.2478 -0.6578
   16MOL   C295 5725   0.939   1.034   5.508 -0.4914  1.2002  0.0660
   16MOL   H296 5726   1.302   1.448   5.204 -1.5690 -1.8134 -1.9362
   16MOL   H297 5727   1.139   1.395   5.225  0.7733 -0.5137 -1.2512
   16MOL   H298 5728   1.143   1.493   5.443 -1.5516 -0.0448 -3.1416
   16MOL   H299 5729   1.286   1.263   5.520 -1.3984 -1.6074 -0.8716
   16MOL   H300 5730   1.282   1.246   5.354  0.6806  1.4725 -2.2759
   16MOL   H301 5731   1.033   1.282   5.533 -1.4778 -1.6911  1.0357
   16MOL   H302 5732   1.012   1.273   5.374  1.5656  2.4192 -0.1032
   16MOL   H303 5733   1.149   1.060   5.540  0.0676 -1.2830 -1.2702
   16MOL   H304 5734   1.119   1.039   5.376  0.5818  2.9456 -1.8266
   16MOL   H305 5735   0.911   1.078   5.604  1.5236  0.9581  0.7901
   16MOL   H306 5736   0.934   0.926   5.521  1.3300  0.9812 -0.9612
   16MOL   H307 5737   0.861   1.069   5.441 -0.8756  3.1938  1.5078
   16MOL   C308 5738   1.364   1.507   5.462 -0.1696  0.7699 -0.2346
   16MOL   C309 5739   1.363   1.514   5.620  0.7280  0.1884 -0.2634
   16MOL   C310 5740   1.271   1.630   5.678 -0.3608  0.3269  0.3577
   16MOL   C311 5741   1.136   1.584   5.721  0.2391  0.2330 -0.2244
   16MOL   C312 5742   1.053   1.710   5.748  0.0330 -0.9934 -0.0099
   16MOL   C313 5743   0.905   1.676   5.768  0.2328 -0.0617  0.2187
   16MOL   H314 5744   1.448   1.447   5.425 -1.7335 -0.5049 -1.7977
   16MOL   H315 5745   1.390   1.605   5.422  1.2498  0.2558 -0.6237
   16MOL   H316 5746   1.330   1.425   5.673  1.5849 -0.1098 -0.2237
   16MOL   H317 5747   1.254   1.705   5.601 -1.8214 -2.0424 -1.6823
   16MOL   H318 5748   1.329   1.678   5.757  2.0220 -2.3277  0.2857
   16MOL   H319 5749   1.141   1.514   5.805  1.7776 -0.3760 -0.8208
   16MOL   H320 5750   1.096   1.524   5.639  0.6163 -1.0302  0.5004
   16MOL   H321 5751   1.100   1.770   5.826 -1.1815 -0.3733  0.2445
   16MOL   H322 5752   1.048   1.776   5.662  0.5542 -0.7147  0.1716
   16MOL   H323 5753   0.890   1.645   5.871 -1.2970 -1.6377 -0.4709
   16MOL   H324 5754   0.871   1.591   5.710  0.5734 -0.0874  0.0526
   16MOL   H325 5755   0.844   1.765   5.751 -0.9759 -0.8815  0.2559
   16MOL   C326 5756   1.497   1.537   5.686  0.7220  0.0499  0.1055
   16MOL   C327 5757   1.602   1.429   5.650 -0.0054  0.2056 -0.4736
   16MOL   C328 5758   1.738   1.477   5.708  0.2140 -0.0711 -0.0578
   16MOL   C329 5759   1.805   1.559   5.603 -0.3363  0.4268 -0.1061
   16MOL   C330 5760   1.947   1.603   5.645 -0.5139  0.4909  0.0831
   16MOL   C331 5761   2.014   1.709   5.553 -0.4925  0.3152  0.2349
   16MOL   H332 5762   1.498   1.561   5.792 -1.0653 -1.0511  0.3840
   16MOL   H333 5763   1.535   1.630   5.644 -0.3870 -0.1770 -1.4463
   16MOL   H334 5764   1.609   1.422   5.541 -1.9904 -0.2065 -0.5921
   16MOL   H335 5765   1.724   1.531   5.802 -3.1633 -0.5854 -0.2267
   16MOL   H336 5766   1.805   1.392   5.723  0.7586  0.7731  2.5493
   16MOL   H337 5767   1.736   1.636   5.569 -0.0984 -0.2321 -2.1675
   16MOL   H338 5768   1.826   1.491   5.520 -1.2068  1.7062 -1.3934
   16MOL   H339 5769   1.944   1.646   5.745  1.9138 -1.4309  1.0470
   16MOL   H340 5770   2.020   1.523   5.662 -0.1991  0.7703  0.0528
   16MOL   H341 5771   2.112   1.733   5.594  0.1272 -4.0356  1.5768
   16MOL   H342 5772   1.958   1.802   5.546  1.2018  1.2688 -0.9529
   16MOL   H343 5773   2.019   1.671   5.451 -2.7839  0.5037  0.0288
   16MOL   C344 5774   1.563   1.296   5.712  0.3693  0.4457  0.7153
   16MOL   C345 5775   1.518   1.300   5.856 -0.1150  0.3649 -0.0903
   16MOL   C346 5776   1.502   1.160   5.915 -0.3652 -0.6587 -0.2647
   16MOL   C347 5777   1.484   1.151   6.059  0.1380  0.0508 -0.4258
   16MOL   C348 5778   1.479   1.000   6.105 -0.2928 -0.0603 -0.1874
   16MOL   C349 5779   1.458   0.991   6.256  0.3666 -0.5140  0.7504
   16MOL   H350 5780   1.478   1.253   5.661  0.6045 -1.4576  1.8766
   16MOL   H351 5781   1.646   1.228   5.694  0.5971  0.7794  0.4941
   16MOL   H352 5782   1.418   1.342   5.870 -0.8254 -0.8886 -1.2547
   16MOL   H353 5783   1.432   1.104   5.853 -1.4295 -1.2030  1.3824
   16MOL   H354 5784   1.595   1.108   5.893 -0.5962 -1.1375 -0.1199
   16MOL   H355 5785   1.568   1.187   6.119 -0.4345  0.2665  0.2491
   16MOL   H356 5786   1.399   1.209   6.095  0.4103 -0.8135  1.6819
   16MOL   H357 5787   1.404   0.951   6.043 -1.4824  1.0998  0.3068
   16MOL   H358 5788   1.577   0.957   6.086 -0.0655  0.7706 -0.9277
   16MOL   H359 5789   1.521   1.054   6.319  1.4645  2.1764 -2.8579
   16MOL   H360 5790   1.355   1.012   6.283  0.4050 -0.1698  0.6358
   16MOL   H361 5791   1.465   0.890   6.295 -0.0391 -1.5022 -1.6868
   16MOL   H362 5792   1.584   1.349   5.927 -0.4023  0.0791  0.3836
   17MOL     C1 5793   2.421   2.896   0.514  0.1997  0.6088 -0.6034
   17MOL     C2 5794   2.549   2.852   0.600 -0.6727  0.1801 -0.1236
   17MOL     C3 5795   2.618   2.969   0.660 -0.2959  0.4951 -0.5438
   17MOL     C4 5796   2.659   3.080   0.563 -0.5355 -0.4849 -0.4249
   17MOL     C5 5797   2.734   3.200   0.628  0.3111 -0.0300 -0.8602
   17MOL     C6 5798   2.771   3.311   0.535 -0.0283 -0.2383  0.3499
   17MOL     H7 5799   2.373   2.801   0.492  2.6959 -1.1187  1.0960
   17MOL     H8 5800   2.359   2.964   0.572 -1.9104 -1.1548 -0.7106
   17MOL     H9 5801   2.512   2.794   0.685  2.2263 -0.7683  0.5348
   17MOL    H10 5802   2.708   2.934   0.710  0.3295  0.9810 -1.3189
   17MOL    H11 5803   2.555   3.006   0.741  1.2593  2.9961 -0.4486
   17MOL    H12 5804   2.574   3.118   0.507 -1.7881  0.5943  2.1358
   17MOL    H13 5805   2.736   3.037   0.500  0.9193  1.7550 -0.2349
   17MOL    H14 5806   2.671   3.228   0.713 -0.2598  2.1208 -1.9605
   17MOL    H15 5807   2.821   3.161   0.681  0.2726 -0.7313 -1.3061
   17MOL    H16 5808   2.839   3.381   0.585  0.2463  1.2775 -2.0684
   17MOL    H17 5809   2.684   3.372   0.512  0.2888  0.3221  0.6075
   17MOL    H18 5810   2.822   3.296   0.440  1.6501 -0.6805  1.2953
   17MOL    H19 5811   2.428   2.959   0.425 -0.7365  2.9634  0.9620
   17MOL    C20 5812   2.643   2.757   0.513 -0.2839  0.1682 -0.6235
   17MOL    C21 5813   2.730   2.660   0.594 -0.0451  0.2199 -0.1940
   17MOL    C22 5814   2.647   2.555   0.668  0.3102  0.2549 -0.2941
   17MOL    C23 5815   2.715   2.495   0.797 -0.3672 -0.5057 -0.4494
   17MOL    C24 5816   2.620   2.379   0.855  0.8434  0.0833  0.3010
   17MOL    C25 5817   2.684   2.300   0.966  0.8543 -0.4488  0.1204
   17MOL    H26 5818   2.697   2.824   0.446 -1.2726  1.0772 -0.5390
   17MOL    H27 5819   2.576   2.701   0.447 -1.9587 -0.0544  1.2009
   17MOL    H28 5820   2.786   2.709   0.675 -0.0161  0.9758 -0.6728
   17MOL    H29 5821   2.633   2.472   0.599  0.1581  0.5033 -0.5616
   17MOL    H30 5822   2.548   2.587   0.700 -0.2188 -2.3076  0.7286
   17MOL    H31 5823   2.731   2.571   0.874  1.2636 -1.2253 -0.0777
   17MOL    H32 5824   2.813   2.451   0.780 -0.5860 -1.8819  1.6710
   17MOL    H33 5825   2.529   2.433   0.882  0.2357 -0.4993 -0.5631
   17MOL    H34 5826   2.587   2.323   0.767 -1.2054  2.3117 -0.4128
   17MOL    H35 5827   2.627   2.213   1.000  1.7932 -1.2200 -0.2813
   17MOL    H36 5828   2.779   2.259   0.934 -0.3117 -0.4023 -3.5937
   17MOL    H37 5829   2.722   2.359   1.049 -0.4062  0.3559  0.1446
   17MOL    C38 5830   2.838   2.601   0.500  0.5740  0.5930  0.8575
   17MOL    C39 5831   2.977   2.679   0.499  0.3079 -0.5677 -0.2255
   17MOL    C40 5832   3.055   2.634   0.627 -0.4096 -0.6700  0.1136
   17MOL    C41 5833   3.185   2.723   0.659  0.5483  0.2518  0.5844
   17MOL    C42 5834   3.141   2.866   0.702 -0.2773  0.1298  0.2495
   17MOL    C43 5835   3.261   2.958   0.734  0.1912  0.2201  0.3931
   17MOL    H44 5836   2.798   2.579   0.401  1.4544  1.9770  0.1728
   17MOL    H45 5837   2.848   2.502   0.544 -0.7092 -0.2102 -0.6038
   17MOL    H46 5838   2.954   2.786   0.504 -0.0032 -0.6879  1.0635
   17MOL    H47 5839   2.988   2.627   0.713 -0.2151 -2.0007  0.1647
   17MOL    H48 5840   3.099   2.535   0.615 -0.3688 -0.2786 -3.4911
   17MOL    H49 5841   3.235   2.675   0.743  0.4295 -2.0446 -0.6004
   17MOL    H50 5842   3.258   2.732   0.579  1.6130 -2.9275  1.1195
   17MOL    H51 5843   3.079   2.909   0.623 -1.1638  0.1957  0.9729
   17MOL    H52 5844   3.082   2.861   0.793  1.7679  1.5372  1.6761
   17MOL    H53 5845   3.314   3.000   0.649  1.3855 -1.5101  0.2391
   17MOL    H54 5846   3.337   2.913   0.799  1.1242  1.9806  0.5385
   17MOL    H55 5847   3.227   3.043   0.794  2.0878  1.2605  0.0291
   17MOL    C56 5848   3.053   2.638   0.371  0.6705 -0.1236 -0.5478
   17MOL    C57 5849   3.010   2.714   0.247  0.0841 -0.1254  0.1202
   17MOL    C58 5850   3.051   2.644   0.117  0.1851 -0.2570 -0.3377
   17MOL    C59 5851   2.987   2.502   0.094  0.2264 -0.8796  1.1264
   17MOL    C60 5852   2.908   2.493   7.689 -0.1374 -0.5849  0.3596
   17MOL    C61 5853   2.835   2.361   7.674 -0.4654 -0.4920 -0.3590
   17MOL    H62 5854   3.159   2.652   0.390  0.9790 -1.6523 -1.1143
   17MOL    H63 5855   3.065   2.532   0.351 -0.7994 -0.5030  0.5134
   17MOL    H64 5856   2.901   2.718   0.252  0.1176  0.6214  0.3526
   17MOL    H65 5857   3.039   2.708   0.030 -2.6641  1.4455  1.2147
   17MOL    H66 5858   3.158   2.633   0.129 -0.2383 -1.0549  3.3982
   17MOL    H67 5859   2.916   2.496   0.177 -0.8776  1.7976  0.4238
   17MOL    H68 5860   3.070   2.432   0.105  0.9169 -0.3714 -0.7019
   17MOL    H69 5861   2.839   2.578   7.687 -0.1587 -0.5925  0.7862
   17MOL    H70 5862   2.978   2.513   7.607 -2.3511  2.0184 -0.9921
   17MOL    H71 5863   2.894   2.276   7.707 -0.4996 -0.9512 -1.4631
   17MOL    H72 5864   2.740   2.358   0.001  0.1434  0.4532  0.7735
   17MOL    H73 5865   2.821   2.342   7.568 -0.2806 -1.2617 -0.2484
   17MOL    C74 5866   3.061   2.864   0.250 -0.3313 -0.6461  0.4033
   17MOL    C75 5867   2.972   2.956   0.147  0.7060  0.3750 -0.8543
   17MOL    C76 5868   2.829   2.985   0.207  0.4504  0.1526  0.2888
   17MOL    C77 5869   2.726   3.036   0.108 -0.1800 -0.3668 -0.1467
   17MOL    C78 5870   2.585   3.032   0.154  0.6024  0.5149 -0.5299
   17MOL    C79 5871   2.487   3.108   0.072  0.3298 -0.4212  0.5509
   17MOL    H80 5872   3.026   2.899   0.347  0.8824  1.0289  0.2626
   17MOL    H81 5873   3.169   2.882   0.245 -0.8287  2.5467  0.2458
   17MOL    H82 5874   2.962   2.900   0.054 -0.6215 -1.4218  0.3335
   17MOL    H83 5875   2.795   2.887   0.242 -0.5334  0.0566 -0.9172
   17MOL    H84 5876   2.832   3.041   0.301  0.5007 -1.5573  1.3488
   17MOL    H85 5877   2.746   3.143   0.098  0.1688 -0.4348 -0.1811
   17MOL    H86 5878   2.747   2.990   0.012  3.1386  2.3530 -0.8617
   17MOL    H87 5879   2.585   3.075   0.255  2.4460  1.8793 -1.0829
   17MOL    H88 5880   2.553   2.929   0.172  0.9621  0.2541 -1.3792
   17MOL    H89 5881   2.389   3.109   0.118 -0.7245  0.9770 -1.6595
   17MOL    H90 5882   2.517   3.212   0.054  0.6371 -0.5309  0.4168
   17MOL    H91 5883   2.466   3.051   7.709 -2.5501 -0.7455  1.3851
   17MOL    C92 5884   3.044   3.092   0.131  0.0782  0.2261 -0.3794
   17MOL    C93 5885   3.180   3.085   0.061  0.5459  0.6577 -0.5557
   17MOL    C94 5886   3.164   3.031   7.640  0.0655 -0.2516  1.2250
   17MOL    C95 5887   3.285   2.950   7.579 -0.5801 -0.1874  0.0939
   17MOL    C96 5888   3.303   2.813   7.643  0.8687 -0.3179  0.6111
   17MOL    C97 5889   3.419   2.729   7.586  0.1122  0.2107  0.4808
   17MOL    H98 5890   2.974   3.149   0.071 -2.5749 -2.1640  0.3552
   17MOL    H99 5891   3.056   3.152   0.220  0.0943  0.3723 -0.4796
   17MOL   H100 5892   3.253   3.020   0.109 -0.0905 -0.4304 -1.0626
   17MOL   H101 5893   3.145   3.119   7.578  1.1438 -0.5481  0.4716
   17MOL   H102 5894   3.077   2.970   7.615 -0.0126  0.6097 -0.7295
   17MOL   H103 5895   3.269   2.947   7.471  0.1073  0.4651 -0.0311
   17MOL   H104 5896   3.376   3.010   7.576  0.7241 -2.1887 -5.5989
   17MOL   H105 5897   3.332   2.823   0.020  0.3886  0.2160  0.6906
   17MOL   H106 5898   3.207   2.762   7.641 -0.7232  2.5795  0.8276
   17MOL   H107 5899   3.510   2.789   7.573 -0.1684 -0.0232 -2.9002
   17MOL   H108 5900   3.445   2.646   7.652 -1.7473 -0.4114  0.4508
   17MOL   H109 5901   3.395   2.681   7.491  2.2558 -1.1697  0.6026
   17MOL   C110 5902   3.254   3.230   0.062 -0.0790  0.2949 -0.0123
   17MOL   C111 5903   3.299   3.273   0.206  0.5458  0.3790  0.2483
   17MOL   C112 5904   3.216   3.398   0.253  0.6438 -0.2499 -1.1990
   17MOL   C113 5905   3.221   3.436   0.404  0.3611  0.3135 -0.0007
   17MOL   C114 5906   3.117   3.547   0.430 -0.2269 -0.0296  0.5359
   17MOL   C115 5907   3.135   3.612   0.572  0.7707  0.0260  1.1604
   17MOL   H116 5908   3.337   3.229   7.719 -0.7390  0.8113 -0.8064
   17MOL   H117 5909   3.198   3.306   0.008 -0.3384  1.0108  1.2159
   17MOL   H118 5910   3.265   3.204   0.283 -1.3532  1.7461  0.6776
   17MOL   H119 5911   3.111   3.394   0.226 -0.2736 -0.5312  2.2260
   17MOL   H120 5912   3.252   3.481   0.192  1.8584  0.6185  0.6647
   17MOL   H121 5913   3.323   3.469   0.425  0.6860 -1.3411  1.0901
   17MOL   H122 5914   3.207   3.350   0.470 -0.8534  0.5352  0.0524
   17MOL   H123 5915   3.020   3.498   0.427 -0.5304  0.5123  1.5781
   17MOL   H124 5916   3.127   3.628   0.357  2.6653  1.4283  2.4562
   17MOL   H125 5917   3.047   3.675   0.586  0.6153 -0.1357  0.9060
   17MOL   H126 5918   3.140   3.534   0.648  3.9483 -0.3608  0.6195
   17MOL   H127 5919   3.220   3.680   0.582  1.2289 -0.6657  1.9582
   17MOL   C128 5920   3.454   3.298   0.210 -0.3034  0.3743 -0.6429
   17MOL   C129 5921   3.536   3.171   0.199  0.8448 -0.0372 -0.0261
   17MOL   C130 5922   3.527   3.086   0.327  0.4942  0.1420  0.0292
   17MOL   C131 5923   3.595   2.943   0.324 -0.4353 -0.3307 -0.4358
   17MOL   C132 5924   3.544   2.864   0.445 -0.4266  0.0734 -0.2407
   17MOL   C133 5925   3.603   2.921   0.573  0.1233 -0.2896 -0.6150
   17MOL   H134 5926   3.483   3.346   0.303 -0.2126 -0.3072 -0.3195
   17MOL   H135 5927   3.483   3.371   0.134  0.6409 -0.9357 -1.5615
   17MOL   H136 5928   3.488   3.116   0.117  1.2552  0.1753 -0.4121
   17MOL   H137 5929   3.566   3.145   0.410 -2.0624  0.4709  1.0445
   17MOL   H138 5930   3.421   3.071   0.347  0.3370  2.1111  0.8204
   17MOL   H139 5931   3.703   2.956   0.326 -0.4538  0.4397 -2.9615
   17MOL   H140 5932   3.581   2.894   0.228 -2.1412  0.3982 -0.5772
   17MOL   H141 5933   3.435   2.856   0.454 -0.3851 -2.1637 -1.3388
   17MOL   H142 5934   3.589   2.765   0.437  0.6108  0.2866  2.5961
   17MOL   H143 5935   3.705   2.959   0.564  0.1470 -0.2118 -0.0594
   17MOL   H144 5936   3.611   2.840   0.646  1.3587 -0.9035 -1.4200
   17MOL   H145 5937   3.540   3.006   0.597 -0.6137 -0.3575 -2.2794
   17MOL   C146 5938   3.689   3.198   0.184  0.3496 -0.2852 -0.3532
   17MOL   C147 5939   3.728   3.278   0.054 -0.0830 -0.7203  0.3010
   17MOL   C148 5940   3.694   3.195   7.655  0.2782 -0.4901 -0.4843
   17MOL   C149 5941   3.780   3.068   7.648 -0.7120 -0.2132 -0.4117
   17MOL   C150 5942   3.820   3.021   7.506 -0.3962 -0.0859 -0.5229
   17MOL   C151 5943   3.894   2.889   7.508  0.3867 -0.8378  0.7748
   17MOL   H152 5944   3.719   3.257   0.270  1.8293  0.8318 -1.5928
   17MOL   H153 5945   3.737   3.100   0.188 -0.1231 -0.5230 -0.4544
   17MOL   H154 5946   3.669   3.369   0.046  2.3155  0.6514 -2.7155
   17MOL   H155 5947   3.702   3.259   7.567 -0.7235  2.2291  1.3422
   17MOL   H156 5948   3.587   3.175   7.660  0.2207 -0.6653 -2.0954
   17MOL   H157 5949   3.874   3.071   7.703 -1.0291  0.8010  0.0903
   17MOL   H158 5950   3.724   2.982   7.685 -1.0214 -0.7164 -1.9902
   17MOL   H159 5951   3.880   3.099   7.459  2.4578 -2.2593 -0.6263
   17MOL   H160 5952   3.729   3.022   7.447 -1.2036 -0.3500  0.7067
   17MOL   H161 5953   3.835   2.803   7.539 -0.0003 -0.4332  1.1498
   17MOL   H162 5954   3.925   2.869   7.405 -0.8855  0.6177  0.0907
   17MOL   H163 5955   3.982   2.903   7.571  2.5117 -1.7807 -1.8739
   17MOL   C164 5956   3.876   3.337   0.050 -0.0714 -0.7727  0.1944
   17MOL   C165 5957   3.948   3.385   0.176  0.0945  1.0909  0.0631
   17MOL   C166 5958   4.102   3.410   0.156 -0.3597  0.4418 -0.1273
   17MOL   C167 5959   4.185   3.290   0.105 -0.0014  0.4031 -0.2029
   17MOL   C168 5960   4.342   3.321   0.082  0.1009 -0.1517 -0.3002
   17MOL   C169 5961   4.371   3.423   7.702 -0.3259  0.3583  0.5426
   17MOL   H170 5962   3.934   3.259   7.726  2.1221  0.0787  1.3614
   17MOL   H171 5963   3.874   3.417   7.703  0.6799  0.1980  1.2075
   17MOL   H172 5964   3.936   3.294   0.234  0.6438 -0.1067 -1.6505
   17MOL   H173 5965   4.150   3.440   0.249 -0.7025 -0.3007  0.2965
   17MOL   H174 5966   4.122   3.498   0.095 -0.6114 -1.0951 -2.4885
   17MOL   H175 5967   4.139   3.253   0.013 -1.7655  1.1384  0.3546
   17MOL   H176 5968   4.190   3.215   0.183  1.3559  0.7999  0.1093
   17MOL   H177 5969   4.394   3.226   0.068 -1.9267 -1.2440 -0.6445
   17MOL   H178 5970   4.379   3.346   0.181  0.2581 -2.7333  0.3365
   17MOL   H179 5971   4.323   3.516   0.005  1.0249  1.0003  0.7519
   17MOL   H180 5972   4.337   3.377   7.609 -2.1990  1.8852  0.4338
   17MOL   H181 5973   4.477   3.440   7.688 -0.5793 -0.4560 -2.6421
   17MOL   C182 5974   3.875   3.503   0.238 -0.0087  0.3189 -0.1281
   17MOL   C183 5975   3.910   3.540   0.386  0.1027 -0.1754 -0.0643
   17MOL   C184 5976   3.781   3.567   0.468  0.2748  0.1411 -0.0575
   17MOL   C185 5977   3.717   3.443   0.539 -0.2218  0.2341  1.3485
   17MOL   C186 5978   3.576   3.469   0.588 -0.5255 -0.3034 -0.3835
   17MOL   C187 5979   3.518   3.350   0.649 -0.0475  0.5126  0.1333
   17MOL   H188 5980   3.884   3.586   0.167 -1.2428  0.7925  0.2616
   17MOL   H189 5981   3.768   3.484   0.232  0.0193 -0.3373  1.1616
   17MOL   H190 5982   3.950   3.450   0.432  0.1218 -0.0257  0.2072
   17MOL   H191 5983   3.800   3.631   0.554 -1.3139  2.0222 -1.0676
   17MOL   H192 5984   3.711   3.616   0.401 -0.0636 -0.6940 -0.3247
   17MOL   H193 5985   3.788   3.421   0.619  0.2419  0.0173  0.8840
   17MOL   H194 5986   3.723   3.351   0.481  0.1500 -1.4938  4.0433
   17MOL   H195 5987   3.520   3.522   0.510 -0.4643  2.4054  1.3279
   17MOL   H196 5988   3.594   3.547   0.662 -0.4440 -2.1504  1.6138
   17MOL   H197 5989   3.431   3.383   0.706 -0.0614  0.5804  0.0717
   17MOL   H198 5990   3.583   3.306   0.725 -0.1727 -1.7031 -0.9985
   17MOL   H199 5991   3.488   3.275   0.576  0.9809 -0.8509  1.0612
   17MOL   C200 5992   4.010   3.660   0.392  0.7284  0.7219 -0.1809
   17MOL   C201 5993   4.117   3.645   0.501 -0.2901 -0.0905  0.5541
   17MOL   C202 5994   4.238   3.733   0.479 -0.6266 -0.1431 -0.5987
   17MOL   C203 5995   4.317   3.695   0.358  0.6646 -0.3279 -0.4498
   17MOL   C204 5996   4.439   3.791   0.344 -0.1482 -1.1292 -0.4696
   17MOL   C205 5997   4.524   3.749   0.225  0.3251  0.2285 -0.6123
   17MOL   H206 5998   3.956   3.755   0.402 -1.6365 -0.6679  0.6231
   17MOL   H207 5999   4.057   3.665   0.294 -0.6438  0.7152 -0.8438
   17MOL   H208 6000   4.156   3.544   0.489  1.0701  0.4747  0.1445
   17MOL   H209 6001   4.314   3.727   0.557 -2.6230 -2.2377  1.2614
   17MOL   H210 6002   4.198   3.835   0.474 -1.6035 -0.3828  1.6808
   17MOL   H211 6003   4.255   3.710   0.269  0.5730 -2.0170 -0.6745
   17MOL   H212 6004   4.344   3.590   0.358  0.5167 -0.3671 -1.2512
   17MOL   H213 6005   4.490   3.796   0.440 -1.3234 -0.8081  0.1426
   17MOL   H214 6006   4.420   3.898   0.335  0.7828 -0.9787 -0.7485
   17MOL   H215 6007   4.462   3.741   0.136  0.8072  0.5336 -0.9770
   17MOL   H216 6008   4.592   3.831   0.203 -0.3071  1.0325  0.4067
   17MOL   H217 6009   4.580   3.655   0.232 -0.3843 -0.2587 -1.3877
   17MOL   C218 6010   4.066   3.677   0.645  0.4768  0.5538 -0.4375
   17MOL   C219 6011   4.066   3.555   0.742 -0.2888 -0.3887 -0.1492
   17MOL   C220 6012   4.019   3.598   0.879  0.8437 -1.0106 -0.4599
   17MOL   C221 6013   3.873   3.639   0.894  0.0661 -0.1308 -0.7144
   17MOL   C222 6014   3.810   3.638   1.030 -0.0394  0.1291 -0.7485
   17MOL   C223 6015   3.664   3.683   1.025 -0.6346 -0.1832  0.2511
   17MOL   H224 6016   4.118   3.758   0.695  0.2909  0.0504  0.5981
   17MOL   H225 6017   3.969   3.727   0.644 -0.8328 -1.9088 -3.3042
   17MOL   H226 6018   3.995   3.478   0.713 -1.7515  0.6856  0.5014
   17MOL   H227 6019   4.080   3.684   0.907 -0.8737  0.7521 -1.9926
   17MOL   H228 6020   4.034   3.522   0.955 -1.5369 -0.5018  0.5409
   17MOL   H229 6021   3.815   3.579   0.823 -0.2712  1.2435 -1.6148
   17MOL   H230 6022   3.854   3.737   0.851 -1.8316  0.7184  1.9275
   17MOL   H231 6023   3.818   3.534   1.064 -0.5354  1.0821  2.4262
   17MOL   H232 6024   3.869   3.701   1.095  3.1359 -2.2100 -1.2411
   17MOL   H233 6025   3.610   3.621   0.954 -1.5572  1.8447 -0.8651
   17MOL   H234 6026   3.657   3.782   0.980 -1.9570 -0.8789 -1.1106
   17MOL   H235 6027   3.611   3.696   1.119  1.2617  2.7673  0.9915
   17MOL   C236 6028   4.205   3.485   0.766  0.1957  0.0846 -0.0449
   17MOL   C237 6029   4.199   3.339   0.820 -0.0570  0.6665  1.1423
   17MOL   C238 6030   4.337   3.280   0.851 -0.1633 -0.5086 -0.2798
   17MOL   C239 6031   4.421   3.334   0.967 -0.0163 -0.0529  0.6567
   17MOL   C240 6032   4.350   3.316   1.102 -0.2971 -0.3454 -0.2584
   17MOL   C241 6033   4.368   3.176   1.153  0.9052 -0.3947  0.2488
   17MOL   H242 6034   4.263   3.484   0.674 -0.8728 -3.2616 -0.7631
   17MOL   H243 6035   4.266   3.541   0.836  0.0869 -0.0050  0.1243
   17MOL   H244 6036   4.141   3.343   0.913  0.5951 -2.0479  1.6977
   17MOL   H245 6037   4.327   3.172   0.855 -1.2895 -0.4766 -1.7641
   17MOL   H246 6038   4.397   3.286   0.760  0.5021 -0.3474  0.1621
   17MOL   H247 6039   4.452   3.438   0.953  0.2152  0.0026  1.5762
   17MOL   H248 6040   4.514   3.278   0.974 -0.6533 -1.3208 -0.7791
   17MOL   H249 6041   4.397   3.381   1.177 -1.3162 -0.5659  0.5817
   17MOL   H250 6042   4.244   3.335   1.092 -0.2280  1.7511  2.2747
   17MOL   H251 6043   4.311   3.173   1.246 -1.1790 -2.0305 -1.0279
   17MOL   H252 6044   4.342   3.104   1.075 -1.9239 -0.1181  0.8753
   17MOL   H253 6045   4.472   3.155   1.178  1.4968  1.0524 -0.9449
   17MOL   C254 6046   4.129   3.247   0.712  0.6209 -0.1212 -0.6608
   17MOL   C255 6047   4.040   3.129   0.763 -0.0644 -0.3347 -0.2851
   17MOL   C256 6048   4.045   3.006   0.673  0.1535 -0.1889 -0.7952
   17MOL   C257 6049   4.009   3.036   0.522 -0.2600 -0.6748  0.1655
   17MOL   C258 6050   4.009   2.918   0.434 -0.3611  0.3995 -0.4595
   17MOL   C259 6051   4.024   2.943   0.282 -0.6089  0.5181  0.7900
   17MOL   H260 6052   4.204   3.195   0.653  1.5339  2.2370 -1.6573
   17MOL   H261 6053   4.073   3.303   0.637 -1.8679  1.5293  2.2897
   17MOL   H262 6054   4.087   3.098   0.856  0.4708 -0.9418 -0.7576
   17MOL   H263 6055   4.149   2.973   0.677  0.2865  0.2532 -0.5534
   17MOL   H264 6056   3.978   2.938   0.725 -0.3368  1.9903  1.5293
   17MOL   H265 6057   3.922   3.101   0.514  0.1475 -0.0363  0.8026
   17MOL   H266 6058   4.096   3.085   0.478  1.1907 -2.1187  1.3508
   17MOL   H267 6059   3.913   2.866   0.441 -0.5572  0.5774 -1.6739
   17MOL   H268 6060   4.088   2.851   0.469 -0.3550 -1.0781 -3.0859
   17MOL   H269 6061   4.110   3.003   0.251 -0.4157 -0.9004 -1.5809
   17MOL   H270 6062   3.938   2.994   0.240 -1.2531 -0.8666  0.3971
   17MOL   H271 6063   4.030   2.851   0.225  1.3016  0.2301  1.3943
   17MOL   C272 6064   3.897   3.185   0.801  1.1379 -0.0827  0.3600
   17MOL   C273 6065   3.828   3.109   0.918 -0.1936  0.5450 -0.3431
   17MOL   C274 6066   3.676   3.129   0.932 -0.6071 -0.1439  0.2300
   17MOL   C275 6067   3.630   3.267   0.983 -0.4600 -0.6402 -0.0766
   17MOL   C276 6068   3.474   3.273   0.979 -0.5834  0.2819 -0.3010
   17MOL   C277 6069   3.428   3.408   1.033 -0.0418  0.4011  0.4958
   17MOL   H278 6070   3.895   3.292   0.821  1.3893 -0.1295  0.6307
   17MOL   H279 6071   3.835   3.171   0.712  0.4050 -0.2750  0.8895
   17MOL   H280 6072   3.839   3.008   0.878  2.0640  0.9959 -0.9384
   17MOL   H281 6073   3.622   3.067   1.005 -0.7719 -0.3622 -0.0740
   17MOL   H282 6074   3.614   3.106   0.845  0.5715 -0.1477 -0.6086
   17MOL   H283 6075   3.671   3.353   0.930  0.5734 -0.6604  0.6762
   17MOL   H284 6076   3.655   3.289   1.086 -2.0949  0.6502  0.0611
   17MOL   H285 6077   3.434   3.251   0.880  0.7268 -1.3548 -0.5028
   17MOL   H286 6078   3.422   3.203   1.045 -0.8222  0.9843  0.2616
   17MOL   H287 6079   3.484   3.421   1.126  0.8308 -0.9888  0.1638
   17MOL   H288 6080   3.442   3.487   0.960 -1.3010  0.1499 -0.0397
   17MOL   H289 6081   3.321   3.421   1.055 -0.0293  1.2804  0.0833
   17MOL   C290 6082   3.907   3.136   1.045  0.2703 -0.1938  0.0883
   17MOL   C291 6083   3.921   3.023   1.149  0.3199  0.5377  0.7193
   17MOL   C292 6084   4.031   2.925   1.101 -0.1198  0.5891  0.5359
   17MOL   C293 6085   4.053   2.793   1.186  0.2110 -0.2912  0.3243
   17MOL   C294 6086   4.124   2.687   1.101 -0.1834 -0.4315  0.3619
   17MOL   C295 6087   4.271   2.723   1.088 -0.2116  0.0643  1.0009
   17MOL   H296 6088   3.857   3.216   1.100 -0.8473  0.2041 -1.4769
   17MOL   H297 6089   4.004   3.184   1.040  0.2644 -0.2924 -1.1209
   17MOL   H298 6090   3.827   2.971   1.138 -0.7885  2.5801  0.2199
   17MOL   H299 6091   4.131   2.968   1.099 -0.9910  2.6145 -2.7345
   17MOL   H300 6092   4.015   2.896   0.998  1.7407 -1.0663  0.6984
   17MOL   H301 6093   4.106   2.809   1.280  0.0818 -0.6349  0.4551
   17MOL   H302 6094   3.953   2.760   1.211  0.2155 -0.8107 -0.3336
   17MOL   H303 6095   4.096   2.680   0.996  1.6834 -0.4861 -0.1429
   17MOL   H304 6096   4.102   2.594   1.154  0.1516 -0.7090  0.0192
   17MOL   H305 6097   4.327   2.740   1.180  0.8729  1.7564  0.0502
   17MOL   H306 6098   4.291   2.804   1.018  0.8019 -0.6234  0.4918
   17MOL   H307 6099   4.331   2.641   1.050  1.4893  2.0662 -0.7658
   17MOL   C308 6100   3.954   3.078   1.295  0.4325  0.1407  0.2427
   17MOL   C309 6101   3.826   3.121   1.378 -0.9332 -0.1130 -1.0518
   17MOL   C310 6102   3.858   3.208   1.508  0.2347 -0.4022  0.3472
   17MOL   C311 6103   3.917   3.346   1.476  0.4084  0.7677  0.9385
   17MOL   C312 6104   3.902   3.452   1.591  0.3097  0.2596  0.4576
   17MOL   C313 6105   3.969   3.413   1.725  0.2624  0.3246 -0.3483
   17MOL   H314 6106   4.011   3.010   1.359  1.7425  0.0903 -0.9380
   17MOL   H315 6107   4.017   3.167   1.291  1.4247 -0.4347  2.3763
   17MOL   H316 6108   3.766   3.186   1.316  0.1357  0.9707 -0.9665
   17MOL   H317 6109   3.930   3.159   1.573  2.3069  1.6395 -0.3245
   17MOL   H318 6110   3.765   3.214   1.565 -0.6907 -0.4917 -1.1195
   17MOL   H319 6111   3.864   3.383   1.389 -0.8682  0.9896  1.8034
   17MOL   H320 6112   4.023   3.336   1.452  0.0225 -0.1140 -0.4741
   17MOL   H321 6113   3.943   3.548   1.561  2.4131 -0.0995  2.0744
   17MOL   H322 6114   3.795   3.453   1.611  0.1467  0.9523 -0.4277
   17MOL   H323 6115   3.902   3.349   1.782  0.0609 -0.9875 -2.0019
   17MOL   H324 6116   3.991   3.502   1.784  4.5598 -0.3613 -0.7562
   17MOL   H325 6117   4.066   3.365   1.725  0.9780  1.7327  0.1178
   17MOL   C326 6118   3.748   2.993   1.411  0.6539 -0.1643 -0.0728
   17MOL   C327 6119   3.611   2.962   1.342 -0.4939  0.3852  0.0943
   17MOL   C328 6120   3.567   2.817   1.355  0.0498  0.6736 -0.1054
   17MOL   C329 6121   3.553   2.759   1.503 -0.0344 -0.6018  0.6304
   17MOL   C330 6122   3.510   2.618   1.502  0.1951  0.0615  0.3639
   17MOL   C331 6123   3.611   2.516   1.429  0.4259 -0.2700  0.3276
   17MOL   H332 6124   3.738   2.993   1.520  0.6599  0.2634 -0.0746
   17MOL   H333 6125   3.809   2.907   1.382 -1.6801 -1.3663 -1.5109
   17MOL   H334 6126   3.615   2.970   1.233 -0.1624  0.6039  0.1231
   17MOL   H335 6127   3.482   2.788   1.293  0.8844 -2.5165  0.1435
   17MOL   H336 6128   3.649   2.765   1.305 -0.4364  1.7829 -2.1153
   17MOL   H337 6129   3.486   2.819   1.565 -1.3041 -2.2109  0.8520
   17MOL   H338 6130   3.653   2.763   1.546  0.1845 -0.3001  0.0973
   17MOL   H339 6131   3.509   2.590   1.607  0.6191 -2.0557 -0.1787
   17MOL   H340 6132   3.407   2.615   1.468  0.3904 -3.0662 -0.1016
   17MOL   H341 6133   3.612   2.525   1.321 -0.0978  0.5818  0.3886
   17MOL   H342 6134   3.571   2.417   1.451 -3.6261  1.3125  0.6492
   17MOL   H343 6135   3.716   2.521   1.457  0.4135  1.9008  0.0755
   17MOL   C344 6136   3.502   3.059   1.403  0.6302  0.3136  0.6149
   17MOL   C345 6137   3.370   3.043   1.325 -0.3216  0.2976  0.3032
   17MOL   C346 6138   3.283   3.168   1.342  0.6577 -0.2504 -0.0168
   17MOL   C347 6139   3.139   3.156   1.281  0.6485  0.5014  0.1309
   17MOL   C348 6140   3.062   3.291   1.282  0.0750  0.0794  0.5087
   17MOL   C349 6141   3.014   3.330   1.422  0.1468  0.4884 -0.2675
   17MOL   H350 6142   3.484   3.036   1.508  0.0070 -1.0813  0.2141
   17MOL   H351 6143   3.540   3.161   1.394 -0.3012  0.7162  1.1141
   17MOL   H352 6144   3.316   2.958   1.366 -0.4943  0.6200  0.7520
   17MOL   H353 6145   3.271   3.205   1.444  1.3556 -1.2255  0.4304
   17MOL   H354 6146   3.339   3.244   1.289 -0.5351  0.2711 -0.5508
   17MOL   H355 6147   3.142   3.144   1.172  3.1973  1.0313  0.1213
   17MOL   H356 6148   3.078   3.081   1.331  1.1753  1.3617  2.0953
   17MOL   H357 6149   3.118   3.374   1.241 -1.6874  0.5086 -1.0751
   17MOL   H358 6150   2.978   3.285   1.213  0.9582  0.6289 -0.6276
   17MOL   H359 6151   2.955   3.421   1.417  0.6203  0.8622  0.9205
   17MOL   H360 6152   2.956   3.243   1.453 -0.4656  0.6722 -0.8957
   17MOL   H361 6153   3.090   3.348   1.498  1.1603 -0.2023 -1.0892
   17MOL   H362 6154   3.384   3.002   1.225 -1.8717 -1.2829  0.7088
   18MOL     C1 6155   4.626   2.179   4.925 -0.6184  0.1552  0.1287
   18MOL     C2 6156   4.519   2.246   5.006 -0.4070 -0.7628  0.3698
   18MOL     C3 6157   4.463   2.149   5.113 -0.0338 -0.0086 -1.0657
   18MOL     C4 6158   4.554   2.149   5.236  0.2815 -0.0346 -0.1410
   18MOL     C5 6159   4.505   2.075   5.359  0.6666 -0.2170  0.1414
   18MOL     C6 6160   4.608   2.097   5.468 -0.1218 -0.2398 -0.4629
   18MOL     H7 6161   4.707   2.148   4.991 -0.2324  1.7673  0.4355
   18MOL     H8 6162   4.588   2.086   4.882  1.6986 -1.6732  1.8786
   18MOL     H9 6163   4.566   2.334   5.048 -0.7519 -0.2503 -0.3187
   18MOL    H10 6164   4.469   2.050   5.068  0.1879 -1.1214  1.3737
   18MOL    H11 6165   4.363   2.180   5.144 -1.0365 -3.5960 -0.5617
   18MOL    H12 6166   4.574   2.253   5.258  1.2310 -0.1882 -0.2501
   18MOL    H13 6167   4.643   2.094   5.207 -0.6335 -1.7309  0.1619
   18MOL    H14 6168   4.410   2.121   5.385  0.2163  0.3761 -2.4967
   18MOL    H15 6169   4.483   1.968   5.353  0.4494 -0.1652  0.0152
   18MOL    H16 6170   4.698   2.038   5.453 -0.5038 -1.1248  0.6451
   18MOL    H17 6171   4.574   2.066   5.567  1.0662 -0.1436 -0.0234
   18MOL    H18 6172   4.635   2.202   5.476  0.8119 -0.4416 -0.8446
   18MOL    H19 6173   4.663   2.243   4.846  1.5486 -0.0595  0.9419
   18MOL    C20 6174   4.399   2.303   4.916  0.1111 -0.6682 -0.6142
   18MOL    C21 6175   4.436   2.436   4.849  0.0836 -1.1828  0.0969
   18MOL    C22 6176   4.414   2.432   4.696  0.5770 -0.3581  0.0236
   18MOL    C23 6177   4.509   2.339   4.616  0.2433  0.0929  0.6411
   18MOL    C24 6178   4.472   2.318   4.461  0.1539 -0.0235  0.0128
   18MOL    C25 6179   4.494   2.440   4.369  0.1736  0.0016 -0.0832
   18MOL    H26 6180   4.316   2.320   4.985 -0.3953  1.5501 -1.7262
   18MOL    H27 6181   4.367   2.222   4.850  0.4648 -0.7998 -0.6226
   18MOL    H28 6182   4.538   2.461   4.875 -0.3572  1.4013 -0.5108
   18MOL    H29 6183   4.407   2.530   4.650 -0.4639 -0.1296  0.6567
   18MOL    H30 6184   4.312   2.398   4.676 -0.0879  1.8961 -0.5205
   18MOL    H31 6185   4.509   2.241   4.665 -1.0910 -1.0814 -1.6059
   18MOL    H32 6186   4.614   2.363   4.628 -0.0795  1.0647  1.6515
   18MOL    H33 6187   4.539   2.237   4.434 -0.0304 -0.4833  0.9342
   18MOL    H34 6188   4.372   2.281   4.439  0.1746  0.3100 -0.6707
   18MOL    H35 6189   4.601   2.463   4.362 -0.0580  0.7960 -1.0619
   18MOL    H36 6190   4.456   2.417   4.270 -0.9714  1.0204  0.1028
   18MOL    H37 6191   4.445   2.530   4.405 -0.2584  0.3940 -1.6575
   18MOL    C38 6192   4.350   2.551   4.910 -0.0932  0.1188 -0.1959
   18MOL    C39 6193   4.410   2.691   4.894  0.0516  0.5849  0.1223
   18MOL    C40 6194   4.302   2.803   4.890  0.1376 -1.4895 -0.3208
   18MOL    C41 6195   4.225   2.800   4.754  0.4215  0.0371  0.5774
   18MOL    C42 6196   4.151   2.935   4.735  0.0606  0.3994  0.0938
   18MOL    C43 6197   4.073   2.928   4.603  0.1077  0.0376  0.7610
   18MOL    H44 6198   4.348   2.536   5.018 -1.7463  1.0787 -0.0847
   18MOL    H45 6199   4.254   2.542   4.859 -1.2957  0.5466  1.9463
   18MOL    H46 6200   4.467   2.695   4.801  0.5235 -0.1786  0.3726
   18MOL    H47 6201   4.241   2.789   4.979 -0.7645  2.7927 -0.1616
   18MOL    H48 6202   4.354   2.899   4.897  2.1391 -2.5165 -0.6045
   18MOL    H49 6203   4.287   2.793   4.665 -0.5189 -0.8888 -0.0166
   18MOL    H50 6204   4.157   2.715   4.741  2.1544 -1.1558 -0.9568
   18MOL    H51 6205   4.081   2.940   4.819 -1.6119 -0.7753 -1.1926
   18MOL    H52 6206   4.213   3.025   4.732 -1.1609  1.2943  1.0800
   18MOL    H53 6207   4.011   2.838   4.607 -1.4376  1.1155  1.8399
   18MOL    H54 6208   4.134   2.911   4.514 -1.1017  1.0194 -0.2717
   18MOL    H55 6209   4.005   3.012   4.587 -0.7737 -0.8469 -0.2135
   18MOL    C56 6210   4.507   2.713   5.016 -0.8233  0.5356 -0.0065
   18MOL    C57 6211   4.562   2.851   5.043 -0.2518 -0.4625  0.1976
   18MOL    C58 6212   4.654   2.902   4.930  0.3165 -0.1783  0.3869
   18MOL    C59 6213   4.668   3.056   4.914 -0.0090  0.6392 -0.0256
   18MOL    C60 6214   4.783   3.078   4.810  0.5573 -0.7378 -0.0625
   18MOL    C61 6215   4.727   3.072   4.671 -0.2738 -1.0808 -0.0527
   18MOL    H62 6216   4.440   2.691   5.099 -1.6052  2.0942 -0.2001
   18MOL    H63 6217   4.586   2.638   5.024 -0.2256  1.1903  0.4371
   18MOL    H64 6218   4.482   2.925   5.049  0.8251  0.8858 -1.2290
   18MOL    H65 6219   4.753   2.857   4.928  1.3502  2.1122 -1.4899
   18MOL    H66 6220   4.609   2.868   4.837 -0.0608 -0.6809  0.7488
   18MOL    H67 6221   4.694   3.097   5.012 -0.0998  0.0065  0.2645
   18MOL    H68 6222   4.578   3.103   4.874  0.0727 -0.3841 -1.4263
   18MOL    H69 6223   4.826   3.178   4.807 -1.2700  0.0405 -0.9524
   18MOL    H70 6224   4.866   3.009   4.823  1.1986 -0.0276 -0.3677
   18MOL    H71 6225   4.815   3.075   4.607 -0.7894  2.7975 -0.6903
   18MOL    H72 6226   4.674   2.979   4.651 -0.4199 -0.8573 -0.7186
   18MOL    H73 6227   4.672   3.155   4.627  1.8153  0.7001  0.5983
   18MOL    C74 6228   4.624   2.872   5.183 -0.1304  0.2248 -0.4015
   18MOL    C75 6229   4.539   2.851   5.318 -0.1235 -0.0955  0.0962
   18MOL    C76 6230   4.548   2.704   5.361  0.1818 -0.4020  0.1517
   18MOL    C77 6231   4.413   2.650   5.413  0.8385  0.0727  0.0496
   18MOL    C78 6232   4.417   2.499   5.446  0.3218 -0.5808 -0.0544
   18MOL    C79 6233   4.288   2.435   5.504 -0.3911 -0.6186 -0.2947
   18MOL    H80 6234   4.722   2.826   5.199  0.1875  1.5260  1.5971
   18MOL    H81 6235   4.648   2.977   5.198 -0.5319  0.1271  1.0467
   18MOL    H82 6236   4.433   2.875   5.308 -0.4267  0.1559  3.2764
   18MOL    H83 6237   4.584   2.649   5.275 -0.5520 -1.9995  0.8599
   18MOL    H84 6238   4.634   2.685   5.425  0.8962  1.8589 -0.0928
   18MOL    H85 6239   4.393   2.701   5.507  2.3473 -1.4481  1.2356
   18MOL    H86 6240   4.332   2.663   5.342 -1.4811 -0.6223  2.4664
   18MOL    H87 6241   4.505   2.488   5.509  0.9558 -1.6989 -1.1119
   18MOL    H88 6242   4.444   2.453   5.351 -0.5504  0.3794 -0.7755
   18MOL    H89 6243   4.262   2.478   5.601 -1.4985  0.5488 -1.1005
   18MOL    H90 6244   4.207   2.449   5.432 -0.7961  0.0862  0.2880
   18MOL    H91 6245   4.305   2.328   5.514  2.1478 -0.3246 -1.2276
   18MOL    C92 6246   4.588   2.943   5.429  0.3928 -0.3193 -0.8575
   18MOL    C93 6247   4.524   3.080   5.433 -0.0418  0.5452  0.9603
   18MOL    C94 6248   4.390   3.072   5.515 -0.2013 -0.6067  0.4815
   18MOL    C95 6249   4.298   3.189   5.506 -0.0459  0.2716  0.1016
   18MOL    C96 6250   4.160   3.175   5.577 -0.6954  0.0951 -0.2060
   18MOL    C97 6251   4.079   3.296   5.560 -0.0802 -0.7524  0.3907
   18MOL    H98 6252   4.556   2.902   5.525 -1.2082  1.0141 -0.8220
   18MOL    H99 6253   4.697   2.949   5.439  0.6630 -0.0198 -3.6528
   18MOL   H100 6254   4.480   3.105   5.336  0.0093 -2.8895 -0.0430
   18MOL   H101 6255   4.407   3.034   5.616 -1.5176 -0.3144  0.8196
   18MOL   H102 6256   4.328   2.987   5.487 -1.5351 -0.3064  2.4031
   18MOL   H103 6257   4.341   3.284   5.538 -0.1519 -0.2511  1.7965
   18MOL   H104 6258   4.270   3.212   5.403 -0.6863  0.8898  0.4045
   18MOL   H105 6259   4.101   3.094   5.533 -1.5310  0.4716  0.2141
   18MOL   H106 6260   4.178   3.143   5.680 -0.1715  1.5522  0.1600
   18MOL   H107 6261   3.979   3.279   5.600 -0.4828  0.9330  0.1493
   18MOL   H108 6262   4.118   3.384   5.612 -2.5640  0.6007  0.0530
   18MOL   H109 6263   4.063   3.324   5.456  0.6997  2.2893  1.0453
   18MOL   C110 6264   4.627   3.190   5.478 -0.3824  0.1392 -0.0320
   18MOL   C111 6265   4.689   3.169   5.619  0.1722  0.5196  0.1206
   18MOL   C112 6266   4.622   3.264   5.719 -0.5111  0.0361 -0.3201
   18MOL   C113 6267   4.637   3.420   5.693  0.5493  0.4863  0.3568
   18MOL   C114 6268   4.584   3.515   5.805 -0.0977 -0.0156 -0.4973
   18MOL   C115 6269   4.609   3.663   5.768  0.2048 -0.5118 -0.3092
   18MOL   H116 6270   4.707   3.208   5.407 -1.0105 -0.7744 -0.9854
   18MOL   H117 6271   4.569   3.282   5.469 -1.9701 -0.9536 -1.2081
   18MOL   H118 6272   4.669   3.065   5.644 -0.1004  0.3892 -0.6303
   18MOL   H119 6273   4.635   3.235   5.823 -1.6643  0.6522  0.0120
   18MOL   H120 6274   4.515   3.243   5.710 -0.8387  1.5642 -0.1447
   18MOL   H121 6275   4.591   3.443   5.597  2.1941  1.0483 -0.3188
   18MOL   H122 6276   4.744   3.441   5.685  1.4039 -3.7952 -0.7541
   18MOL   H123 6277   4.635   3.486   5.897 -0.8375 -2.4573 -0.8227
   18MOL   H124 6278   4.477   3.495   5.817 -0.6160  2.1681 -1.2616
   18MOL   H125 6279   4.555   3.680   5.675  0.5538 -2.1991 -0.8292
   18MOL   H126 6280   4.573   3.726   5.850  0.4579 -1.2477  0.3645
   18MOL   H127 6281   4.715   3.678   5.752 -0.0295  2.7905  0.6719
   18MOL   C128 6282   4.846   3.183   5.609  0.1872  0.3140 -0.8036
   18MOL   C129 6283   4.919   3.144   5.740 -0.1259 -0.9565 -0.8361
   18MOL   C130 6284   5.063   3.192   5.734  0.2653 -0.1267 -0.1901
   18MOL   C131 6285   5.145   3.135   5.847 -0.3546 -0.1840  0.0601
   18MOL   C132 6286   5.287   3.205   5.843 -0.6603  1.2680  0.5885
   18MOL   C133 6287   5.382   3.140   5.943 -0.2623 -0.0604  0.1959
   18MOL   H134 6288   4.872   3.280   5.568 -0.1668  0.6956 -0.1227
   18MOL   H135 6289   4.881   3.112   5.533  1.1382 -0.2489  0.1549
   18MOL   H136 6290   4.880   3.198   5.826  1.1404  1.2353 -1.5927
   18MOL   H137 6291   5.119   3.177   5.641  0.8291  0.8990 -0.0308
   18MOL   H138 6292   5.059   3.301   5.744  0.3710 -0.2017  0.7356
   18MOL   H139 6293   5.153   3.031   5.815 -0.9432 -0.7866  1.7898
   18MOL   H140 6294   5.095   3.146   5.943 -1.2143  0.8701 -0.4986
   18MOL   H141 6295   5.339   3.204   5.747  1.4046 -0.6915  1.6427
   18MOL   H142 6296   5.279   3.311   5.867 -1.7246  1.5417 -0.9281
   18MOL   H143 6297   5.475   3.198   5.946 -1.4157  1.9340 -1.6310
   18MOL   H144 6298   5.417   3.042   5.909  0.1676 -0.3676  1.4807
   18MOL   H145 6299   5.345   3.142   6.046  0.8123 -0.5806  0.6063
   18MOL   C146 6300   4.888   2.994   5.787 -0.0069 -0.4474 -0.2217
   18MOL   C147 6301   4.904   2.874   5.688 -0.4823  0.3037  0.3658
   18MOL   C148 6302   4.839   2.742   5.738  0.6880  0.4429  0.8913
   18MOL   C149 6303   4.697   2.750   5.803  0.2606  0.3812 -0.1818
   18MOL   C150 6304   4.633   2.608   5.828 -0.1491  0.2546 -0.4353
   18MOL   C151 6305   4.484   2.616   5.821  1.0011  1.2069  0.9772
   18MOL   H152 6306   4.942   2.967   5.878 -0.1627  0.7410  0.2301
   18MOL   H153 6307   4.788   3.008   5.827 -0.3801 -1.6112 -0.7305
   18MOL   H154 6308   4.839   2.898   5.604 -0.9005 -1.3046  0.2260
   18MOL   H155 6309   4.898   2.701   5.820 -1.3556 -0.3725  1.9649
   18MOL   H156 6310   4.826   2.672   5.655 -1.8199 -0.7818  2.2965
   18MOL   H157 6311   4.699   2.803   5.898 -1.0656  2.3969 -1.2483
   18MOL   H158 6312   4.633   2.807   5.736 -1.1975 -0.6728  0.2970
   18MOL   H159 6313   4.651   2.557   5.922 -1.1353 -1.5792 -1.2106
   18MOL   H160 6314   4.657   2.536   5.749  1.4239  3.7389 -3.2393
   18MOL   H161 6315   4.449   2.676   5.905 -0.4300 -0.6984  1.7818
   18MOL   H162 6316   4.447   2.654   5.725  2.2024  1.9117  0.7831
   18MOL   H163 6317   4.437   2.518   5.827 -0.0203  1.3698 -2.9536
   18MOL   C164 6318   5.053   2.852   5.643  0.0065  0.1926 -0.6942
   18MOL   C165 6319   5.089   2.758   5.520 -0.0417 -0.2224  0.5817
   18MOL   C166 6320   5.018   2.779   5.384 -0.4548  0.0160  0.0454
   18MOL   C167 6321   5.050   2.925   5.331 -0.8339 -0.3749  0.0315
   18MOL   C168 6322   5.031   2.945   5.181 -0.0771  1.7639 -0.3199
   18MOL   C169 6323   4.985   3.083   5.153  0.5693 -0.3874 -0.3687
   18MOL   H170 6324   5.101   2.947   5.621  1.8669 -0.5251  0.1517
   18MOL   H171 6325   5.108   2.830   5.734  0.3045  2.0527 -0.4149
   18MOL   H172 6326   5.038   2.667   5.554 -1.1876  0.4992  0.8290
   18MOL   H173 6327   4.910   2.775   5.391 -0.5386 -0.0976 -1.3095
   18MOL   H174 6328   5.055   2.711   5.307  1.2525 -1.0338  1.7520
   18MOL   H175 6329   5.146   2.960   5.370 -1.8243  3.2682 -0.6960
   18MOL   H176 6330   4.980   2.984   5.389 -0.0045  0.0708  0.5765
   18MOL   H177 6331   4.964   2.866   5.145  0.8989  0.6489  0.2695
   18MOL   H178 6332   5.125   2.935   5.127 -0.2422 -1.6159 -0.1133
   18MOL   H179 6333   4.951   3.097   5.050 -1.2500 -1.4357  0.0522
   18MOL   H180 6334   5.072   3.140   5.184  0.3818  0.0314 -0.6148
   18MOL   H181 6335   4.903   3.105   5.221  0.0765 -1.9662 -0.4182
   18MOL   C182 6336   5.244   2.734   5.504 -0.1974 -0.3091  0.7617
   18MOL   C183 6337   5.288   2.588   5.487 -0.1505 -0.4373 -0.3640
   18MOL   C184 6338   5.297   2.523   5.621 -0.0453  0.7982 -0.3981
   18MOL   C185 6339   5.414   2.558   5.709  0.1556  0.2486 -0.9063
   18MOL   C186 6340   5.389   2.536   5.863  0.1850 -0.2606 -0.5578
   18MOL   C187 6341   5.289   2.632   5.926 -0.0054  0.2886  0.1035
   18MOL   H188 6342   5.270   2.790   5.414  0.3487 -0.9288  0.5297
   18MOL   H189 6343   5.290   2.783   5.591  2.1353 -0.9694 -0.0488
   18MOL   H190 6344   5.213   2.534   5.430 -0.0275 -1.3488  0.3226
   18MOL   H191 6345   5.212   2.556   5.682 -0.4670  0.8463 -1.0124
   18MOL   H192 6346   5.287   2.415   5.613 -4.0104  1.0346  0.3607
   18MOL   H193 6347   5.463   2.654   5.689  0.7377 -0.0670 -0.9973
   18MOL   H194 6348   5.494   2.493   5.674 -0.3237 -0.4358 -0.7437
   18MOL   H195 6349   5.488   2.540   5.909 -0.6283 -0.4311  1.2547
   18MOL   H196 6350   5.354   2.436   5.889 -2.5821  0.8807  0.2115
   18MOL   H197 6351   5.189   2.622   5.883 -1.1026 -1.5125  2.9171
   18MOL   H198 6352   5.317   2.736   5.906 -1.7646  0.5904 -0.9827
   18MOL   H199 6353   5.280   2.618   6.034  2.8777  1.5751  0.5494
   18MOL   C200 6354   5.420   2.571   5.400 -0.7833  0.5525  0.4199
   18MOL   C201 6355   5.399   2.571   5.247 -0.0242 -0.2330  0.0253
   18MOL   C202 6356   5.505   2.659   5.174  0.2992 -0.3147 -0.6847
   18MOL   C203 6357   5.467   2.813   5.181 -0.2716 -0.4528  0.2621
   18MOL   C204 6358   5.565   2.900   5.102  0.3919 -0.5609  1.4852
   18MOL   C205 6359   5.497   3.030   5.055  0.4809  0.7424 -0.9650
   18MOL   H206 6360   5.477   2.484   5.434 -1.0660 -0.4700 -1.6624
   18MOL   H207 6361   5.481   2.656   5.431 -2.2685  1.5009  0.7798
   18MOL   H208 6362   5.297   2.606   5.228  0.0301 -1.0282 -1.8133
   18MOL   H209 6363   5.516   2.627   5.071 -1.0256 -1.7754 -0.3971
   18MOL   H210 6364   5.603   2.641   5.217  1.1014  0.9946 -1.9000
   18MOL   H211 6365   5.449   2.846   5.284  1.7501 -1.4166  0.9578
   18MOL   H212 6366   5.371   2.823   5.129  0.0259  2.9526  0.2216
   18MOL   H213 6367   5.613   2.858   5.014  0.9000  1.0310  0.9978
   18MOL   H214 6368   5.641   2.937   5.171  1.8971 -1.5999  0.4069
   18MOL   H215 6369   5.409   3.005   4.996 -0.6489  0.5956  0.7396
   18MOL   H216 6370   5.461   3.075   5.148  0.6075  0.9663 -1.0237
   18MOL   H217 6371   5.585   3.077   5.012  2.6432 -1.9230  0.4357
   18MOL   C218 6372   5.398   2.434   5.176  0.1750  0.3856 -0.0171
   18MOL   C219 6373   5.312   2.419   5.049 -0.3201 -1.0356 -0.9180
   18MOL   C220 6374   5.171   2.394   5.098 -0.1890  0.1429 -1.0145
   18MOL   C221 6375   5.055   2.421   4.989  0.1106 -0.4967 -0.3186
   18MOL   C222 6376   4.913   2.394   5.062 -0.6725 -0.2144 -0.0492
   18MOL   C223 6377   4.859   2.516   5.147  0.9897 -0.0584 -0.8378
   18MOL   H224 6378   5.503   2.411   5.157  0.1141 -2.1611  2.2819
   18MOL   H225 6379   5.356   2.359   5.244 -0.3846  1.7358  1.1430
   18MOL   H226 6380   5.304   2.514   4.997  0.6375 -0.0829  0.6233
   18MOL   H227 6381   5.143   2.455   5.184 -1.7873  0.3148 -1.6344
   18MOL   H228 6382   5.173   2.292   5.138  1.6597  0.8796  0.8490
   18MOL   H229 6383   5.080   2.367   4.897  0.3092  3.1687 -2.5422
   18MOL   H230 6384   5.059   2.528   4.971 -0.7321 -0.3296  0.4560
   18MOL   H231 6385   4.860   2.376   4.968  2.2938 -0.0801 -1.8054
   18MOL   H232 6386   4.899   2.301   5.118 -1.1549 -0.5504 -0.7170
   18MOL   H233 6387   4.751   2.502   5.160  1.0603  1.1711  1.2340
   18MOL   H234 6388   4.883   2.605   5.089 -1.2515  0.7743 -0.5344
   18MOL   H235 6389   4.899   2.516   5.249 -0.4825  1.5008 -0.2370
   18MOL   C236 6390   5.362   2.304   4.952  0.0714 -0.0343 -0.0558
   18MOL   C237 6391   5.481   2.350   4.860 -0.0805 -0.4308  0.5041
   18MOL   C238 6392   5.449   2.483   4.787  0.0326  0.3977  0.5427
   18MOL   C239 6393   5.324   2.499   4.698 -0.0179 -0.3287 -0.1967
   18MOL   C240 6394   5.312   2.644   4.638 -0.2196  0.1855 -0.1416
   18MOL   C241 6395   5.260   2.746   4.737 -0.4845 -0.0588  0.3135
   18MOL   H242 6396   5.371   2.211   5.009 -1.0906 -0.2403 -0.2038
   18MOL   H243 6397   5.282   2.281   4.882 -1.2650  1.2947  1.0116
   18MOL   H244 6398   5.564   2.385   4.921 -1.0350  0.3476  1.3714
   18MOL   H245 6399   5.444   2.562   4.861 -1.0134  0.6990  0.1723
   18MOL   H246 6400   5.527   2.504   4.714 -0.1529 -0.6244  0.0336
   18MOL   H247 6401   5.237   2.467   4.756 -0.5969 -1.4139 -1.6447
   18MOL   H248 6402   5.323   2.431   4.613  1.3474 -0.0042 -0.4772
   18MOL   H249 6403   5.411   2.684   4.614  0.9962 -0.8460  2.9629
   18MOL   H250 6404   5.253   2.650   4.546 -0.4963 -0.4542 -0.0046
   18MOL   H251 6405   5.159   2.723   4.769 -0.3782  0.3843  0.9576
   18MOL   H252 6406   5.323   2.757   4.825  0.4501  0.2676 -0.3856
   18MOL   H253 6407   5.247   2.844   4.691  0.3916  0.8479  1.9678
   18MOL   C254 6408   5.528   2.244   4.756 -0.2408 -0.0860  0.2352
   18MOL   C255 6409   5.605   2.120   4.820 -0.1336  0.6726  0.2754
   18MOL   C256 6410   5.757   2.151   4.835  0.0271 -0.4352 -0.0696
   18MOL   C257 6411   5.830   2.043   4.910  0.5277  0.6165 -0.0618
   18MOL   C258 6412   5.987   2.068   4.907 -0.3313  0.1897 -0.0206
   18MOL   C259 6413   6.047   2.023   4.777  0.2233  0.6833  0.2917
   18MOL   H260 6414   5.586   2.298   4.681  0.6355  0.8524  1.5559
   18MOL   H261 6415   5.436   2.213   4.706  0.7578 -2.4538 -0.1935
   18MOL   H262 6416   5.561   2.103   4.918  0.9254 -1.9888  0.3298
   18MOL   H263 6417   5.784   2.156   4.729  0.5620 -2.3645 -0.0382
   18MOL   H264 6418   5.759   2.249   4.882 -0.7422  0.1086 -1.1330
   18MOL   H265 6419   5.786   2.045   5.010 -0.6484  0.4558 -0.5669
   18MOL   H266 6420   5.820   1.938   4.880  1.1852  0.4140  0.4006
   18MOL   H267 6421   6.042   2.029   4.993  0.7191  0.2446 -0.6660
   18MOL   H268 6422   6.013   2.173   4.915 -1.5646  0.8492 -3.6878
   18MOL   H269 6423   5.996   2.074   4.695 -1.4280 -1.8290 -0.2967
   18MOL   H270 6424   6.031   1.916   4.769 -1.3033  0.9285 -0.0488
   18MOL   H271 6425   6.153   2.051   4.779  0.5818 -0.7008  2.8477
   18MOL   C272 6426   5.582   1.986   4.752  0.2339  0.4554  0.1508
   18MOL   C273 6427   5.450   1.931   4.703  0.1164  0.3220 -0.2861
   18MOL   C274 6428   5.345   1.924   4.817  0.2691  0.1929 -0.8585
   18MOL   C275 6429   5.201   1.944   4.772  0.1864  0.6451 -0.2862
   18MOL   C276 6430   5.092   1.923   4.892  0.3102  0.4455 -0.7627
   18MOL   C277 6431   5.089   2.038   4.989  0.0980 -0.0210 -0.1957
   18MOL   H278 6432   5.647   1.989   4.664 -1.2224 -1.4924 -1.0148
   18MOL   H279 6433   5.625   1.903   4.808 -2.6531 -0.1705  1.5185
   18MOL   H280 6434   5.412   2.004   4.631 -2.0844  0.4437  0.9527
   18MOL   H281 6435   5.355   2.005   4.889  0.3130 -0.5944  0.0489
   18MOL   H282 6436   5.355   1.831   4.874 -2.2388 -0.1002 -0.8452
   18MOL   H283 6437   5.172   1.867   4.700  1.1748  0.8843 -0.9479
   18MOL   H284 6438   5.194   2.036   4.715 -2.0359  1.8415  1.7866
   18MOL   H285 6439   4.997   1.910   4.840 -1.0387  0.0706  1.7054
   18MOL   H286 6440   5.106   1.833   4.953 -0.8284  0.8534  0.1169
   18MOL   H287 6441   5.010   2.014   5.060 -0.6559  2.1492 -0.2917
   18MOL   H288 6442   5.183   2.069   5.034  0.0920  1.0136 -0.8853
   18MOL   H289 6443   5.061   2.130   4.938 -0.3871 -0.1156 -0.1071
   18MOL   C290 6444   5.469   1.800   4.624  0.4447 -0.7777  0.7939
   18MOL   C291 6445   5.529   1.818   4.478 -0.7899  0.2839  0.2254
   18MOL   C292 6446   5.642   1.711   4.454 -0.0698  0.0755 -0.4167
   18MOL   C293 6447   5.784   1.781   4.456 -0.5317  0.4607 -0.1169
   18MOL   C294 6448   5.894   1.670   4.440 -0.1087  0.1786 -0.0392
   18MOL   C295 6449   6.040   1.714   4.455 -0.2162 -0.0925 -0.3095
   18MOL   H296 6450   5.375   1.746   4.624  1.3922 -2.4578  0.5644
   18MOL   H297 6451   5.533   1.734   4.683 -0.4913 -2.0498  0.3968
   18MOL   H298 6452   5.580   1.914   4.470 -0.2762 -0.0655 -0.7125
   18MOL   H299 6453   5.624   1.661   4.359 -0.3334 -2.8469  1.1173
   18MOL   H300 6454   5.638   1.643   4.539 -0.0125  2.1546  1.3009
   18MOL   H301 6455   5.784   1.842   4.366  1.6628 -0.9596 -1.1111
   18MOL   H302 6456   5.796   1.843   4.544 -0.2232  1.5442 -0.9176
   18MOL   H303 6457   5.877   1.628   4.341 -0.1472  2.8925 -1.2302
   18MOL   H304 6458   5.864   1.598   4.516  2.3964  0.4878  1.3161
   18MOL   H305 6459   6.049   1.816   4.493  1.3798 -0.1899 -0.4198
   18MOL   H306 6460   6.082   1.714   4.354  0.0916 -0.0398 -0.1810
   18MOL   H307 6461   6.102   1.642   4.508 -2.2386 -0.8700  1.0612
   18MOL   C308 6462   5.424   1.820   4.364 -0.1216 -0.2558  0.1396
   18MOL   C309 6463   5.309   1.931   4.364  0.0818  0.4589 -0.2848
   18MOL   C310 6464   5.193   1.898   4.261  0.3093 -0.2823 -0.2983
   18MOL   C311 6465   5.107   1.771   4.281 -0.1385 -0.0488 -0.4021
   18MOL   C312 6466   5.007   1.774   4.393  0.4817  0.3674  0.2362
   18MOL   C313 6467   4.887   1.681   4.375 -0.4595 -0.5699  0.2939
   18MOL   H314 6468   5.483   1.813   4.272 -0.2924 -0.5064  0.0487
   18MOL   H315 6469   5.381   1.720   4.360 -0.7820  0.0787 -1.5879
   18MOL   H316 6470   5.267   1.930   4.465  0.4318  0.3996 -0.1367
   18MOL   H317 6471   5.246   1.896   4.166 -0.0382  0.0887 -0.4972
   18MOL   H318 6472   5.141   1.993   4.244  2.1986  0.9277  0.4315
   18MOL   H319 6473   5.171   1.687   4.309 -0.4529 -0.7892 -1.8700
   18MOL   H320 6474   5.063   1.739   4.187 -0.8339 -0.6432  0.1236
   18MOL   H321 6475   5.057   1.749   4.486  1.4404  0.9520 -0.1100
   18MOL   H322 6476   4.978   1.879   4.406 -0.7184 -0.0208  0.6776
   18MOL   H323 6477   4.927   1.580   4.368  0.2699 -0.2938  0.3869
   18MOL   H324 6478   4.830   1.705   4.285 -1.0600  0.1019  0.8456
   18MOL   H325 6479   4.807   1.694   4.447 -0.3373  1.1105  0.1508
   18MOL   C326 6480   5.368   2.076   4.348  0.1476 -0.0387 -0.1254
   18MOL   C327 6481   5.270   2.195   4.351 -0.1466 -0.3495  0.0536
   18MOL   C328 6482   5.187   2.198   4.480 -0.1259  0.3606  0.1166
   18MOL   C329 6483   5.064   2.292   4.490  0.2825 -0.6897 -0.4743
   18MOL   C330 6484   4.986   2.281   4.627  0.1870 -0.1577  0.3599
   18MOL   C331 6485   4.908   2.155   4.655 -0.2487  0.1261  0.2597
   18MOL   H332 6486   5.431   2.083   4.259  0.0514  1.6221 -0.0794
   18MOL   H333 6487   5.435   2.092   4.433 -0.8501 -0.7983  0.8318
   18MOL   H334 6488   5.200   2.185   4.269 -0.1334 -0.6815  0.0828
   18MOL   H335 6489   5.144   2.098   4.478 -0.0031  0.3425 -3.9083
   18MOL   H336 6490   5.242   2.212   4.573 -1.3133 -0.2344  0.9315
   18MOL   H337 6491   4.992   2.269   4.412  1.5927  2.7992 -2.7979
   18MOL   H338 6492   5.099   2.393   4.470  3.2404 -1.3244  1.0743
   18MOL   H339 6493   5.054   2.306   4.709 -0.5565  4.0676 -0.1894
   18MOL   H340 6494   4.910   2.359   4.621  0.7486  0.3222 -0.4981
   18MOL   H341 6495   4.873   2.152   4.758 -0.4578 -2.4323  0.1403
   18MOL   H342 6496   4.961   2.060   4.644  2.0424  1.5084 -1.1209
   18MOL   H343 6497   4.812   2.152   4.603  0.3927 -1.3376 -0.8752
   18MOL   C344 6498   5.347   2.329   4.341  0.0905 -0.0227 -0.2036
   18MOL   C345 6499   5.442   2.345   4.219  0.4640  0.2715 -0.5782
   18MOL   C346 6500   5.503   2.478   4.203  0.0569 -0.3260  0.2388
   18MOL   C347 6501   5.600   2.482   4.082  0.3685  0.3855 -0.1580
   18MOL   C348 6502   5.657   2.618   4.051 -0.1432  0.1386  0.8776
   18MOL   C349 6503   5.791   2.615   3.973 -0.1890  0.1304  0.4484
   18MOL   H350 6504   5.276   2.411   4.331 -1.1279 -1.0340  0.1379
   18MOL   H351 6505   5.418   2.354   4.420  0.0859  1.2338 -0.5908
   18MOL   H352 6506   5.380   2.328   4.130 -1.3712  1.0439  0.5183
   18MOL   H353 6507   5.418   2.545   4.199 -0.4719 -1.0599 -1.5091
   18MOL   H354 6508   5.561   2.495   4.294 -1.0560  3.0159  0.3969
   18MOL   H355 6509   5.686   2.415   4.089 -0.7926 -1.1284 -0.1833
   18MOL   H356 6510   5.537   2.442   4.003  0.3930  1.7529 -0.8678
   18MOL   H357 6511   5.583   2.669   3.989  0.8406  0.0763 -0.3574
   18MOL   H358 6512   5.673   2.671   4.145 -0.8879  0.0243  1.0736
   18MOL   H359 6513   5.871   2.575   4.035  0.9358  4.1173  1.7672
   18MOL   H360 6514   5.779   2.549   3.887  2.4567  2.2538 -1.6852
   18MOL   H361 6515   5.817   2.718   3.949 -1.5858  0.4784  0.3666
   18MOL   H362 6516   5.516   2.266   4.223 -0.4954 -0.5865  0.3432
   19MOL     C1 6517   1.632   2.349   6.514 -0.8506 -0.4598  0.0846
   19MOL     C2 6518   1.583   2.271   6.389 -0.0223  0.3404 -0.1030
   19MOL     C3 6519   1.425   2.289   6.383 -0.1310  0.1279  0.5778
   19MOL     C4 6520   1.381   2.435   6.365  0.3181  1.1469 -0.2397
   19MOL     C5 6521   1.226   2.445   6.337 -0.2020  0.0998 -0.3279
   19MOL     C6 6522   1.183   2.589   6.295 -0.3144 -0.2394  0.0099
   19MOL     H7 6523   1.588   2.311   6.606  0.9360 -0.0718  1.1139
   19MOL     H8 6524   1.739   2.335   6.531 -0.7246  1.1962  0.7445
   19MOL     H9 6525   1.630   2.319   6.303 -0.6627  1.1214 -0.0187
   19MOL    H10 6526   1.381   2.237   6.468  0.0802  1.8526  1.7872
   19MOL    H11 6527   1.388   2.238   6.295 -2.8227  1.5797  0.8338
   19MOL    H12 6528   1.432   2.486   6.284 -1.8605  1.7368 -1.2578
   19MOL    H13 6529   1.412   2.490   6.454  0.7454  0.2228  0.1916
   19MOL    H14 6530   1.193   2.376   6.260 -1.9922 -0.7104  1.1085
   19MOL    H15 6531   1.169   2.407   6.422  1.3617  0.5016  0.9325
   19MOL    H16 6532   1.206   2.665   6.369 -1.1877 -1.0879  1.1936
   19MOL    H17 6533   1.075   2.605   6.288 -0.3148 -0.6477 -0.8822
   19MOL    H18 6534   1.215   2.611   6.194 -0.6732  0.0357 -0.0426
   19MOL    H19 6535   1.618   2.457   6.513 -0.3971 -0.3933 -2.3789
   19MOL    C20 6536   1.614   2.123   6.399 -0.8528 -0.3101 -0.3537
   19MOL    C21 6537   1.752   2.085   6.361  0.0714 -0.1155 -0.6062
   19MOL    C22 6538   1.800   1.946   6.412  0.0140 -0.7240  0.1335
   19MOL    C23 6539   1.790   1.926   6.563  0.2252  0.1506  0.0244
   19MOL    C24 6540   1.837   1.792   6.620  0.4753  0.0502  0.2256
   19MOL    C25 6541   1.847   1.793   6.776 -0.2454 -0.5567 -0.2973
   19MOL    H26 6542   1.549   2.065   6.334 -0.5343  0.9290 -1.7994
   19MOL    H27 6543   1.584   2.091   6.499  1.9630 -2.9634 -0.2620
   19MOL    H28 6544   1.825   2.156   6.401  0.5388  0.7293 -2.8516
   19MOL    H29 6545   1.904   1.940   6.381  0.6355  0.7862  1.8372
   19MOL    H30 6546   1.742   1.867   6.365 -2.1660  0.0957  1.3460
   19MOL    H31 6547   1.683   1.934   6.582 -0.5395 -2.3351 -2.7364
   19MOL    H32 6548   1.825   2.020   6.604  1.1055  1.0746 -2.7079
   19MOL    H33 6549   1.768   1.713   6.590  0.8675 -0.6377  1.0959
   19MOL    H34 6550   1.933   1.764   6.577  0.1311  1.6578 -1.6288
   19MOL    H35 6551   1.876   1.700   6.825 -1.3032 -0.3685  0.7041
   19MOL    H36 6552   1.917   1.868   6.815 -0.7583 -1.0315  1.5805
   19MOL    H37 6553   1.751   1.824   6.815  0.1483 -0.8998  0.9822
   19MOL    C38 6554   1.767   2.077   6.207 -0.2337 -0.2874 -0.0866
   19MOL    C39 6555   1.907   2.078   6.138  0.0432 -0.0789  0.1996
   19MOL    C40 6556   1.921   1.968   6.035  0.1392  0.7488 -0.4007
   19MOL    C41 6557   1.948   1.830   6.097 -0.1751 -0.2901 -0.7426
   19MOL    C42 6558   1.963   1.727   5.986 -0.5353 -0.1110  0.0903
   19MOL    C43 6559   2.002   1.586   6.038 -0.2261  0.6943  0.1188
   19MOL    H44 6560   1.704   2.149   6.155  0.3460  0.6569  0.5027
   19MOL    H45 6561   1.725   1.979   6.187  1.1586 -0.7900 -0.6394
   19MOL    H46 6562   1.989   2.056   6.205 -0.1259  2.0655  1.1580
   19MOL    H47 6563   1.838   1.956   5.965  1.0009  1.3672 -1.5511
   19MOL    H48 6564   2.004   1.986   5.967 -0.7431  0.3592 -1.6125
   19MOL    H49 6565   2.036   1.850   6.160  0.5972  1.2931 -2.2741
   19MOL    H50 6566   1.867   1.799   6.163 -0.7926 -1.2677 -1.9575
   19MOL    H51 6567   1.867   1.712   5.937 -0.3685  0.5850 -0.4419
   19MOL    H52 6568   2.045   1.752   5.919  1.1762 -3.0924  0.9601
   19MOL    H53 6569   2.004   1.510   5.960  1.0107  1.6180 -0.7705
   19MOL    H54 6570   1.912   1.569   6.096  0.8626 -1.1880  1.3167
   19MOL    H55 6571   2.096   1.581   6.094 -0.3807  2.0554  0.5148
   19MOL    C56 6572   1.938   2.209   6.067 -0.5346  0.6284  0.4455
   19MOL    C57 6573   1.965   2.336   6.145  0.0604 -0.6348 -0.1046
   19MOL    C58 6574   1.937   2.468   6.063  0.4656  0.5602  0.8405
   19MOL    C59 6575   1.790   2.476   6.014 -0.5866 -1.3277  0.1906
   19MOL    C60 6576   1.739   2.611   5.978 -0.0869  1.2943  0.4639
   19MOL    C61 6577   1.714   2.697   6.103  0.2359  0.2764 -0.5343
   19MOL    H62 6578   2.035   2.188   6.021 -1.5569 -1.2269 -0.8849
   19MOL    H63 6579   1.872   2.232   5.983  0.0678 -0.5715 -0.3654
   19MOL    H64 6580   1.902   2.344   6.234  1.3068  2.0693  0.5797
   19MOL    H65 6581   1.949   2.559   6.122 -0.7909  1.2074  0.1341
   19MOL    H66 6582   1.997   2.481   5.973  0.8307  0.7513  1.1103
   19MOL    H67 6583   1.716   2.421   6.072  0.0871 -1.2797  1.1000
   19MOL    H68 6584   1.788   2.409   5.928  0.2833 -1.7671  0.5088
   19MOL    H69 6585   1.803   2.671   5.913  0.6134 -0.7208 -0.7406
   19MOL    H70 6586   1.645   2.607   5.922 -0.5331 -0.2317  1.2942
   19MOL    H71 6587   1.627   2.664   6.158  1.3675  0.1804  1.2236
   19MOL    H72 6588   1.799   2.699   6.171  0.4133 -2.0125 -0.6467
   19MOL    H73 6589   1.691   2.801   6.082  1.4702  0.5967 -0.3801
   19MOL    C74 6590   2.110   2.340   6.193 -0.0769 -0.1165 -0.9196
   19MOL    C75 6591   2.142   2.431   6.311 -0.9268 -0.0185 -0.1578
   19MOL    C76 6592   2.187   2.353   6.436 -0.4440 -0.0180 -0.1661
   19MOL    C77 6593   2.096   2.243   6.492 -0.1022  0.8039  0.4370
   19MOL    C78 6594   2.145   2.168   6.617  0.3663  0.0547  0.0550
   19MOL    C79 6595   2.288   2.100   6.599  0.0634 -0.4966  0.2650
   19MOL    H80 6596   2.149   2.240   6.212  1.2379 -0.1185 -3.4504
   19MOL    H81 6597   2.169   2.372   6.107  1.4349 -2.2550 -0.7050
   19MOL    H82 6598   2.051   2.479   6.346 -0.9076  0.5696 -0.9141
   19MOL    H83 6599   2.286   2.311   6.419  0.8571  3.2532 -1.1522
   19MOL    H84 6600   2.202   2.429   6.513 -0.8418  2.5176 -2.4746
   19MOL    H85 6601   2.004   2.291   6.525  0.4997  0.3724  2.7973
   19MOL    H86 6602   2.064   2.173   6.414 -1.2140 -0.7753  2.2652
   19MOL    H87 6603   2.077   2.093   6.656 -0.6134  0.4800 -0.8080
   19MOL    H88 6604   2.147   2.241   6.698 -1.1715  0.1828 -0.0176
   19MOL    H89 6605   2.275   2.024   6.521 -0.1932  0.1023 -0.2769
   19MOL    H90 6606   2.357   2.164   6.545 -3.5653  1.4689 -2.2164
   19MOL    H91 6607   2.337   2.059   6.688  0.8692  1.4960  0.7527
   19MOL    C92 6608   2.235   2.542   6.263 -0.3498 -1.2492 -0.4273
   19MOL    C93 6609   2.271   2.646   6.368 -0.1485 -0.1791  0.1462
   19MOL    C94 6610   2.385   2.735   6.320  0.2887  0.5958  0.1595
   19MOL    C95 6611   2.356   2.817   6.191 -0.5881  0.5276 -0.6781
   19MOL    C96 6612   2.474   2.897   6.142 -0.7729 -0.3624 -0.5362
   19MOL    C97 6613   2.582   2.806   6.094 -0.5242  1.0669  0.2692
   19MOL    H98 6614   2.332   2.499   6.236  1.3051  2.3054 -0.4552
   19MOL    H99 6615   2.196   2.592   6.174  1.1307  0.1489 -0.3194
   19MOL   H100 6616   2.324   2.597   6.450 -2.4616 -1.2055  1.1054
   19MOL   H101 6617   2.469   2.665   6.315  1.5308  1.6177  4.6487
   19MOL   H102 6618   2.418   2.796   6.404  0.9569 -1.0983  1.1680
   19MOL   H103 6619   2.316   2.756   6.109 -0.5486 -1.6672  0.8870
   19MOL   H104 6620   2.276   2.886   6.218  0.2835  1.2546  0.0420
   19MOL   H105 6621   2.438   2.975   6.075 -1.4519 -0.3288 -0.1337
   19MOL   H106 6622   2.521   2.951   6.224  1.3655 -0.8900 -1.3776
   19MOL   H107 6623   2.644   2.785   6.182 -0.9238  1.0595  0.5474
   19MOL   H108 6624   2.552   2.716   6.042  3.2497  0.7699 -1.5471
   19MOL   H109 6625   2.650   2.854   6.023 -1.7556 -0.1850 -1.7810
   19MOL   C110 6626   2.155   2.729   6.424  0.2305 -0.1356 -0.9053
   19MOL   C111 6627   2.180   2.857   6.513  0.1736  0.0288 -0.4283
   19MOL   C112 6628   2.241   2.817   6.652 -1.3528  0.0097 -0.2399
   19MOL   C113 6629   2.313   2.932   6.726 -0.2767  0.0702  0.1136
   19MOL   C114 6630   2.368   2.897   6.859 -0.1306  0.1968 -0.7679
   19MOL   C115 6631   2.453   3.014   6.907 -0.0937  0.2531 -0.0756
   19MOL   H116 6632   2.094   2.768   6.344  0.2647 -0.6134 -1.1654
   19MOL   H117 6633   2.086   2.669   6.483 -0.4959  2.4339  0.9788
   19MOL   H118 6634   2.253   2.923   6.465 -0.0664  2.6856  2.7041
   19MOL   H119 6635   2.302   2.727   6.643  0.6914  1.5216 -2.2405
   19MOL   H120 6636   2.172   2.771   6.722 -1.0263 -1.2454 -0.7349
   19MOL   H121 6637   2.233   3.003   6.748 -2.1211 -1.9750  0.1357
   19MOL   H122 6638   2.385   2.986   6.664 -3.2285  1.1232 -2.5263
   19MOL   H123 6639   2.434   2.810   6.852 -3.0950 -2.0609 -1.4215
   19MOL   H124 6640   2.291   2.879   6.933 -0.4766  0.0168 -1.1707
   19MOL   H125 6641   2.526   3.038   6.829 -0.1131 -0.9582 -0.4694
   19MOL   H126 6642   2.383   3.098   6.902 -0.3350  0.3786  4.1745
   19MOL   H127 6643   2.490   3.013   7.009  0.0344  1.6143 -0.0956
   19MOL   C128 6644   2.054   2.944   6.545  0.3888 -0.4105 -0.3126
   19MOL   C129 6645   1.980   3.010   6.432 -0.6434 -0.4582  0.6898
   19MOL   C130 6646   2.063   3.118   6.356 -0.3398  0.2889  0.6709
   19MOL   C131 6647   2.018   3.158   6.213 -0.8158  0.3184  0.2547
   19MOL   C132 6648   2.125   3.230   6.128 -0.0686 -0.2947 -0.1314
   19MOL   C133 6649   2.072   3.249   5.982 -0.3451 -0.5004 -0.1247
   19MOL   H134 6650   2.072   3.024   6.616 -0.6716 -1.4262  1.1426
   19MOL   H135 6651   1.993   2.873   6.602  0.4517  1.0686  1.6355
   19MOL   H136 6652   1.957   2.938   6.354  0.2098  1.0668 -1.0094
   19MOL   H137 6653   2.080   3.203   6.423  0.8880 -0.0796  0.8314
   19MOL   H138 6654   2.156   3.062   6.346 -0.5793 -0.4372  2.3220
   19MOL   H139 6655   1.929   3.220   6.221  0.0471  1.4671  1.1442
   19MOL   H140 6656   1.988   3.067   6.161  1.7002 -0.5030  0.1359
   19MOL   H141 6657   2.146   3.329   6.168 -0.7816 -0.2110  0.0527
   19MOL   H142 6658   2.219   3.175   6.125 -1.0659 -2.1231  1.1876
   19MOL   H143 6659   2.112   3.336   5.929  0.8373  0.6334  2.5367
   19MOL   H144 6660   1.964   3.260   5.973 -0.1756 -0.7393 -2.7966
   19MOL   H145 6661   2.106   3.163   5.925 -0.6986 -0.8909  0.2467
   19MOL   C146 6662   1.859   3.084   6.482 -0.0370  0.1499 -0.3409
   19MOL   C147 6663   1.764   3.009   6.582  0.8418 -0.3428 -0.3183
   19MOL   C148 6664   1.727   2.873   6.521  0.0214  0.2959 -0.2483
   19MOL   C149 6665   1.630   2.782   6.606  0.4975  0.0623  0.3203
   19MOL   C150 6666   1.670   2.764   6.749  0.2007 -0.3495  0.9098
   19MOL   C151 6667   1.812   2.704   6.757  0.5964  0.4060 -0.0165
   19MOL   H152 6668   1.888   3.179   6.528 -1.0729 -0.1662  1.0002
   19MOL   H153 6669   1.809   3.122   6.393 -1.2077 -1.0245 -0.1966
   19MOL   H154 6670   1.811   2.992   6.679 -0.2440  1.5684  0.5682
   19MOL   H155 6671   1.811   2.806   6.507 -0.2110 -0.6293  2.3774
   19MOL   H156 6672   1.683   2.894   6.424  0.9728  0.2401 -0.6930
   19MOL   H157 6673   1.524   2.808   6.598  0.2961 -0.5796  0.8480
   19MOL   H158 6674   1.629   2.684   6.559 -1.0013 -0.2807  1.0435
   19MOL   H159 6675   1.598   2.698   6.797  0.6902 -0.6479  1.2393
   19MOL   H160 6676   1.666   2.854   6.811  0.2885  1.3271 -1.4509
   19MOL   H161 6677   1.820   2.640   6.845  2.4874 -1.1287 -1.2736
   19MOL   H162 6678   1.833   2.637   6.674 -0.3577 -2.1362  1.7210
   19MOL   H163 6679   1.888   2.780   6.773  1.4125 -0.5214  0.5491
   19MOL   C164 6680   1.632   3.082   6.603 -0.1208 -0.5218  0.4186
   19MOL   C165 6681   1.649   3.221   6.672  0.4834 -0.3709  0.3421
   19MOL   C166 6682   1.528   3.326   6.672  0.3652 -0.7469  0.0608
   19MOL   C167 6683   1.435   3.330   6.556  0.2875 -0.0347  0.1697
   19MOL   C168 6684   1.352   3.460   6.547 -0.2025 -0.1484  0.6399
   19MOL   C169 6685   1.244   3.443   6.441  0.4538 -0.7139 -0.0723
   19MOL   H170 6686   1.571   3.101   6.514 -0.7944  1.9398  1.3781
   19MOL   H171 6687   1.566   3.034   6.675  0.6610  0.3405  1.7052
   19MOL   H172 6688   1.719   3.278   6.612  0.0682 -1.5106 -1.2551
   19MOL   H173 6689   1.571   3.424   6.692 -0.2331 -0.7682  1.4621
   19MOL   H174 6690   1.454   3.320   6.751 -1.1137  2.3175 -1.0330
   19MOL   H175 6691   1.366   3.246   6.560 -1.1774  1.1712  0.8170
   19MOL   H176 6692   1.496   3.301   6.471 -0.1638  1.2718 -0.6252
   19MOL   H177 6693   1.418   3.538   6.509 -0.8586  0.2322  0.2790
   19MOL   H178 6694   1.307   3.492   6.641 -0.1415  1.7354  0.0492
   19MOL   H179 6695   1.197   3.538   6.415  1.2151 -0.4037 -0.3016
   19MOL   H180 6696   1.169   3.365   6.459  0.4807 -0.9597 -0.9712
   19MOL   H181 6697   1.297   3.424   6.348 -0.3158  0.6041 -0.8024
   19MOL   C182 6698   1.696   3.200   6.819 -0.0208 -0.6997 -0.2310
   19MOL   C183 6699   1.844   3.239   6.837 -0.6347 -0.2716 -0.6039
   19MOL   C184 6700   1.900   3.186   6.976  0.5134 -0.6339  0.0281
   19MOL   C185 6701   1.919   3.029   6.974  0.6631  0.3545 -0.5285
   19MOL   C186 6702   2.016   2.988   7.080 -0.2949 -0.6151 -0.2719
   19MOL   C187 6703   2.055   2.837   7.082 -0.5883  0.3175 -0.7763
   19MOL   H188 6704   1.629   3.256   6.885 -1.5333  0.6808 -2.8382
   19MOL   H189 6705   1.678   3.097   6.850  0.8209 -0.9724 -0.6309
   19MOL   H190 6706   1.906   3.208   6.753  2.0220 -1.5487  1.7304
   19MOL   H191 6707   1.994   3.239   6.988 -1.0520  1.9389  1.2718
   19MOL   H192 6708   1.828   3.210   7.054  0.3695 -1.8657  0.2928
   19MOL   H193 6709   1.952   2.984   6.880 -0.8935 -0.4219 -0.7209
   19MOL   H194 6710   1.821   2.983   6.988  0.6362  0.8108  0.7910
   19MOL   H195 6711   1.983   3.018   7.180 -0.7054 -0.7497 -0.3658
   19MOL   H196 6712   2.105   3.047   7.060 -0.5378 -0.2462 -0.2549
   19MOL   H197 6713   1.969   2.784   7.123  0.8399 -1.3747  0.0763
   19MOL   H198 6714   2.146   2.832   7.141 -2.1198 -1.2341  1.6065
   19MOL   H199 6715   2.082   2.794   6.985 -1.0712  0.5271 -1.0059
   19MOL   C200 6716   1.864   3.397   6.846  0.1089  0.8768  0.2518
   19MOL   C201 6717   2.005   3.456   6.808  0.4745 -0.3196  0.3796
   19MOL   C202 6718   2.023   3.452   6.654 -0.1316 -0.6292  0.4237
   19MOL   C203 6719   1.932   3.539   6.555  0.5481 -0.4416 -0.8759
   19MOL   C204 6720   1.998   3.590   6.430  0.3623  0.2123  0.3590
   19MOL   C205 6721   1.912   3.681   6.348 -0.4489 -0.2075 -0.4396
   19MOL   H206 6722   1.838   3.432   6.946  0.7422  2.2748 -0.0639
   19MOL   H207 6723   1.799   3.454   6.779  0.3240  1.2830  0.3852
   19MOL   H208 6724   2.076   3.379   6.839  0.9019  0.0762  0.3761
   19MOL   H209 6725   1.999   3.350   6.626 -1.1801 -1.4902  4.2553
   19MOL   H210 6726   2.130   3.460   6.636  0.0319 -0.5101  1.4337
   19MOL   H211 6727   1.899   3.621   6.619 -1.2370 -1.6296 -0.2623
   19MOL   H212 6728   1.840   3.483   6.541  0.1457 -0.7864  2.6929
   19MOL   H213 6729   2.040   3.506   6.374 -2.3025 -0.8716 -0.0911
   19MOL   H214 6730   2.084   3.650   6.458 -0.6406  1.8988 -0.1237
   19MOL   H215 6731   1.971   3.719   6.264  0.8594 -0.8529  0.1878
   19MOL   H216 6732   1.827   3.624   6.309  0.8331 -2.2684 -0.2801
   19MOL   H217 6733   1.878   3.765   6.409 -0.0896  1.2698 -2.2030
   19MOL   C218 6734   2.021   3.597   6.867 -0.0450  0.1059 -0.0523
   19MOL   C219 6735   2.038   3.585   7.018  0.2476  0.1756 -0.3410
   19MOL   C220 6736   1.924   3.651   7.100 -0.1121 -0.1359 -0.3683
   19MOL   C221 6737   1.907   3.634   7.250  0.0438  0.0803  0.4832
   19MOL   C222 6738   1.823   3.512   7.292 -0.7379  0.1590  0.5728
   19MOL   C223 6739   1.789   3.509   7.441 -0.3051 -0.8477 -0.2327
   19MOL   H224 6740   2.117   3.635   6.834  0.5032  1.6188  3.1368
   19MOL   H225 6741   1.944   3.668   6.836 -1.5273 -1.0757  0.8246
   19MOL   H226 6742   2.012   3.484   7.052 -1.6095  0.8098  0.1750
   19MOL   H227 6743   1.828   3.622   7.058 -1.1094  1.3988  0.8412
   19MOL   H228 6744   1.928   3.759   7.085 -0.5600 -0.2683 -1.5268
   19MOL   H229 6745   1.846   3.718   7.284 -0.0749  0.7547 -1.2859
   19MOL   H230 6746   2.000   3.641   7.306  1.0975 -0.2212 -1.1945
   19MOL   H231 6747   1.732   3.499   7.233 -1.6381  1.6063  1.6355
   19MOL   H232 6748   1.887   3.425   7.275 -0.0904  0.4288  1.5605
   19MOL   H233 6749   1.705   3.444   7.465 -1.2773  0.7381  0.7427
   19MOL   H234 6750   1.768   3.611   7.472  0.4809 -0.9230  0.5611
   19MOL   H235 6751   1.882   3.487   7.492  0.2644  2.3283  0.2048
   19MOL   C236 6752   2.184   3.612   7.060 -0.0349 -0.4116 -0.4664
   19MOL   C237 6753   2.278   3.504   7.014  0.3960  0.2898  0.4517
   19MOL   C238 6754   2.267   3.376   7.111 -0.6207  0.3000 -0.1313
   19MOL   C239 6755   2.292   3.403   7.261 -0.3444  0.5933 -0.4170
   19MOL   C240 6756   2.266   3.282   7.354  0.7480 -0.6548  0.3045
   19MOL   C241 6757   2.307   3.317   7.502 -0.6929 -0.3179  0.6029
   19MOL   H242 6758   2.198   3.709   7.011  0.5178  0.4260  1.3193
   19MOL   H243 6759   2.194   3.655   7.160  4.6283  0.1880 -1.0658
   19MOL   H244 6760   2.249   3.463   6.918 -0.8173  2.8856 -0.3296
   19MOL   H245 6761   2.179   3.315   7.091 -1.1663  0.6399  1.2040
   19MOL   H246 6762   2.340   3.297   7.100 -2.9889 -2.1284  1.1643
   19MOL   H247 6763   2.225   3.481   7.298  0.6204  1.3092 -0.1447
   19MOL   H248 6764   2.398   3.423   7.279  0.3497 -2.5714 -0.8263
   19MOL   H249 6765   2.159   3.261   7.346  0.9130 -1.2594 -0.3885
   19MOL   H250 6766   2.326   3.198   7.321 -2.8512 -2.2497 -2.5565
   19MOL   H251 6767   2.416   3.318   7.515 -0.5635 -0.9525 -0.3239
   19MOL   H252 6768   2.274   3.419   7.518  0.0920  0.1788 -0.8429
   19MOL   H253 6769   2.270   3.239   7.568 -3.2064  0.3914  0.0549
   19MOL   C254 6770   2.423   3.558   7.012 -0.4406 -0.0581 -0.1217
   19MOL   C255 6771   2.467   3.650   6.896  0.0175 -0.4522 -0.0350
   19MOL   C256 6772   2.457   3.577   6.755  0.0662 -0.6734 -0.3668
   19MOL   C257 6773   2.563   3.475   6.728 -0.2029  0.0861 -0.0429
   19MOL   C258 6774   2.585   3.445   6.588  0.0002  0.1636  0.0133
   19MOL   C259 6775   2.475   3.341   6.529 -0.3882  0.1504  0.4400
   19MOL   H260 6776   2.492   3.474   7.000 -1.4249 -0.8692 -0.1763
   19MOL   H261 6777   2.437   3.593   7.114  1.9819  0.8736 -0.7362
   19MOL   H262 6778   2.385   3.723   6.896  0.4988  0.0946 -0.2632
   19MOL   H263 6779   2.368   3.516   6.735 -1.3404  0.6975  1.5435
   19MOL   H264 6780   2.452   3.649   6.673 -0.4744  0.2475  0.4683
   19MOL   H265 6781   2.655   3.510   6.776 -1.6135  2.6745  0.8589
   19MOL   H266 6782   2.546   3.382   6.783 -1.3196  0.3169  0.0040
   19MOL   H267 6783   2.680   3.396   6.566 -0.9998 -1.1015 -1.6715
   19MOL   H268 6784   2.573   3.536   6.529 -2.9575  0.8986  1.6624
   19MOL   H269 6785   2.372   3.370   6.548 -0.7008 -0.4055 -0.3501
   19MOL   H270 6786   2.490   3.243   6.574  2.7987  0.2481 -0.2911
   19MOL   H271 6787   2.485   3.332   6.421 -0.9340  0.9874  0.3106
   19MOL   C272 6788   2.603   3.720   6.928 -0.0106  0.2528  0.7184
   19MOL   C273 6789   2.660   3.809   6.818  0.0351 -0.4457  0.1757
   19MOL   C274 6790   2.809   3.834   6.841  0.0962  0.1090  0.1787
   19MOL   C275 6791   2.908   3.732   6.784  0.0718 -0.9191  0.3298
   19MOL   C276 6792   2.903   3.722   6.631  0.0464 -0.2556 -0.0743
   19MOL   C277 6793   3.002   3.623   6.572 -0.3362 -0.1200  0.3360
   19MOL   H278 6794   2.581   3.772   7.021 -0.0917  2.1695 -0.3435
   19MOL   H279 6795   2.675   3.644   6.957 -0.4442 -1.8284 -3.2987
   19MOL   H280 6796   2.648   3.767   6.718  3.6067  0.9059 -0.8809
   19MOL   H281 6797   2.826   3.848   6.948  0.2310 -2.6633  0.5600
   19MOL   H282 6798   2.834   3.931   6.799 -0.8022 -0.3812 -1.5571
   19MOL   H283 6799   2.902   3.635   6.833  0.0628 -0.1738  1.8176
   19MOL   H284 6800   3.005   3.772   6.812 -0.2171 -0.7563  1.1146
   19MOL   H285 6801   2.808   3.683   6.594  1.2191 -1.6356 -1.7424
   19MOL   H286 6802   2.923   3.819   6.585 -1.4302 -0.6268 -1.5637
   19MOL   H287 6803   2.991   3.531   6.629  0.5380 -1.5234 -1.7012
   19MOL   H288 6804   2.999   3.606   6.465 -0.3108  0.1879  0.2848
   19MOL   H289 6805   3.102   3.664   6.587 -0.0802 -0.5115 -0.2930
   19MOL   C290 6806   2.583   3.941   6.808 -0.0056 -0.7542  0.5202
   19MOL   C291 6807   2.518   3.977   6.670 -0.3169 -0.2637  0.1810
   19MOL   C292 6808   2.417   4.097   6.688 -0.3264  0.1522  0.2051
   19MOL   C293 6809   2.279   4.083   6.756 -0.8219  1.1136 -0.1629
   19MOL   C294 6810   2.197   4.217   6.772 -0.9270  0.6968  0.0654
   19MOL   C295 6811   2.252   4.333   6.860  0.3086  0.1085 -0.1237
   19MOL   H296 6812   2.640   4.023   6.852  2.8294 -2.4444  0.1554
   19MOL   H297 6813   2.505   3.930   6.883  0.0541 -2.5060  0.3505
   19MOL   H298 6814   2.451   3.893   6.652  0.3755 -1.0357  1.1441
   19MOL   H299 6815   2.398   4.134   6.587  1.0652  0.5467  0.0894
   19MOL   H300 6816   2.464   4.191   6.716  0.3905  0.3509 -1.6488
   19MOL   H301 6817   2.218   4.013   6.700 -1.1016  0.0772  1.4164
   19MOL   H302 6818   2.290   4.051   6.860 -0.3349  1.8745  0.0315
   19MOL   H303 6819   2.102   4.175   6.803 -0.2780 -0.6311  0.2917
   19MOL   H304 6820   2.179   4.260   6.673  0.4171  1.2298  0.0351
   19MOL   H305 6821   2.352   4.370   6.838  0.9006 -0.5653  1.4047
   19MOL   H306 6822   2.247   4.304   6.965 -1.2604 -3.5919 -1.1545
   19MOL   H307 6823   2.188   4.421   6.853 -2.6790 -1.9489  0.3254
   19MOL   C308 6824   2.640   3.998   6.573 -0.2319  0.1108  0.7780
   19MOL   C309 6825   2.611   4.064   6.439 -0.6710 -0.6508  0.5717
   19MOL   C310 6826   2.696   3.999   6.319  0.1870 -0.1920 -0.7579
   19MOL   C311 6827   2.650   3.863   6.273  0.0455 -1.4708  0.1358
   19MOL   C312 6828   2.743   3.790   6.179  0.4491 -0.5538  0.3318
   19MOL   C313 6829   2.770   3.859   6.047 -0.2616  0.6237  0.0584
   19MOL   H314 6830   2.718   4.055   6.623  0.0731  0.2590  0.1342
   19MOL   H315 6831   2.670   3.896   6.549  0.0006  0.0823  1.1907
   19MOL   H316 6832   2.503   4.061   6.429 -0.6366 -3.3976  0.5901
   19MOL   H317 6833   2.797   3.991   6.359  0.5774 -0.8661 -1.8661
   19MOL   H318 6834   2.715   4.061   6.231 -0.2704 -1.0399 -1.4572
   19MOL   H319 6835   2.547   3.872   6.236 -0.8563  1.3733  3.1826
   19MOL   H320 6836   2.638   3.794   6.357 -1.4401  0.6806  1.7428
   19MOL   H321 6837   2.841   3.765   6.222  2.3830  3.8974 -1.1822
   19MOL   H322 6838   2.697   3.694   6.158 -1.4234  0.4693 -0.3018
   19MOL   H323 6839   2.785   3.776   5.978 -0.2074 -0.6783  1.6136
   19MOL   H324 6840   2.852   3.930   6.048 -0.8129  1.2430  1.3912
   19MOL   H325 6841   2.677   3.912   6.026 -0.7375 -0.5844 -1.0348
   19MOL   C326 6842   2.648   4.214   6.454  0.6788  0.3831  0.2300
   19MOL   C327 6843   2.617   4.309   6.333 -0.3096  0.7730 -0.6110
   19MOL   C328 6844   2.470   4.295   6.280 -0.0221 -0.5121  0.3739
   19MOL   C329 6845   2.363   4.352   6.373  0.2397 -0.0703  0.5496
   19MOL   C330 6846   2.230   4.286   6.342 -0.3542  0.1868 -0.0244
   19MOL   C331 6847   2.110   4.363   6.397  0.4069 -0.0140 -0.4812
   19MOL   H332 6848   2.756   4.224   6.469  1.1127 -1.1572 -1.6891
   19MOL   H333 6849   2.607   4.269   6.538  2.5255  1.3066  0.5642
   19MOL   H334 6850   2.683   4.275   6.253  1.9586  1.6950  0.8114
   19MOL   H335 6851   2.453   4.335   6.180  1.2432 -1.8201 -0.3762
   19MOL   H336 6852   2.467   4.188   6.260  1.2392 -0.1871 -1.6596
   19MOL   H337 6853   2.363   4.459   6.355 -1.9151  0.0754  1.2162
   19MOL   H338 6854   2.391   4.341   6.478 -0.3969  1.6601  0.9221
   19MOL   H339 6855   2.216   4.256   6.238 -0.0487 -0.2358  0.0552
   19MOL   H340 6856   2.220   4.192   6.397 -0.8361 -1.7366 -3.2406
   19MOL   H341 6857   2.102   4.446   6.327  1.2312  1.0014  0.6294
   19MOL   H342 6858   2.119   4.392   6.501 -1.0405 -0.6528 -0.1640
   19MOL   H343 6859   2.013   4.314   6.395 -0.1590  1.0821 -0.2412
   19MOL   C344 6860   2.665   4.454   6.364 -0.2492 -1.0677 -0.8151
   19MOL   C345 6861   2.662   4.545   6.228 -0.5162  0.1321  0.1337
   19MOL   C346 6862   2.751   4.667   6.246 -0.5791 -0.3783 -0.4398
   19MOL   C347 6863   2.709   4.785   6.154  0.1089  0.4287 -0.3453
   19MOL   C348 6864   2.587   4.859   6.210 -0.2951 -0.2737 -0.2321
   19MOL   C349 6865   2.617   4.908   6.348  0.3850  0.1528  0.3435
   19MOL   H350 6866   2.611   4.513   6.437 -1.0612 -0.3360 -1.9956
   19MOL   H351 6867   2.770   4.444   6.392 -0.5339 -0.2447  0.5446
   19MOL   H352 6868   2.561   4.578   6.202 -0.8735  0.2257  1.5486
   19MOL   H353 6869   2.766   4.687   6.352 -3.5842  1.1933 -0.2604
   19MOL   H354 6870   2.848   4.630   6.214  0.0108 -0.0572  0.9355
   19MOL   H355 6871   2.789   4.857   6.135  0.2065  0.3954 -0.0661
   19MOL   H356 6872   2.684   4.743   6.057  1.0219  0.0786 -0.4320
   19MOL   H357 6873   2.565   4.941   6.142  3.4197 -0.3287 -1.6103
   19MOL   H358 6874   2.500   4.794   6.215 -0.7847  0.4892  1.3731
   19MOL   H359 6875   2.717   4.949   6.365  0.8556 -1.8425  2.5615
   19MOL   H360 6876   2.548   4.988   6.374  2.3865  1.8723  0.4923
   19MOL   H361 6877   2.606   4.827   6.420 -1.6032 -0.9074 -1.1204
   19MOL   H362 6878   2.694   4.482   6.145  1.1198 -0.9952  1.5851
   20MOL     C1 6879   4.855   7.539   7.573 -0.4684  0.0079 -0.3319
   20MOL     C2 6880   4.820   7.454   7.697  0.4976 -0.2257 -0.4838
   20MOL     C3 6881   4.922   7.465   0.077 -0.0024  0.2346  0.1753
   20MOL     C4 6882   5.054   7.401   0.029  0.1452  0.1959  0.2619
   20MOL     C5 6883   5.159   7.397   0.143 -0.0804  0.0645 -0.4051
   20MOL     C6 6884   5.271   7.294   0.135 -0.3476 -0.6698  0.3872
   20MOL     H7 6885   4.848   7.647   7.589 -0.9705 -0.3434  1.9668
   20MOL     H8 6886   4.954   7.513   7.535 -0.9132 -2.6255  0.2126
   20MOL     H9 6887   4.722   7.487   0.003 -0.3776 -3.9594  0.8662
   20MOL    H10 6888   4.873   7.424   0.165  0.6052 -0.1795  0.3232
   20MOL    H11 6889   4.940   7.571   0.096 -2.5362  0.5235  1.2255
   20MOL    H12 6890   5.102   7.443   7.667  1.2164  0.0507  0.7639
   20MOL    H13 6891   5.048   7.297   7.723  0.1048  0.1529  0.4086
   20MOL    H14 6892   5.203   7.495   0.162 -1.2775  0.4561  0.4453
   20MOL    H15 6893   5.113   7.375   0.240  2.4556 -2.1224  0.3748
   20MOL    H16 6894   5.287   7.240   0.228 -0.4778 -1.8932 -0.2949
   20MOL    H17 6895   5.365   7.344   0.112 -0.0303 -2.2596 -1.9000
   20MOL    H18 6896   5.249   7.220   0.058 -0.3188  0.2107 -0.4866
   20MOL    H19 6897   4.782   7.512   7.497 -0.0911 -1.0390 -0.3302
   20MOL    C20 6898   4.788   7.306   7.652  0.0613 -0.5578  0.1170
   20MOL    C21 6899   4.637   7.275   7.604 -0.1822 -0.5642  0.6383
   20MOL    C22 6900   4.641   7.140   7.521 -0.0339 -0.0110 -0.4880
   20MOL    C23 6901   4.731   7.134   7.393  0.2580 -0.1123 -0.3766
   20MOL    C24 6902   4.681   7.030   7.293 -0.2033  0.0504 -0.1778
   20MOL    C25 6903   4.788   7.000   7.194 -0.5498 -0.0018 -0.3861
   20MOL    H26 6904   4.813   7.239   0.007 -0.1434 -0.1624  0.5067
   20MOL    H27 6905   4.856   7.289   7.568 -0.7385 -0.4351 -0.5607
   20MOL    H28 6906   4.606   7.347   7.529 -0.4894 -0.5601  0.7717
   20MOL    H29 6907   4.541   7.134   7.479  0.3615 -1.4437 -1.2580
   20MOL    H30 6908   4.668   7.055   7.584  0.8805  1.4188  1.1074
   20MOL    H31 6909   4.829   7.103   7.427  2.7556  1.7957 -5.2873
   20MOL    H32 6910   4.746   7.226   7.336 -0.4070 -0.1406 -0.6071
   20MOL    H33 6911   4.639   6.944   7.345  0.0945 -1.2630 -2.0522
   20MOL    H34 6912   4.605   7.076   7.230 -1.2693 -0.1211  0.9646
   20MOL    H35 6913   4.833   7.092   7.157 -0.8689 -0.1510 -1.1487
   20MOL    H36 6914   4.868   6.936   7.233 -1.2406 -0.9717 -0.5423
   20MOL    H37 6915   4.752   6.945   7.107  0.2503 -0.2932 -0.5429
   20MOL    C38 6916   4.546   7.267   0.002 -0.1512  0.5393 -0.1082
   20MOL    C39 6917   4.398   7.216   7.699 -0.4870  0.3499 -0.6195
   20MOL    C40 6918   4.314   7.169   0.102  0.1662 -0.3405 -0.4574
   20MOL    C41 6919   4.286   7.293   0.193  0.6480 -0.4216 -0.0871
   20MOL    C42 6920   4.229   7.245   0.322 -0.0845  1.4872 -0.2775
   20MOL    C43 6921   4.328   7.170   0.423  0.7371  0.0804 -0.8219
   20MOL    H44 6922   4.541   7.361   0.058  0.7117  0.7875 -0.4310
   20MOL    H45 6923   4.585   7.198   0.077 -1.0521  0.0420 -0.0965
   20MOL    H46 6924   4.410   7.119   7.651 -0.9324 -0.1121  0.1881
   20MOL    H47 6925   4.219   7.126   0.072 -2.6000  4.2877  1.2519
   20MOL    H48 6926   4.371   7.083   0.139  0.0790  0.5094  1.7011
   20MOL    H49 6927   4.377   7.353   0.200  1.6727 -1.9697 -0.0542
   20MOL    H50 6928   4.220   7.366   0.146  0.6093 -0.2851  0.1773
   20MOL    H51 6929   4.185   7.331   0.373 -0.4461  0.3498  1.4076
   20MOL    H52 6930   4.143   7.181   0.302 -0.1330  2.0000 -1.7470
   20MOL    H53 6931   4.396   7.103   0.371  0.8745  0.7362 -1.4984
   20MOL    H54 6932   4.276   7.110   0.498  1.6545 -0.3373 -0.5224
   20MOL    H55 6933   4.377   7.255   0.471 -1.5568  0.4734  0.8987
   20MOL    C56 6934   4.312   7.294   7.596  0.0055 -0.3600 -0.9318
   20MOL    C57 6935   4.164   7.259   7.568 -0.0770 -0.0672  0.1079
   20MOL    C58 6936   4.135   7.125   7.511  0.0802  0.5617  0.0091
   20MOL    C59 6937   4.211   7.088   7.378  0.2512  0.4126  0.1664
   20MOL    C60 6938   4.188   6.939   7.346 -0.4607 -0.2961 -0.5891
   20MOL    C61 6939   4.245   6.900   7.213 -0.8551  0.1214  0.1090
   20MOL    H62 6940   4.310   7.396   7.636  3.2966 -0.8404  0.6782
   20MOL    H63 6941   4.374   7.311   7.508 -0.6553  1.7140 -1.0342
   20MOL    H64 6942   4.109   7.255   7.661  1.5307 -0.8403  1.0546
   20MOL    H65 6943   4.173   7.057   7.587 -0.7831 -0.4167 -0.4243
   20MOL    H66 6944   4.027   7.111   7.502  0.1136  0.3569 -0.0666
   20MOL    H67 6945   4.318   7.110   7.381  0.2640  0.3254  0.3640
   20MOL    H68 6946   4.168   7.149   7.299 -0.7111 -1.0686 -0.4609
   20MOL    H69 6947   4.207   6.870   7.428  2.4821  1.7765  0.5594
   20MOL    H70 6948   4.080   6.942   7.328 -0.3317  1.3916 -1.1751
   20MOL    H71 6949   4.207   6.970   7.138 -1.3239  0.8822  1.0546
   20MOL    H72 6950   4.352   6.919   7.216 -1.0153  0.8353  2.6787
   20MOL    H73 6951   4.239   6.798   7.175 -0.3052  0.7112 -1.6388
   20MOL    C74 6952   4.085   7.370   7.488  0.0812 -0.3407 -0.1546
   20MOL    C75 6953   3.966   7.436   7.563  0.6499 -0.5593 -0.0082
   20MOL    C76 6954   4.010   7.534   7.677 -0.5290 -0.0876 -0.5074
   20MOL    C77 6955   4.078   7.670   7.641 -0.2517 -0.4423 -0.0902
   20MOL    C78 6956   4.138   0.009   0.039 -0.5242 -0.4174  0.2504
   20MOL    C79 6957   4.280   7.682   0.081  0.0493 -0.3224  0.0785
   20MOL    H80 6958   4.162   7.444   7.469 -2.0070  1.8701 -0.3330
   20MOL    H81 6959   4.053   7.331   7.391 -1.3494 -0.7918  0.4874
   20MOL    H82 6960   3.914   7.355   7.614  1.5141 -0.2939  1.3160
   20MOL    H83 6961   3.926   7.554   0.016  0.5006  0.2928  0.7063
   20MOL    H84 6962   4.088   7.492   0.013  1.1446  2.7584 -0.5803
   20MOL    H85 6963   4.139   7.645   7.554  0.1124 -0.6192  0.2119
   20MOL    H86 6964   4.003   0.007   7.594  0.3048  0.2457 -0.0600
   20MOL    H87 6965   4.072   0.016   0.125 -3.2261  0.3363 -1.8323
   20MOL    H88 6966   4.164   0.113   0.022  0.9286 -0.3317  2.7831
   20MOL    H89 6967   4.366   7.716   0.023 -0.3018 -0.0373 -0.2729
   20MOL    H90 6968   4.304   7.690   0.187 -0.2248 -1.1431  0.2104
   20MOL    H91 6969   4.288   7.574   0.068 -0.4229 -0.7110  2.6859
   20MOL    C92 6970   3.865   7.504   7.471  0.0640 -0.4216 -0.2363
   20MOL    C93 6971   3.762   7.426   7.386 -0.3415  0.0574 -0.3824
   20MOL    C94 6972   3.682   7.329   7.469  0.7095 -0.2140 -0.0352
   20MOL    C95 6973   3.596   7.388   7.580 -0.2696 -0.2219 -0.0786
   20MOL    C96 6974   3.510   7.287   7.663 -0.3446  1.0396  0.3612
   20MOL    C97 6975   3.429   7.360   0.046  0.3717  0.4775 -0.7405
   20MOL    H98 6976   3.817   7.587   7.523  0.9521 -0.1267  0.1173
   20MOL    H99 6977   3.914   7.575   7.404  0.2619  0.6642  1.0281
   20MOL   H100 6978   3.824   7.366   7.318 -0.0886 -0.3785  0.2321
   20MOL   H101 6979   3.755   7.263   7.516  1.0554  0.2019  0.0107
   20MOL   H102 6980   3.624   7.256   7.412  0.3438  1.1483 -1.4450
   20MOL   H103 6981   3.651   7.456   7.645 -0.7587  0.1079 -0.0079
   20MOL   H104 6982   3.513   7.439   7.532  0.6967 -0.5403 -2.1453
   20MOL   H105 6983   3.451   7.223   7.597  0.2221  0.8909 -0.0010
   20MOL   H106 6984   3.578   7.217   7.712 -0.8601  0.0634 -0.2902
   20MOL   H107 6985   3.427   7.303   0.139  1.5793  0.5322 -0.6806
   20MOL   H108 6986   3.472   7.454   0.082 -0.1781 -0.5597  2.7196
   20MOL   H109 6987   3.324   7.361   0.016  0.2954 -0.1145 -0.4990
   20MOL   C110 6988   3.676   7.523   7.304 -0.6362  0.5427 -0.8585
   20MOL   C111 6989   3.575   7.479   7.193 -0.5166  0.2429 -0.3350
   20MOL   C112 6990   3.645   7.411   7.071  1.0523  0.3516  0.1556
   20MOL   C113 6991   3.553   7.332   6.979 -0.7134 -0.4233  0.1405
   20MOL   C114 6992   3.618   7.233   6.886  0.2966  0.5755  0.0108
   20MOL   C115 6993   3.527   7.143   6.800  0.1769  0.2476 -0.4867
   20MOL   H116 6994   3.609   7.563   7.380 -0.3496  0.1175 -0.3820
   20MOL   H117 6995   3.746   7.596   7.263 -0.4791  1.7118  1.4078
   20MOL   H118 6996   3.519   7.401   7.246  0.2240 -0.3560 -0.4236
   20MOL   H119 6997   3.729   7.347   7.097  1.9052  1.5175  0.3473
   20MOL   H120 6998   3.690   7.490   7.011  0.2308  2.8478  2.6884
   20MOL   H121 6999   3.475   7.398   6.941  1.6722  2.1894 -0.3819
   20MOL   H122 7000   3.500   7.265   7.047 -2.6043  0.1489 -0.7213
   20MOL   H123 7001   3.699   7.178   6.933 -0.6685 -1.5374 -0.7318
   20MOL   H124 7002   3.673   7.297   6.818  1.1299  1.7606  1.7719
   20MOL   H125 7003   3.569   7.077   6.724 -0.7588  1.0071 -1.6987
   20MOL   H126 7004   3.470   7.082   6.869 -0.2657  0.3889 -0.7212
   20MOL   H127 7005   3.455   7.202   6.742  0.4106  1.1764  0.1443
   20MOL   C128 7006   3.490   7.589   7.150  0.2265 -0.6771  0.2566
   20MOL   C129 7007   3.354   7.592   7.224 -1.0222  0.3867  0.5557
   20MOL   C130 7008   3.259   7.501   7.146 -0.0493 -0.0943  0.4473
   20MOL   C131 7009   3.120   7.474   7.212  0.4018 -0.2475  0.0337
   20MOL   C132 7010   3.082   7.325   7.199  0.1261  0.3467 -0.1335
   20MOL   C133 7011   2.931   7.295   7.244  0.2548 -0.8657  0.1896
   20MOL   H134 7012   3.476   7.581   7.042 -0.7896  0.0159  0.3358
   20MOL   H135 7013   3.548   7.681   7.155  0.1315 -0.6231  0.3733
   20MOL   H136 7014   3.360   7.561   7.328 -2.7627 -0.0666  0.5380
   20MOL   H137 7015   3.235   7.542   7.048  0.5487 -0.3328  0.2008
   20MOL   H138 7016   3.318   7.411   7.128  2.0185  1.5184 -1.1228
   20MOL   H139 7017   3.040   7.539   7.175 -0.7464 -2.2137 -1.0052
   20MOL   H140 7018   3.124   7.486   7.321 -0.5745 -3.0000  0.4294
   20MOL   H141 7019   3.098   7.290   7.098  3.2836 -1.4659  0.9466
   20MOL   H142 7020   3.149   7.263   7.258  1.3379  1.8538  0.0942
   20MOL   H143 7021   2.850   7.346   7.190  1.9828  1.4385 -0.3182
   20MOL   H144 7022   2.916   7.318   7.349  0.0334  0.3423 -0.0988
   20MOL   H145 7023   2.922   7.187   7.231 -0.9452 -0.6389 -1.0110
   20MOL   C146 7024   3.283   0.002   7.231  0.4509  0.4472 -0.1648
   20MOL   C147 7025   3.321   0.091   7.346 -1.4621 -0.6809 -0.3345
   20MOL   C148 7026   3.273   0.046   7.487 -0.4203  0.0716 -0.3625
   20MOL   C149 7027   3.352   0.110   7.598  0.5142 -0.3752 -0.3294
   20MOL   C150 7028   3.316   0.064   0.012  0.1126 -0.0129 -0.1531
   20MOL   C151 7029   3.168   0.062   0.039 -0.8601 -0.0141  0.1727
   20MOL   H152 7030   3.307   0.064   7.145 -0.3621  1.7933  0.5648
   20MOL   H153 7031   3.176   0.004   7.247  0.6168  0.4901  0.9738
   20MOL   H154 7032   3.427   0.067   7.352 -0.9774  1.4973  0.1238
   20MOL   H155 7033   3.289   7.668   7.510  1.6510  0.8072  1.6987
   20MOL   H156 7034   3.167   0.067   7.497  0.2167  2.7730  1.2068
   20MOL   H157 7035   3.458   0.092   7.583  0.5611  0.2065 -0.6824
   20MOL   H158 7036   3.345   0.218   7.583 -2.8316 -0.9867 -3.9294
   20MOL   H159 7037   3.365   0.131   0.083 -0.4703 -0.9223  1.1273
   20MOL   H160 7038   3.362   7.695   0.036  0.0330 -0.0334 -0.0800
   20MOL   H161 7039   3.119   7.707   7.715 -0.8873 -0.5368  1.0336
   20MOL   H162 7040   3.147   0.049   0.145 -1.1303 -1.0742 -0.0106
   20MOL   H163 7041   3.124   0.154   7.726  2.6250 -0.2710 -4.7404
   20MOL   C164 7042   3.297   0.243   7.310  0.6970  0.5007 -0.2481
   20MOL   C165 7043   3.150   0.284   7.263  0.4438 -0.2854 -0.3127
   20MOL   C166 7044   3.042   0.298   7.381  0.4498 -0.7401  0.5345
   20MOL   C167 7045   2.897   0.308   7.336  0.7658 -0.0945  0.4641
   20MOL   C168 7046   2.788   0.309   7.456 -0.4663 -0.1366 -0.1937
   20MOL   C169 7047   2.649   0.346   7.403 -0.1622 -0.0921  0.6474
   20MOL   H170 7048   3.334   0.312   7.386 -1.8243  1.2795  0.3467
   20MOL   H171 7049   3.370   0.260   7.231  1.2100  4.4290  0.9544
   20MOL   H172 7050   3.113   0.217   7.185  0.3297 -0.2278 -0.3083
   20MOL   H173 7051   3.066   0.387   7.439 -0.6803  0.2753 -0.5389
   20MOL   H174 7052   3.040   0.211   7.447 -0.1502  0.0832  1.6187
   20MOL   H175 7053   2.870   0.218   7.283  0.0158  0.9992 -1.0456
   20MOL   H176 7054   2.864   0.395   7.279 -0.4259  1.4752  3.3779
   20MOL   H177 7055   2.818   0.370   7.542  2.3473  0.8106 -1.7797
   20MOL   H178 7056   2.782   0.206   7.492 -1.1674  0.8885  2.8026
   20MOL   H179 7057   2.582   0.343   7.489 -1.5458  1.4272 -0.3489
   20MOL   H180 7058   2.625   0.282   7.318  1.4599 -0.5607  0.5151
   20MOL   H181 7059   2.647   0.446   7.360  0.7487 -0.6861 -0.8324
   20MOL   C182 7060   3.163   0.429   7.201  0.1382  0.5625 -0.1303
   20MOL   C183 7061   3.195   0.437   7.048  0.6643  0.1286  0.9040
   20MOL   C184 7062   3.273   0.573   7.025  0.2676 -0.4823 -0.4817
   20MOL   C185 7063   3.304   0.601   6.874  0.3645 -0.4987 -0.7636
   20MOL   C186 7064   3.377   0.733   6.848  0.4252 -0.0236 -0.0702
   20MOL   C187 7065   3.296   0.864   6.871 -0.1423 -0.0467  0.0923
   20MOL   H188 7066   3.068   0.481   7.205 -0.7618 -1.0425 -0.2850
   20MOL   H189 7067   3.240   0.485   7.254 -0.6164  1.8604 -0.3970
   20MOL   H190 7068   3.269   0.357   7.038  0.9072  0.4792 -0.1891
   20MOL   H191 7069   3.213   0.655   7.063  0.6514 -1.3004  1.9865
   20MOL   H192 7070   3.369   0.569   7.078  0.3522  3.0433 -0.2436
   20MOL   H193 7071   3.212   0.617   6.817  0.0570 -1.0053 -0.4211
   20MOL   H194 7072   3.356   0.515   6.832  0.7911 -0.1301 -0.9875
   20MOL   H195 7073   3.433   0.723   6.755  1.5237  1.6005  0.4056
   20MOL   H196 7074   3.456   0.740   6.922  0.1557 -0.4842  0.2628
   20MOL   H197 7075   3.232   0.891   6.787  1.1082  0.9286 -0.5801
   20MOL   H198 7076   3.351   0.959   6.878  1.7590 -1.1296  0.2486
   20MOL   H199 7077   3.231   0.849   6.957 -0.5811  0.2802 -0.1794
   20MOL   C200 7078   3.073   0.418   6.953  0.0280  0.7194  0.4421
   20MOL   C201 7079   3.106   0.323   6.844  0.2327  0.0409  0.5727
   20MOL   C202 7080   3.075   0.173   6.875 -0.3599 -0.3053  0.2531
   20MOL   C203 7081   2.934   0.136   6.898  0.3010 -0.4363  0.0618
   20MOL   C204 7082   2.920   7.711   6.887 -1.6946  0.2276  0.5060
   20MOL   C205 7083   2.779   7.664   6.919  0.4184  0.3294 -0.0512
   20MOL   H206 7084   3.051   0.518   6.916 -2.1709  0.6479  1.4563
   20MOL   H207 7085   2.981   0.387   7.003 -0.4877  0.3754 -0.6915
   20MOL   H208 7086   3.213   0.318   6.825  0.0364  0.7013 -0.7358
   20MOL   H209 7087   3.129   0.152   6.967  2.2222  1.1498 -0.8783
   20MOL   H210 7088   3.123   0.106   6.804  0.6104 -0.2246  0.8278
   20MOL   H211 7089   2.870   0.189   6.827 -2.5435 -1.2507  1.9009
   20MOL   H212 7090   2.899   0.170   6.995  0.7549  2.1408 -0.6520
   20MOL   H213 7091   2.995   7.664   6.951 -0.3592  0.7205 -0.6598
   20MOL   H214 7092   2.956   7.679   6.789  0.7983 -1.8463  2.0349
   20MOL   H215 7093   2.709   7.692   6.841 -0.3254  2.8455  1.4896
   20MOL   H216 7094   2.766   7.556   6.925 -1.6529  0.5739 -0.0584
   20MOL   H217 7095   2.740   7.699   7.015 -0.0928  2.5946 -1.0743
   20MOL   C218 7096   3.038   0.381   6.710 -0.0021  0.1551 -0.5256
   20MOL   C219 7097   3.023   0.288   6.590 -0.0887  0.4822  0.0898
   20MOL   C220 7098   3.163   0.225   6.557  0.0018 -0.2283 -0.6483
   20MOL   C221 7099   3.164   0.090   6.479 -0.2589 -0.0525  0.7415
   20MOL   C222 7100   3.300   0.060   6.415 -0.8482 -0.2225 -0.3989
   20MOL   C223 7101   3.346   0.155   6.306  0.9165  0.0181 -0.3124
   20MOL   H224 7102   2.943   0.427   6.739  0.5387  0.7320  0.3736
   20MOL   H225 7103   3.104   0.463   6.683 -0.8071  0.9592 -0.1032
   20MOL   H226 7104   2.962   0.200   6.612  0.7320 -0.2436 -0.5086
   20MOL   H227 7105   3.235   0.225   6.639 -0.3378  1.0175 -0.3277
   20MOL   H228 7106   3.218   0.291   6.489  2.6716 -1.2324  0.4785
   20MOL   H229 7107   3.092   0.089   6.397 -0.4055 -0.5159  0.8788
   20MOL   H230 7108   3.134   0.005   6.539  2.2790 -1.5089  0.0046
   20MOL   H231 7109   3.376   0.050   6.493 -0.3427 -2.2239 -1.1029
   20MOL   H232 7110   3.298   7.685   6.377  0.7821 -0.9716  1.4261
   20MOL   H233 7111   3.268   0.224   6.271  0.4970 -0.2712  0.0525
   20MOL   H234 7112   3.386   0.091   6.227  0.5247  1.1600 -1.4583
   20MOL   H235 7113   3.427   0.217   6.344 -0.9444  1.3564  1.5993
   20MOL   C236 7114   2.952   0.359   6.469 -0.0374 -0.6953 -0.3596
   20MOL   C237 7115   2.803   0.410   6.485  0.7291  0.0611 -0.1558
   20MOL   C238 7116   2.695   0.311   6.419 -0.2884 -0.3674 -0.2214
   20MOL   C239 7117   2.710   0.309   6.266 -0.5899  0.1307 -0.3401
   20MOL   C240 7118   2.582   0.276   6.182  0.1122 -0.1970  0.0265
   20MOL   C241 7119   2.620   0.270   6.034 -0.1530 -0.3980  0.0535
   20MOL   H242 7120   3.015   0.428   6.411 -1.5233 -0.3904 -1.6442
   20MOL   H243 7121   2.948   0.278   6.397 -5.2574 -1.8039  0.9697
   20MOL   H244 7122   2.789   0.394   6.592 -0.5328  1.3504 -0.0999
   20MOL   H245 7123   2.705   0.209   6.456 -1.1584  0.6424  2.9074
   20MOL   H246 7124   2.596   0.331   6.460  0.2368  2.4384 -0.2109
   20MOL   H247 7125   2.799   0.250   6.249  0.1805  1.2322 -0.2313
   20MOL   H248 7126   2.738   0.408   6.230  1.9695 -0.3910  0.1078
   20MOL   H249 7127   2.546   0.175   6.201  2.4332 -1.2345 -0.9383
   20MOL   H250 7128   2.505   0.349   6.209  1.7471  2.9335 -3.3401
   20MOL   H251 7129   2.682   0.187   6.002 -0.1111  0.2336 -1.5502
   20MOL   H252 7130   2.525   0.269   5.981 -1.0086  2.5975  1.4298
   20MOL   H253 7131   2.670   0.361   5.998  1.1415  0.4087  3.7086
   20MOL   C254 7132   2.781   0.562   6.452  1.0909 -0.0199  0.2693
   20MOL   C255 7133   2.860   0.659   6.543 -0.1452  0.0243  0.5442
   20MOL   C256 7134   2.780   0.711   6.667  0.7814 -0.5712  0.1916
   20MOL   C257 7135   2.860   0.796   6.769 -0.0980 -0.4380  0.4611
   20MOL   C258 7136   2.807   0.781   6.914 -0.8707 -0.1777  0.0925
   20MOL   C259 7137   2.910   0.835   7.013  0.1300  0.2059 -0.7455
   20MOL   H260 7138   2.674   0.583   6.452  0.8787 -1.0185 -1.7559
   20MOL   H261 7139   2.806   0.589   6.350  1.0409 -1.0707 -0.0212
   20MOL   H262 7140   2.934   0.599   6.595 -2.2448 -0.2165  3.3520
   20MOL   H263 7141   2.683   0.756   6.646  1.2797 -0.3800 -1.7448
   20MOL   H264 7142   2.754   0.618   6.718  2.6970 -0.1958  1.8981
   20MOL   H265 7143   2.960   0.753   6.771  0.8353  1.6705  1.2142
   20MOL   H266 7144   2.880   0.901   6.745  0.6693 -0.8190 -0.6248
   20MOL   H267 7145   2.770   0.682   6.941  2.0294 -0.8098  1.9761
   20MOL   H268 7146   2.712   0.835   6.917  0.1091  1.5140  1.1898
   20MOL   H269 7147   2.994   0.769   7.037 -1.1365 -1.0588  0.2506
   20MOL   H270 7148   2.853   0.866   7.101 -0.5408 -0.7169 -0.8477
   20MOL   H271 7149   2.947   0.932   6.981 -0.0553  0.4678 -0.1797
   20MOL   C272 7150   2.908   0.783   6.461 -0.0485 -0.1322 -0.1616
   20MOL   C273 7151   3.024   0.751   6.356  0.0230  0.1388  0.7400
   20MOL   C274 7152   3.154   0.821   6.395  0.1963  0.5025  0.3215
   20MOL   C275 7153   3.233   0.729   6.496  0.1278  0.5147 -0.0738
   20MOL   C276 7154   3.294   0.605   6.418 -0.0936 -0.5694 -0.3712
   20MOL   C277 7155   3.414   0.535   6.491 -0.1280  0.1439  0.9952
   20MOL   H278 7156   2.827   0.828   6.404  0.1824  1.7327  0.9114
   20MOL   H279 7157   2.930   0.868   6.527  0.1511 -0.5340  0.2969
   20MOL   H280 7158   3.030   0.642   6.355 -2.5303 -0.0236  0.0637
   20MOL   H281 7159   3.137   0.915   6.448 -0.3196  0.8012 -0.3620
   20MOL   H282 7160   3.215   0.849   6.310  0.1927  0.8143  0.4200
   20MOL   H283 7161   3.166   0.699   6.576 -0.3665  1.3616 -0.1564
   20MOL   H284 7162   3.311   0.786   6.547 -1.1881  0.9616  1.4867
   20MOL   H285 7163   3.216   0.531   6.400 -3.4057  3.0524 -1.4123
   20MOL   H286 7164   3.323   0.627   6.316  0.5842 -1.1189 -0.3062
   20MOL   H287 7165   3.450   0.459   6.422 -1.3293  0.2534  0.2263
   20MOL   H288 7166   3.486   0.611   6.518 -2.9502  3.2602  0.0968
   20MOL   H289 7167   3.379   0.486   6.582  0.6031  0.6171  1.5354
   20MOL   C290 7168   2.988   0.790   6.209  1.0165 -0.2033 -0.6356
   20MOL   C291 7169   3.068   0.721   6.094  0.1235  0.0087  0.0793
   20MOL   C292 7170   3.015   0.580   6.068 -0.1768  0.4368 -0.2834
   20MOL   C293 7171   3.095   0.484   5.976 -0.4497 -0.0940 -0.5354
   20MOL   C294 7172   3.034   0.352   5.952 -0.1020 -0.6447 -0.0274
   20MOL   C295 7173   3.126   0.243   5.889  0.5089  0.3434 -0.8011
   20MOL   H296 7174   2.998   0.898   6.213 -0.1728 -0.1060  0.1258
   20MOL   H297 7175   2.883   0.768   6.189  1.4407 -3.9735  0.7961
   20MOL   H298 7176   3.174   0.708   6.119 -0.0912 -1.8421  0.0783
   20MOL   H299 7177   2.917   0.589   6.022 -0.3723  0.1432  0.0719
   20MOL   H300 7178   2.985   0.519   6.154 -1.3544  0.3183 -0.7767
   20MOL   H301 7179   3.117   0.522   5.877 -2.9042  0.0639 -1.0541
   20MOL   H302 7180   3.188   0.470   6.031 -1.8512 -1.7831  1.4942
   20MOL   H303 7181   2.938   0.361   5.900  0.0655 -1.3650 -0.4661
   20MOL   H304 7182   2.997   0.309   6.045  0.4847 -1.3401 -0.1153
   20MOL   H305 7183   3.210   0.219   5.954  1.0516 -0.9138 -1.9521
   20MOL   H306 7184   3.171   0.274   5.795  0.4446 -0.8661 -1.2430
   20MOL   H307 7185   3.069   0.152   5.867 -0.9289  1.2669 -0.9804
   20MOL   C308 7186   3.074   0.810   5.967 -0.7648 -0.6203 -0.1565
   20MOL   C309 7187   3.222   0.865   5.938 -0.2777 -0.5467  0.1295
   20MOL   C310 7188   3.251   0.985   6.030 -0.0028 -0.1819 -0.6370
   20MOL   C311 7189   3.394   0.980   6.103  0.3252 -0.4900  0.6953
   20MOL   C312 7190   3.436   1.112   6.167 -0.0051  0.9277  0.8310
   20MOL   C313 7191   3.583   1.110   6.212 -0.3079 -0.2732 -0.0389
   20MOL   H314 7192   3.029   0.752   5.886 -2.0600 -0.2563  0.2808
   20MOL   H315 7193   2.991   0.880   5.977 -0.3815 -0.6022  3.5705
   20MOL   H316 7194   3.286   0.782   5.969 -0.0202  0.1802  1.6062
   20MOL   H317 7195   3.183   0.999   6.114 -0.2657  1.2696 -1.0797
   20MOL   H318 7196   3.241   1.075   5.970 -1.0247 -0.8178 -1.4448
   20MOL   H319 7197   3.476   0.956   6.035  0.7227 -0.2262  1.0722
   20MOL   H320 7198   3.401   0.903   6.181 -1.1411 -0.6128  0.7056
   20MOL   H321 7199   3.420   1.197   6.100  2.0530  0.6513 -0.0611
   20MOL   H322 7200   3.373   1.148   6.248 -2.4558 -1.0956 -0.1043
   20MOL   H323 7201   3.647   1.069   6.134 -0.4463  0.3873 -0.5002
   20MOL   H324 7202   3.604   1.028   6.280 -2.4959 -1.0298 -0.2292
   20MOL   H325 7203   3.625   1.202   6.252 -2.0613 -0.5917  2.6710
   20MOL   C326 7204   3.260   0.899   5.795 -0.1613 -0.7722 -0.4925
   20MOL   C327 7205   3.270   0.780   5.698  0.1127 -0.1843  0.2485
   20MOL   C328 7206   3.202   0.825   5.560 -0.3914 -0.0968  0.9112
   20MOL   C329 7207   3.167   0.715   5.451 -0.0577  0.1130  0.2309
   20MOL   C330 7208   3.088   0.783   5.334  0.3781  0.6554 -0.8335
   20MOL   C331 7209   3.051   0.678   5.224 -0.1223 -0.6282 -0.5832
   20MOL   H332 7210   3.360   0.939   5.809 -0.1680 -0.2355 -1.9389
   20MOL   H333 7211   3.189   0.974   5.759 -0.3060 -1.3055 -1.3269
   20MOL   H334 7212   3.216   0.698   5.746 -0.3470 -0.6720 -1.0662
   20MOL   H335 7213   3.109   0.873   5.589  0.1601  0.1457  2.3424
   20MOL   H336 7214   3.260   0.905   5.516  0.5851 -0.5919  1.2772
   20MOL   H337 7215   3.097   0.644   5.495 -0.9228  0.2908 -0.8198
   20MOL   H338 7216   3.264   0.678   5.419 -1.4599 -1.9924 -1.7066
   20MOL   H339 7217   3.001   0.838   5.369 -0.0461 -1.1149  0.9576
   20MOL   H340 7218   3.149   0.862   5.290 -0.5599  0.5121 -2.4437
   20MOL   H341 7219   3.022   0.717   5.126 -3.2842  0.6223  0.7965
   20MOL   H342 7220   2.969   0.613   5.256  0.5383 -0.7570  0.8863
   20MOL   H343 7221   3.133   0.606   5.216 -1.3131 -1.9519 -1.2587
   20MOL   C344 7222   3.408   0.722   5.667 -0.0358  0.3383 -0.8975
   20MOL   C345 7223   3.494   0.678   5.792 -0.0654  0.3664  0.2141
   20MOL   C346 7224   3.451   0.550   5.859  0.3647  0.0286 -0.0989
   20MOL   C347 7225   3.568   0.506   5.955 -0.4918  0.6552  0.3935
   20MOL   C348 7226   3.531   0.393   6.053 -0.1929  0.5492 -0.4285
   20MOL   C349 7227   3.640   0.366   6.158 -1.1114 -0.3111 -0.0160
   20MOL   H350 7228   3.398   0.620   5.630 -3.8449  0.0014  0.7798
   20MOL   H351 7229   3.459   0.776   5.588  1.3252  1.4784  0.7354
   20MOL   H352 7230   3.494   0.754   5.871 -1.5916 -1.0256  1.5829
   20MOL   H353 7231   3.354   0.564   5.907 -1.5741  0.0174 -3.7998
   20MOL   H354 7232   3.430   0.475   5.783  0.7409  0.0284 -0.2047
   20MOL   H355 7233   3.645   0.469   5.887 -0.6806 -1.4961  1.2823
   20MOL   H356 7234   3.619   0.591   6.000  0.2072 -0.0183  0.9094
   20MOL   H357 7235   3.437   0.414   6.104 -1.0280 -2.7063 -0.4913
   20MOL   H358 7236   3.517   0.296   6.005 -0.7002  0.9072 -1.0129
   20MOL   H359 7237   3.680   0.463   6.188  0.3691 -1.0082  0.3141
   20MOL   H360 7238   3.607   0.299   6.237 -0.5636 -1.5825 -0.8532
   20MOL   H361 7239   3.725   0.339   6.096  0.2010  0.8298  1.2407
   20MOL   H362 7240   3.596   0.662   5.756  0.0631  0.8317  0.3622
   21MOL     C1 7241   2.505   5.354   5.355  0.0307  0.1291  0.1306
   21MOL     C2 7242   2.445   5.495   5.384  0.1173  0.6098  0.2728
   21MOL     C3 7243   2.547   5.602   5.443 -0.2336 -0.7700 -0.5068
   21MOL     C4 7244   2.684   5.610   5.362  0.5987  0.1099 -0.1089
   21MOL     C5 7245   2.765   5.746   5.397  0.2283  0.5479 -0.1768
   21MOL     C6 7246   2.886   5.750   5.311  0.1132 -0.0162 -0.4493
   21MOL     H7 7247   2.597   5.355   5.298 -0.9582  1.2650 -1.5027
   21MOL     H8 7248   2.533   5.310   5.451 -2.0111  0.4175  0.8921
   21MOL     H9 7249   2.411   5.539   5.290 -0.8727 -1.6293 -0.4420
   21MOL    H10 7250   2.570   5.570   5.545 -0.4720 -0.1490 -0.2534
   21MOL    H11 7251   2.511   5.705   5.451  0.3391 -0.4840 -1.5754
   21MOL    H12 7252   2.663   5.616   5.255  1.3376 -0.8234 -0.3219
   21MOL    H13 7253   2.744   5.520   5.378 -1.3678 -1.3716 -0.9124
   21MOL    H14 7254   2.702   5.834   5.391 -0.0154  0.3533 -0.5020
   21MOL    H15 7255   2.801   5.750   5.500 -0.8224  0.3890  0.1986
   21MOL    H16 7256   2.859   5.724   5.208  1.9074  0.8109 -1.1604
   21MOL    H17 7257   2.959   5.676   5.342  0.0271 -0.9560 -2.4204
   21MOL    H18 7258   2.953   5.836   5.308  0.4795 -0.3189 -1.4340
   21MOL    H19 7259   2.438   5.280   5.310 -0.6415 -0.0979  1.4561
   21MOL    C20 7260   2.317   5.488   5.473  0.3262 -0.1804 -0.2176
   21MOL    C21 7261   2.239   5.623   5.474 -0.5709  0.4730 -0.0921
   21MOL    C22 7262   2.112   5.606   5.388 -0.2529  0.1217  0.2750
   21MOL    C23 7263   2.135   5.577   5.238 -0.3513 -0.1102  0.3936
   21MOL    C24 7264   2.002   5.546   5.161  0.3890 -0.0255  0.1715
   21MOL    C25 7265   1.974   5.638   5.047  0.3562 -0.4548  0.3068
   21MOL    H26 7266   2.336   5.457   5.576 -0.5218  2.8677  0.9290
   21MOL    H27 7267   2.257   5.408   5.430  0.5587 -0.2321 -0.4465
   21MOL    H28 7268   2.303   5.703   5.436 -2.6365  1.4410 -1.6389
   21MOL    H29 7269   2.062   5.703   5.399 -0.1728  0.0653  1.1983
   21MOL    H30 7270   2.061   5.531   5.448  1.1430 -0.7153  0.4403
   21MOL    H31 7271   2.203   5.493   5.227  0.8200  0.9487 -0.7517
   21MOL    H32 7272   2.183   5.660   5.186  0.0787 -1.9417 -2.2499
   21MOL    H33 7273   2.008   5.442   5.129  2.6394  0.2683 -0.4026
   21MOL    H34 7274   1.923   5.571   5.232  0.1906  0.8737 -0.3598
   21MOL    H35 7275   1.950   5.735   5.091 -0.9747 -1.8027  2.6336
   21MOL    H36 7276   2.060   5.657   4.983 -0.8899  0.3484 -1.1782
   21MOL    H37 7277   1.888   5.604   4.990  1.0713 -1.0696 -0.4182
   21MOL    C38 7278   2.202   5.671   5.620  0.1925  0.2976 -0.0283
   21MOL    C39 7279   2.324   5.716   5.712 -0.1841 -0.2961 -0.0290
   21MOL    C40 7280   2.367   5.861   5.667 -0.1149  0.4788  0.1896
   21MOL    C41 7281   2.500   5.904   5.731 -0.3936 -0.3450 -0.6272
   21MOL    C42 7282   2.536   6.054   5.724  0.0491  0.4618 -0.1515
   21MOL    C43 7283   2.539   6.109   5.576 -0.3314 -0.5877 -0.4305
   21MOL    H44 7284   2.144   5.596   5.675  0.3289  0.9848  1.0550
   21MOL    H45 7285   2.130   5.751   5.608  0.6921  0.9613  1.3506
   21MOL    H46 7286   2.412   5.652   5.720 -0.3963 -0.4838  0.8553
   21MOL    H47 7287   2.382   5.874   5.560 -0.9031  0.2490  0.0435
   21MOL    H48 7288   2.288   5.934   5.683  0.0455  0.8396 -0.6670
   21MOL    H49 7289   2.508   5.873   5.835 -2.0039  3.0085  0.5937
   21MOL    H50 7290   2.577   5.844   5.684 -0.7746 -0.8805 -0.5703
   21MOL    H51 7291   2.459   6.102   5.785  1.2839  1.3248  0.7366
   21MOL    H52 7292   2.630   6.081   5.772 -0.0535  2.3250 -0.9525
   21MOL    H53 7293   2.442   6.131   5.532 -1.0931 -2.2467  0.3833
   21MOL    H54 7294   2.590   6.033   5.517  2.5464  0.9132  0.0214
   21MOL    H55 7295   2.605   6.196   5.581 -1.0165 -0.0034 -1.5155
   21MOL    C56 7296   2.268   5.718   5.856 -0.0258  0.5467  0.2490
   21MOL    C57 7297   2.352   5.636   5.956 -0.2896  0.0920 -0.2327
   21MOL    C58 7298   2.337   5.487   5.929  0.0615 -0.1664 -0.4083
   21MOL    C59 7299   2.435   5.404   6.004  0.4634 -0.3317 -0.4745
   21MOL    C60 7300   2.464   5.261   5.952 -0.1825 -0.1622 -0.6194
   21MOL    C61 7301   2.548   5.262   5.822 -0.8059  0.6659  0.0473
   21MOL    H62 7302   2.261   5.823   5.883  0.7278  1.0064 -1.2768
   21MOL    H63 7303   2.166   5.681   5.863  0.5985 -1.3874 -0.3391
   21MOL    H64 7304   2.452   5.678   5.945 -0.5883  0.7222 -0.5869
   21MOL    H65 7305   2.241   5.453   5.968  0.7962 -0.7290  0.9662
   21MOL    H66 7306   2.349   5.467   5.823  0.2129 -0.3735 -0.3550
   21MOL    H67 7307   2.402   5.405   6.108  0.6626  1.4608 -0.4088
   21MOL    H68 7308   2.534   5.449   6.005  0.6499 -0.7413 -0.3287
   21MOL    H69 7309   2.520   5.213   6.032  0.1939  0.7893 -0.3059
   21MOL    H70 7310   2.371   5.204   5.943 -0.5246  0.2245  0.3791
   21MOL    H71 7311   2.575   5.164   5.784  4.0486  2.1593 -0.6496
   21MOL    H72 7312   2.484   5.298   5.741  0.1412  0.4796 -0.7980
   21MOL    H73 7313   2.641   5.319   5.823  0.1111 -0.7359 -2.2332
   21MOL    C74 7314   2.317   5.680   6.102  0.8122 -0.5670 -0.1850
   21MOL    C75 7315   2.417   5.793   6.152  0.0107  0.3400  0.8380
   21MOL    C76 7316   2.352   5.884   6.258 -0.6099  0.0894 -0.5417
   21MOL    C77 7317   2.238   5.980   6.212  0.0045 -0.4443 -1.0119
   21MOL    C78 7318   2.289   6.103   6.130  0.0419 -0.1615  0.5246
   21MOL    C79 7319   2.164   6.197   6.088  0.8905 -0.3484  0.0627
   21MOL    H80 7320   2.212   5.710   6.103  0.9262 -0.1533  1.9922
   21MOL    H81 7321   2.331   5.600   6.175  1.0378 -1.4553 -1.1939
   21MOL    H82 7322   2.439   5.858   6.067 -1.4135  2.0285  1.7096
   21MOL    H83 7323   2.322   5.818   6.340  1.5663 -0.8199 -0.4530
   21MOL    H84 7324   2.430   5.947   6.300  0.5518 -2.1847  0.7753
   21MOL    H85 7325   2.161   5.920   6.164  0.4283 -0.1735 -2.0313
   21MOL    H86 7326   2.196   6.022   6.304 -1.9178 -2.0660 -1.1163
   21MOL    H87 7327   2.350   6.077   6.043 -1.9776 -1.2974 -0.5963
   21MOL    H88 7328   2.357   6.160   6.194  1.6107 -0.4738 -0.8311
   21MOL    H89 7329   2.107   6.155   6.004  0.4911  1.5209 -0.6311
   21MOL    H90 7330   2.097   6.189   6.173 -1.7668 -0.7033 -1.9657
   21MOL    H91 7331   2.210   6.292   6.062 -0.1219 -0.2506 -1.5079
   21MOL    C92 7332   2.557   5.740   6.197  0.4983  0.0899 -0.5947
   21MOL    C93 7333   2.671   5.842   6.225 -0.1860  0.0438  0.9183
   21MOL    C94 7334   2.772   5.791   6.331  0.0718  0.3868 -0.1505
   21MOL    C95 7335   2.869   5.674   6.301 -0.1914  0.1288 -0.2191
   21MOL    C96 7336   2.949   5.630   6.425 -0.2429  0.1101  0.2979
   21MOL    C97 7337   3.061   5.729   6.456  0.1001  0.9118 -0.5970
   21MOL    H98 7338   2.556   5.695   6.296 -1.9503 -0.9693 -1.0680
   21MOL    H99 7339   2.587   5.655   6.137 -2.7854 -3.0476  1.9775
   21MOL   H100 7340   2.636   5.933   6.274 -0.7837  0.3903 -0.1603
   21MOL   H101 7341   2.715   5.761   6.419  1.9219  0.4372  1.0932
   21MOL   H102 7342   2.840   5.869   6.367  1.1479 -0.7160  0.2479
   21MOL   H103 7343   2.818   5.584   6.265 -0.1419 -0.5932  1.4465
   21MOL   H104 7344   2.939   5.702   6.223  0.3748 -0.9399 -0.1030
   21MOL   H105 7345   2.887   5.611   6.512 -2.7158 -0.2170 -1.4812
   21MOL   H106 7346   3.005   5.536   6.420  0.6267  0.5162  2.0337
   21MOL   H107 7347   3.115   5.706   6.548  0.2420  1.2320 -0.5988
   21MOL   H108 7348   3.134   5.749   6.377 -0.9182  1.0915 -1.5098
   21MOL   H109 7349   3.027   5.830   6.479 -0.5708  0.7326 -0.8167
   21MOL   C110 7350   2.732   5.886   6.098  0.6335 -0.8315  0.4383
   21MOL   C111 7351   2.839   5.995   6.094 -0.2634 -0.3187  0.6718
   21MOL   C112 7352   2.797   6.120   6.174  0.0575 -0.4112 -0.3589
   21MOL   C113 7353   2.674   6.204   6.139 -0.3056 -0.0875 -0.0903
   21MOL   C114 7354   2.632   6.307   6.241  0.1263  0.4616  0.4099
   21MOL   C115 7355   2.548   6.418   6.172 -0.2352  0.6210 -0.4939
   21MOL   H116 7356   2.755   5.795   6.041 -1.0638 -1.3939  0.6188
   21MOL   H117 7357   2.656   5.925   6.031  2.0775  1.0072 -0.1592
   21MOL   H118 7358   2.928   5.951   6.140 -0.0993 -2.6232 -1.6994
   21MOL   H119 7359   2.887   6.181   6.176 -0.3121  0.1277 -0.0065
   21MOL   H120 7360   2.793   6.096   6.280  0.7404  0.0965 -0.2131
   21MOL   H121 7361   2.601   6.126   6.118 -0.9909  0.4367  0.3340
   21MOL   H122 7362   2.691   6.258   6.046  0.4194  1.4434  0.9108
   21MOL   H123 7363   2.716   6.359   6.286 -0.3395 -1.1151  3.2519
   21MOL   H124 7364   2.579   6.265   6.327 -2.6386  0.0491 -1.4096
   21MOL   H125 7365   2.521   6.491   6.248  0.7367  2.2474 -1.6815
   21MOL   H126 7366   2.597   6.469   6.090 -0.9290  2.5730  0.2904
   21MOL   H127 7367   2.456   6.375   6.135  0.2183  1.9384 -3.2750
   21MOL   C128 7368   2.862   6.026   5.942 -0.2976 -0.1988 -0.3607
   21MOL   C129 7369   3.011   6.058   5.904 -0.8178  0.4008  0.2820
   21MOL   C130 7370   3.044   6.120   5.766 -0.1612  0.5116  1.0490
   21MOL   C131 7371   2.961   6.061   5.653  0.1421  0.1040 -0.2711
   21MOL   C132 7372   3.034   6.066   5.516 -0.9457 -0.7376  0.1970
   21MOL   C133 7373   3.075   6.205   5.475  0.1959  0.0121 -0.0265
   21MOL   H134 7374   2.810   6.121   5.926 -1.3512 -1.0721 -2.3607
   21MOL   H135 7375   2.809   5.966   5.868  0.6455 -0.6029 -0.7112
   21MOL   H136 7376   3.050   6.139   5.965  3.0207  0.5345 -2.1930
   21MOL   H137 7377   3.031   6.228   5.770  1.2620  0.7980 -1.2626
   21MOL   H138 7378   3.149   6.111   5.738 -0.3537  1.7967 -0.1595
   21MOL   H139 7379   2.876   6.130   5.649 -0.3896 -0.4173  1.5946
   21MOL   H140 7380   2.929   5.958   5.662  2.6079 -0.6711 -0.1667
   21MOL   H141 7381   3.124   6.004   5.515 -0.9365 -0.7232 -1.6063
   21MOL   H142 7382   2.989   6.021   5.427 -1.8580  2.5679 -1.0954
   21MOL   H143 7383   2.984   6.265   5.484 -0.9948 -1.7534  0.0134
   21MOL   H144 7384   3.101   6.209   5.369 -1.0483  1.0526 -0.3154
   21MOL   H145 7385   3.155   6.249   5.535 -0.0097 -2.0725  1.8293
   21MOL   C146 7386   3.114   5.942   5.936 -0.2087 -0.1193 -1.1487
   21MOL   C147 7387   3.256   5.980   5.997  0.4503  0.9654  0.0648
   21MOL   C148 7388   3.371   5.897   5.939  0.0681 -0.5115 -0.5774
   21MOL   C149 7389   3.507   5.974   5.931  0.4218  0.4968  0.3660
   21MOL   C150 7390   3.609   5.876   5.862  0.4162  0.3402 -0.3147
   21MOL   C151 7391   3.753   5.927   5.841  0.5465  0.2767  0.1144
   21MOL   H152 7392   3.059   5.869   5.997 -1.0484  0.5098 -1.1404
   21MOL   H153 7393   3.125   5.886   5.844  0.6983 -1.2932 -0.3425
   21MOL   H154 7394   3.278   6.079   5.958  0.3127  0.5733 -1.0259
   21MOL   H155 7395   3.335   5.871   5.840 -2.2099  1.1482 -0.2156
   21MOL   H156 7396   3.376   5.812   6.008 -0.7291 -0.6576 -0.6983
   21MOL   H157 7397   3.504   6.072   5.883 -2.5399  0.4099  0.3100
   21MOL   H158 7398   3.541   5.976   6.034  1.6295 -2.1245  0.0665
   21MOL   H159 7399   3.560   5.838   5.772 -2.0162 -2.1107  1.9713
   21MOL   H160 7400   3.617   5.788   5.926  3.1306  0.6157 -0.1861
   21MOL   H161 7401   3.786   5.964   5.939  2.4567  0.4007 -0.5567
   21MOL   H162 7402   3.817   5.843   5.813  1.6622  1.0580  0.2707
   21MOL   H163 7403   3.760   5.997   5.758  0.6636 -0.5019 -0.5423
   21MOL   C164 7404   3.262   5.974   6.156 -0.5290 -0.2582  0.9269
   21MOL   C165 7405   3.249   6.111   6.236  0.5688 -0.0511 -0.5219
   21MOL   C166 7406   3.212   6.095   6.381  0.0205  0.1452  0.0106
   21MOL   C167 7407   3.301   6.007   6.470  0.0256 -0.0396 -0.1366
   21MOL   C168 7408   3.262   5.993   6.612  0.2759  0.1059  0.0542
   21MOL   C169 7409   3.362   5.910   6.690 -0.1784 -0.4399  0.4628
   21MOL   H170 7410   3.180   5.910   6.187 -1.7801  0.8973  0.0682
   21MOL   H171 7411   3.353   5.929   6.195  1.0279  2.0949  0.1210
   21MOL   H172 7412   3.173   6.166   6.181  1.6081  0.7605 -1.1559
   21MOL   H173 7413   3.111   6.057   6.388  0.5709 -1.4003 -0.2760
   21MOL   H174 7414   3.212   6.192   6.431  3.7321  0.8395 -1.1932
   21MOL   H175 7415   3.408   6.026   6.460  0.2849 -1.6650 -0.6050
   21MOL   H176 7416   3.300   5.909   6.422 -2.0400 -0.4407  0.7163
   21MOL   H177 7417   3.160   5.954   6.604  0.5003 -0.8348  1.5942
   21MOL   H178 7418   3.258   6.087   6.667  0.1852 -0.1543  0.4944
   21MOL   H179 7419   3.343   5.932   6.795 -1.2410  1.7700 -0.1695
   21MOL   H180 7420   3.468   5.930   6.672 -0.6084  0.9863 -0.5530
   21MOL   H181 7421   3.342   5.806   6.664  1.9154 -1.0216  1.0639
   21MOL   C182 7422   3.374   6.203   6.215 -0.3519 -0.3963  0.0432
   21MOL   C183 7423   3.372   6.350   6.275 -0.4966  0.1554  0.4365
   21MOL   C184 7424   3.245   6.428   6.235  0.3339  0.4120 -0.2746
   21MOL   C185 7425   3.235   6.464   6.086 -0.1266  0.9721 -0.2110
   21MOL   C186 7426   3.105   6.546   6.054  0.6012  0.4302  0.1492
   21MOL   C187 7427   2.986   6.454   6.026  0.3753  0.2168 -0.0552
   21MOL   H188 7428   3.456   6.143   6.254 -0.1252 -0.7389 -0.9492
   21MOL   H189 7429   3.398   6.219   6.109 -0.3846 -1.5322 -0.1347
   21MOL   H190 7430   3.362   6.334   6.382  1.9298  1.1438  0.8408
   21MOL   H191 7431   3.158   6.370   6.265  1.6655 -1.2422  0.4585
   21MOL   H192 7432   3.246   6.521   6.292 -3.3444 -0.8467  2.0390
   21MOL   H193 7433   3.245   6.382   6.016  0.4440 -0.1534  1.1653
   21MOL   H194 7434   3.317   6.535   6.074  1.5624 -1.6017 -5.1317
   21MOL   H195 7435   3.120   6.610   5.966  0.8049 -2.5337 -2.0357
   21MOL   H196 7436   3.077   6.599   6.145  3.1494  0.9743  0.6645
   21MOL   H197 7437   3.002   6.390   5.939  1.3034 -1.1879  1.1192
   21MOL   H198 7438   2.896   6.515   6.023 -0.0392 -0.3622  0.3180
   21MOL   H199 7439   2.968   6.386   6.110  0.9014  2.3163  1.8229
   21MOL   C200 7440   3.501   6.433   6.242 -0.3400  0.0928 -0.2740
   21MOL   C201 7441   3.630   6.376   6.306 -0.0101  0.2116 -0.1279
   21MOL   C202 7442   3.754   6.419   6.227  0.0725 -0.3253 -0.7769
   21MOL   C203 7443   3.761   6.365   6.088  0.3064  0.0594  0.0840
   21MOL   C204 7444   3.886   6.388   6.007  0.0519  0.0453 -0.0505
   21MOL   C205 7445   3.878   6.320   5.872  0.0312  0.6442  0.0683
   21MOL   H206 7446   3.489   6.538   6.264 -1.7472 -0.0210 -0.4488
   21MOL   H207 7447   3.509   6.421   6.134  0.2130 -0.3234 -0.1940
   21MOL   H208 7448   3.634   6.268   6.287  1.3094  0.5452 -1.8149
   21MOL   H209 7449   3.844   6.387   6.280  0.3530  0.1914 -0.9354
   21MOL   H210 7450   3.748   6.528   6.226 -0.4495 -0.3432 -0.1656
   21MOL   H211 7451   3.675   6.395   6.027 -0.7206 -0.6067  1.1732
   21MOL   H212 7452   3.749   6.257   6.101  2.0666  0.0745  2.0177
   21MOL   H213 7453   3.967   6.353   6.070 -0.3362  0.5555  0.7353
   21MOL   H214 7454   3.895   6.495   5.990 -0.8179  0.2683  0.8689
   21MOL   H215 7455   3.979   6.305   5.833 -0.2883 -3.1796  0.4521
   21MOL   H216 7456   3.857   6.214   5.886  2.7808  0.1192  0.6493
   21MOL   H217 7457   3.812   6.355   5.793  0.2110 -0.1818 -0.4585
   21MOL   C218 7458   3.643   6.401   6.458  0.1157 -0.8291  0.6202
   21MOL   C219 7459   3.585   6.297   6.553  0.6190  0.7664 -0.5920
   21MOL   C220 7460   3.489   6.369   6.646 -0.2726  0.4877  0.3391
   21MOL   C221 7461   3.552   6.469   6.743 -0.3591 -0.5555  0.4670
   21MOL   C222 7462   3.444   6.532   6.833 -0.1953 -0.3111 -0.6060
   21MOL   C223 7463   3.497   6.651   6.912 -0.3017  0.2569  0.6813
   21MOL   H224 7464   3.747   6.429   6.478 -0.1824  1.0497 -0.3323
   21MOL   H225 7465   3.596   6.499   6.473  1.3171 -0.0847 -0.4259
   21MOL   H226 7466   3.519   6.234   6.493  2.7579 -1.4482 -0.7120
   21MOL   H227 7467   3.426   6.302   6.706  0.9061 -1.3089 -0.3839
   21MOL   H228 7468   3.408   6.417   6.592 -1.3983 -0.3229  1.2774
   21MOL   H229 7469   3.614   6.549   6.701 -2.1787  0.6111 -0.0565
   21MOL   H230 7470   3.619   6.406   6.801 -0.8832 -0.4129  1.2352
   21MOL   H231 7471   3.354   6.572   6.787 -1.3016 -1.7842  0.1976
   21MOL   H232 7472   3.416   6.453   6.903 -2.4108  0.7905 -0.2108
   21MOL   H233 7473   3.578   6.615   6.975  0.2280 -0.0282 -0.1553
   21MOL   H234 7474   3.416   6.692   6.972 -0.5224  2.9194 -1.3608
   21MOL   H235 7475   3.540   6.724   6.845  2.0833  0.0027  1.8685
   21MOL   C236 7476   3.693   6.210   6.628  1.0240 -0.5595  0.5686
   21MOL   C237 7477   3.792   6.124   6.551 -0.6840 -0.3018 -0.3447
   21MOL   C238 7478   3.723   6.012   6.462 -0.4114 -0.6560  0.0234
   21MOL   C239 7479   3.816   5.953   6.357 -0.2856  0.1717 -0.4097
   21MOL   C240 7480   3.741   5.837   6.289  0.1421  0.3338  0.3548
   21MOL   C241 7481   3.824   5.778   6.177 -0.2151  0.7691 -0.4443
   21MOL   H242 7482   3.750   6.281   6.688 -0.9521  0.8440  0.8236
   21MOL   H243 7483   3.638   6.146   6.697 -2.1930  1.2367 -0.2798
   21MOL   H244 7484   3.835   6.189   6.475 -0.7012  0.3484  0.2013
   21MOL   H245 7485   3.682   5.932   6.523  0.7700 -1.4107 -0.1517
   21MOL   H246 7486   3.633   6.055   6.418  0.2651  2.3077  1.3823
   21MOL   H247 7487   3.901   5.912   6.411 -0.8936 -1.8084 -0.9158
   21MOL   H248 7488   3.853   6.020   6.279  1.3788  0.7728  0.8713
   21MOL   H249 7489   3.713   5.757   6.357 -2.1942  0.9602  0.1662
   21MOL   H250 7490   3.653   5.878   6.239  1.1980  0.8166 -1.1393
   21MOL   H251 7491   3.858   5.857   6.111  0.5136  0.7204 -0.1303
   21MOL   H252 7492   3.915   5.731   6.215  0.8803  3.0769 -0.1270
   21MOL   H253 7493   3.773   5.697   6.124 -0.6415  1.1676 -0.6437
   21MOL   C254 7494   3.912   6.071   6.638 -0.0528 -0.2181 -0.2600
   21MOL   C255 7495   3.889   5.969   6.751 -0.2221  0.1393  1.0344
   21MOL   C256 7496   3.956   6.017   6.887 -0.9590  0.3595 -0.0088
   21MOL   C257 7497   4.110   6.013   6.886 -0.4983 -0.7211 -0.7198
   21MOL   C258 7498   4.172   6.100   6.996  0.5675  0.0982 -0.1442
   21MOL   C259 7499   4.323   6.096   7.008  0.0979 -0.5321 -0.1283
   21MOL   H260 7500   3.946   6.164   6.684 -0.6416  0.2802 -0.8263
   21MOL   H261 7501   3.990   6.032   6.572  0.6725  0.3776  0.2349
   21MOL   H262 7502   3.783   5.993   6.763 -0.5014 -0.5102 -0.0477
   21MOL   H263 7503   3.926   6.121   6.900 -0.8514  0.3484  0.3510
   21MOL   H264 7504   3.924   5.966   6.978 -0.1757 -0.8362 -0.3899
   21MOL   H265 7505   4.152   5.913   6.889  1.0158 -0.0633  2.0389
   21MOL   H266 7506   4.142   6.057   6.791 -0.7982  0.1779 -0.4069
   21MOL   H267 7507   4.126   6.084   7.093  0.4464 -1.7137 -0.4796
   21MOL   H268 7508   4.155   6.207   6.982  1.1107  0.1376 -0.5492
   21MOL   H269 7509   4.376   6.093   6.913  0.3391  3.0754 -0.1698
   21MOL   H270 7510   4.346   6.013   7.075  1.8575 -0.1140 -0.1799
   21MOL   H271 7511   4.355   6.191   7.051  0.7063 -1.0770  0.6287
   21MOL   C272 7512   3.902   5.817   6.722  0.0081  0.2565  0.0608
   21MOL   C273 7513   3.840   5.731   6.832 -0.5830  0.4697  0.6269
   21MOL   C274 7514   3.883   5.583   6.810  0.5722  0.4937  0.2020
   21MOL   C275 7515   3.805   5.518   6.699  0.5987  0.4609  0.2248
   21MOL   C276 7516   3.840   5.367   6.694  0.3745  0.2632 -0.7446
   21MOL   C277 7517   3.773   5.292   6.574  0.1911 -0.4888  0.0666
   21MOL   H278 7518   3.865   5.795   6.621  2.3328 -0.1021 -0.7565
   21MOL   H279 7519   4.008   5.800   6.703 -0.1745 -0.7766 -0.0928
   21MOL   H280 7520   3.882   5.759   6.929  1.8151 -1.5068  0.2006
   21MOL   H281 7521   3.864   5.522   6.898  3.4707  0.4675  0.8467
   21MOL   H282 7522   3.988   5.556   6.796  0.7564  0.3668  1.7616
   21MOL   H283 7523   3.830   5.561   6.602 -1.3573  0.3730 -0.3424
   21MOL   H284 7524   3.699   5.521   6.725  0.4498 -0.0527 -0.3181
   21MOL   H285 7525   3.948   5.370   6.683  0.6021  0.7736  1.4602
   21MOL   H286 7526   3.838   5.334   6.797  4.5485 -1.1180 -1.0346
   21MOL   H287 7527   3.813   5.192   6.559  1.5993  0.0276  0.3905
   21MOL   H288 7528   3.664   5.286   6.574  0.1433 -0.0924 -1.7570
   21MOL   H289 7529   3.805   5.352   6.488 -2.5465 -0.3731 -0.9397
   21MOL   C290 7530   3.687   5.749   6.850 -0.5109 -0.0746 -0.7217
   21MOL   C291 7531   3.623   5.675   6.976  0.2194 -0.4637  0.4751
   21MOL   C292 7532   3.673   5.725   7.110  0.5063  0.2052  0.0229
   21MOL   C293 7533   3.621   5.865   7.152  0.0232 -0.4364 -0.7722
   21MOL   C294 7534   3.592   5.866   7.308  0.4137 -0.3046  0.2031
   21MOL   C295 7535   3.722   5.836   7.385 -0.3324 -0.1879 -0.0850
   21MOL   H296 7536   3.631   5.717   6.762 -1.9696 -2.4165  0.9794
   21MOL   H297 7537   3.673   5.854   6.875  0.3259 -0.9529  3.8543
   21MOL   H298 7538   3.656   5.572   6.959 -1.9405 -1.2213  0.6971
   21MOL   H299 7539   3.781   5.720   7.119  0.8535  3.9968 -1.1379
   21MOL   H300 7540   3.648   5.648   7.183 -1.2655 -0.9483 -1.7422
   21MOL   H301 7541   3.685   5.950   7.127 -0.4456  0.5302  1.1908
   21MOL   H302 7542   3.523   5.884   7.108 -1.2565 -1.5720  1.4994
   21MOL   H303 7543   3.505   5.809   7.342 -0.2253  1.0983  0.9856
   21MOL   H304 7544   3.562   5.970   7.325 -0.9626 -0.7913  0.8199
   21MOL   H305 7545   3.766   5.736   7.376  1.4634  0.4560  1.1915
   21MOL   H306 7546   3.691   5.843   7.489 -0.4563  2.2009 -0.2752
   21MOL   H307 7547   3.802   5.907   7.365 -0.3673 -0.8324 -2.7530
   21MOL   C308 7548   3.474   5.653   6.968 -0.0878  0.0879 -0.2419
   21MOL   C309 7549   3.414   5.587   7.089 -0.5015 -0.0353 -0.0199
   21MOL   C310 7550   3.468   5.440   7.114  0.1019  0.2585 -0.0631
   21MOL   C311 7551   3.442   5.335   7.013  0.0248 -0.1097  0.3528
   21MOL   C312 7552   3.555   5.226   7.016  0.8899 -0.4238  0.8358
   21MOL   C313 7553   3.546   5.134   6.894  0.2282  0.2796 -0.0220
   21MOL   H314 7554   3.420   5.747   6.958  0.6429  0.3012 -2.4552
   21MOL   H315 7555   3.456   5.596   6.876 -0.4173 -0.0747 -0.0766
   21MOL   H316 7556   3.432   5.645   7.179 -0.0987 -0.2871  0.0637
   21MOL   H317 7557   3.423   5.412   7.210 -0.5061 -1.5660 -0.8600
   21MOL   H318 7558   3.573   5.445   7.140 -0.2517  0.8289  1.3755
   21MOL   H319 7559   3.455   5.381   6.915  0.1836 -2.4284 -0.7502
   21MOL   H320 7560   3.341   5.296   7.023  0.0231  0.1588  1.3725
   21MOL   H321 7561   3.656   5.266   7.030 -0.2984  1.8682  3.3438
   21MOL   H322 7562   3.529   5.181   7.111  0.7714  0.6233  1.3026
   21MOL   H323 7563   3.542   5.193   6.803 -0.0980 -2.2969 -1.7115
   21MOL   H324 7564   3.453   5.076   6.898 -0.2866  1.1848  2.5471
   21MOL   H325 7565   3.635   5.072   6.884 -0.9100 -1.4837  0.5838
   21MOL   C326 7566   3.258   5.577   7.070 -0.4403 -0.0974  0.1472
   21MOL   C327 7567   3.177   5.545   7.198 -0.5607  0.5488 -0.1983
   21MOL   C328 7568   3.185   5.638   7.324 -0.8422  0.9367 -0.5180
   21MOL   C329 7569   3.159   5.788   7.308 -0.1143  0.1848  0.4826
   21MOL   C330 7570   3.176   5.870   7.442  0.6827  0.2366  1.0803
   21MOL   C331 7571   3.246   6.008   7.417 -0.0585 -0.4026  0.0155
   21MOL   H332 7572   3.233   5.516   6.983 -0.5157  0.4724 -0.2312
   21MOL   H333 7573   3.230   5.677   7.038  1.0990 -0.0132 -1.0234
   21MOL   H334 7574   3.217   5.452   7.238 -0.8717  0.2509 -0.5654
   21MOL   H335 7575   3.137   5.609   7.417 -0.1816 -0.4210 -0.5877
   21MOL   H336 7576   3.290   5.633   7.352 -1.4939 -0.0603  1.9064
   21MOL   H337 7577   3.056   5.806   7.275  0.2590  2.0422  0.2788
   21MOL   H338 7578   3.215   5.831   7.224 -1.1052  0.3113 -0.1248
   21MOL   H339 7579   3.083   5.877   7.498  0.1243  1.5496 -0.0032
   21MOL   H340 7580   3.246   5.805   7.495  1.2087  0.5355  0.7483
   21MOL   H341 7581   3.339   5.991   7.363 -0.3365 -1.8415 -0.0353
   21MOL   H342 7582   3.276   6.052   7.512  0.9133  1.7341 -1.2531
   21MOL   H343 7583   3.183   6.076   7.359  1.1191 -0.4971 -1.3877
   21MOL   C344 7584   3.029   5.514   7.163  0.1247 -0.3909  0.5478
   21MOL   C345 7585   2.948   5.454   7.280  0.1606  0.0496  0.4693
   21MOL   C346 7586   2.806   5.395   7.225 -0.1478 -0.4348 -0.8365
   21MOL   C347 7587   2.700   5.354   7.333 -0.4299  0.5951  0.1738
   21MOL   C348 7588   2.572   5.304   7.257  0.4520 -0.0779  0.1323
   21MOL   C349 7589   2.473   5.418   7.235 -0.5086 -0.3592  0.2977
   21MOL   H350 7590   2.990   5.597   7.104 -0.1500 -1.0005 -0.1472
   21MOL   H351 7591   3.029   5.443   7.080 -0.0383  0.4528 -0.1881
   21MOL   H352 7592   2.920   5.528   7.355 -1.1286 -1.3690  1.4177
   21MOL   H353 7593   2.768   5.474   7.161  0.0638 -0.3899 -0.9071
   21MOL   H354 7594   2.826   5.312   7.157  1.5927  0.2968 -1.2323
   21MOL   H355 7595   2.741   5.279   7.401  0.1420 -0.2635 -1.0895
   21MOL   H356 7596   2.677   5.426   7.411 -0.3696  1.4112 -0.5565
   21MOL   H357 7597   2.592   5.252   7.164  0.9859  1.2787 -0.5192
   21MOL   H358 7598   2.511   5.233   7.314  2.0772  0.0914  2.1532
   21MOL   H359 7599   2.395   5.384   7.167 -0.3515 -0.2440  0.0617
   21MOL   H360 7600   2.429   5.459   7.326 -1.9027 -3.3691  1.0592
   21MOL   H361 7601   2.521   5.498   7.180 -0.7388  0.1252  0.7964
   21MOL   H362 7602   3.005   5.378   7.332  0.3006 -1.2371 -1.5190
   22MOL     C1 7603   2.804   2.928   6.902 -0.4600  0.2085 -0.1011
   22MOL     C2 7604   2.936   2.926   6.824 -0.2153  0.0069  0.1959
   22MOL     C3 7605   2.915   2.920   6.671  0.0987 -0.3470  0.3298
   22MOL     C4 7606   2.806   3.013   6.618  0.2877 -0.1811  0.1488
   22MOL     C5 7607   2.798   3.031   6.468  0.3084 -0.0989  0.2984
   22MOL     C6 7608   2.797   2.898   6.397  0.1658 -0.2654  0.0390
   22MOL     H7 7609   2.740   2.844   6.876 -0.3482 -0.0277  0.3815
   22MOL     H8 7610   2.814   2.934   7.010 -0.0726  1.6883 -0.2058
   22MOL     H9 7611   2.975   3.025   6.843  0.7160 -0.4124  0.5138
   22MOL    H10 7612   2.883   2.821   6.639 -0.9923  0.2824 -0.5415
   22MOL    H11 7613   3.007   2.953   6.623  0.6025 -1.0872  0.7692
   22MOL    H12 7614   2.823   3.114   6.655 -1.2055 -0.5302  1.8720
   22MOL    H13 7615   2.704   2.986   6.647 -0.7402  2.3489 -0.9979
   22MOL    H14 7616   2.705   3.078   6.436  0.0990 -0.3265  0.5672
   22MOL    H15 7617   2.882   3.092   6.434 -1.1833  1.3715 -0.7756
   22MOL    H16 7618   2.804   2.896   6.288 -0.1970 -0.4528  0.0189
   22MOL    H17 7619   2.706   2.845   6.427 -0.6444  1.6131  0.9652
   22MOL    H18 7620   2.893   2.851   6.421  0.8594  0.5935 -0.9822
   22MOL    H19 7621   2.755   3.022   6.877 -0.7133 -0.1020 -0.7976
   22MOL    C20 7622   3.038   2.817   6.860 -0.3593 -1.2743 -0.2572
   22MOL    C21 7623   3.141   2.862   6.966  0.2371 -0.2363 -0.0734
   22MOL    C22 7624   3.075   2.903   7.103  0.1038  0.6541 -0.3531
   22MOL    C23 7625   3.027   2.790   7.190  0.1117  0.0682  0.3037
   22MOL    C24 7626   2.971   2.830   7.327 -0.1294 -0.0295 -0.2358
   22MOL    C25 7627   2.964   2.709   7.422 -1.1181  0.4813  0.2325
   22MOL    H26 7628   3.092   2.794   6.768 -2.6973  0.8600 -2.2489
   22MOL    H27 7629   2.986   2.728   6.895 -2.3733  0.0491  0.2226
   22MOL    H28 7630   3.189   2.947   6.918 -1.6825  0.3497 -1.0434
   22MOL    H29 7631   2.992   2.973   7.086 -1.2483 -0.5388  1.1659
   22MOL    H30 7632   3.144   2.964   7.160 -1.2712 -0.3438  2.4555
   22MOL    H31 7633   3.109   2.720   7.211  0.3438  0.0336 -0.6708
   22MOL    H32 7634   2.957   2.727   7.134  1.0087  1.5607 -2.5852
   22MOL    H33 7635   3.026   2.903   7.386 -0.7387  0.8287 -0.7177
   22MOL    H34 7636   2.875   2.878   7.307 -0.1464  0.5085  1.0773
   22MOL    H35 7637   2.919   2.742   7.516 -1.6242 -0.7215  0.4205
   22MOL    H36 7638   2.894   2.630   7.394 -0.8020  0.7670 -1.4254
   22MOL    H37 7639   3.065   2.677   7.448 -1.9146 -0.8866  1.7269
   22MOL    C38 7640   3.248   2.749   6.985  0.5696  0.0959 -0.3596
   22MOL    C39 7641   3.373   2.790   7.067 -0.8219  0.2731 -0.2248
   22MOL    C40 7642   3.443   2.665   7.128 -0.2265  0.0336 -0.7458
   22MOL    C41 7643   3.480   2.556   7.026  0.3515 -0.1337 -0.7772
   22MOL    C42 7644   3.569   2.436   7.069  0.0977 -0.3083  0.6437
   22MOL    C43 7645   3.538   2.329   6.965 -0.2880  0.2464 -0.2277
   22MOL    H44 7646   3.279   2.711   6.888  1.0579 -1.1963  0.2905
   22MOL    H45 7647   3.193   2.664   7.027 -2.1792  1.9389 -0.0842
   22MOL    H46 7648   3.345   2.858   7.148 -1.8616 -0.3812 -0.0154
   22MOL    H47 7649   3.531   2.694   7.186 -1.6410  1.5777  0.7012
   22MOL    H48 7650   3.377   2.624   7.205  1.4263 -0.3660  0.4882
   22MOL    H49 7651   3.385   2.523   6.985 -0.5265  2.1169 -0.5932
   22MOL    H50 7652   3.529   2.606   6.942 -0.9982  3.2459  0.3722
   22MOL    H51 7653   3.674   2.456   7.052 -0.1434 -0.1823 -0.7925
   22MOL    H52 7654   3.560   2.411   7.174  0.5410  0.0123  0.7550
   22MOL    H53 7655   3.453   2.267   6.997 -0.8629  0.5435 -1.1656
   22MOL    H54 7656   3.609   2.247   6.960 -1.1165 -0.3971 -1.8493
   22MOL    H55 7657   3.520   2.367   6.865  2.0408 -0.0838 -0.7918
   22MOL    C56 7658   3.468   2.875   6.987 -0.2946  0.5230 -0.4837
   22MOL    C57 7659   3.599   2.928   7.052  0.1054 -0.1418 -0.1497
   22MOL    C58 7660   3.568   2.994   7.197 -0.2309 -0.3156  0.3000
   22MOL    C59 7661   3.471   3.110   7.206 -0.4280  0.1999  0.3737
   22MOL    C60 7662   3.480   3.185   7.336  0.9329 -0.9487 -0.2388
   22MOL    C61 7663   3.368   3.298   7.341 -0.3864  1.0854  0.4435
   22MOL    H62 7664   3.494   2.828   6.891  0.3239  0.1153 -0.1204
   22MOL    H63 7665   3.414   2.966   6.962 -0.4373  0.1155 -1.7117
   22MOL    H64 7666   3.672   2.851   7.078  0.2141  0.6232  1.9433
   22MOL    H65 7667   3.548   2.915   7.269 -2.3496  1.6540  1.9649
   22MOL    H66 7668   3.664   3.026   7.238 -0.3201 -0.4482  0.6138
   22MOL    H67 7669   3.370   3.073   7.193 -0.2065 -1.0329  2.0254
   22MOL    H68 7670   3.472   3.182   7.124 -0.0053 -0.2004  0.0307
   22MOL    H69 7671   3.468   3.120   7.423  1.7190 -0.6092  0.1335
   22MOL    H70 7672   3.576   3.235   7.347  1.7576 -2.6901  0.7599
   22MOL    H71 7673   3.385   3.360   7.430  2.7606  2.0052 -0.7287
   22MOL    H72 7674   3.352   3.359   7.252 -0.7897  1.5808  0.8533
   22MOL    H73 7675   3.274   3.252   7.372 -0.2192 -0.5033 -1.3621
   22MOL    C74 7676   3.679   3.021   6.959 -0.5611 -0.3732 -0.8965
   22MOL    C75 7677   3.763   2.942   6.852  0.2725  0.3745  1.3136
   22MOL    C76 7678   3.768   3.022   6.721  0.2980 -0.3005  0.4055
   22MOL    C77 7679   3.802   3.172   6.741 -1.0389  0.2739  0.2182
   22MOL    C78 7680   3.820   3.253   6.608 -0.4078  0.5209  0.2694
   22MOL    C79 7681   3.823   3.399   6.641 -0.4288 -0.6606  0.3302
   22MOL    H80 7682   3.597   3.081   6.921  0.3631  2.2160  1.0385
   22MOL    H81 7683   3.729   3.096   7.021 -0.5788  1.5024 -3.0768
   22MOL    H82 7684   3.704   2.856   6.822 -0.3828  1.0029  0.7827
   22MOL    H83 7685   3.838   2.984   6.646  0.4656  1.0007 -0.1196
   22MOL    H84 7686   3.672   3.021   6.669  0.0218  0.4773  0.8913
   22MOL    H85 7687   3.733   3.226   6.806  0.5479  0.5643  1.6932
   22MOL    H86 7688   3.890   3.180   6.804  0.8358 -2.2902 -2.0035
   22MOL    H87 7689   3.729   3.235   6.551  0.4961  0.8883 -1.3110
   22MOL    H88 7690   3.912   3.226   6.556 -0.6715  0.9005 -0.3999
   22MOL    H89 7691   3.882   3.417   6.731 -2.2120  1.5508  1.1068
   22MOL    H90 7692   3.861   3.457   6.557  0.4787 -1.4198  0.2085
   22MOL    H91 7693   3.728   3.448   6.663 -0.3391 -1.0980  1.7653
   22MOL    C92 7694   3.895   2.908   6.916  1.5468  0.0402  0.5675
   22MOL    C93 7695   3.984   2.802   6.853  0.3544  0.9287 -0.7528
   22MOL    C94 7696   3.898   2.663   6.844 -0.1029  0.7124  0.3378
   22MOL    C95 7697   3.982   2.540   6.827 -0.2316 -0.6575  0.6532
   22MOL    C96 7698   3.902   2.415   6.813  0.7694  0.0397 -0.0058
   22MOL    C97 7699   3.810   2.410   6.691  0.4947 -0.1919 -0.3789
   22MOL    H98 7700   3.955   2.999   6.916  1.4820  0.0864 -0.1610
   22MOL    H99 7701   3.876   2.883   7.021 -0.2201 -0.1514  0.2202
   22MOL   H100 7702   4.070   2.787   6.919  1.0151 -1.5219 -2.1140
   22MOL   H101 7703   3.829   2.679   6.761 -0.0177 -0.9063 -0.0580
   22MOL   H102 7704   3.840   2.651   6.935 -1.2983 -1.6835 -0.7199
   22MOL   H103 7705   4.047   2.547   6.740  0.6881  1.5196  1.4986
   22MOL   H104 7706   4.060   2.522   6.902  2.5485  0.1923 -1.9163
   22MOL   H105 7707   3.972   2.332   6.821 -0.0852 -0.7032 -0.1501
   22MOL   H106 7708   3.842   2.388   6.900 -2.0045  1.5902 -1.3984
   22MOL   H107 7709   3.864   2.414   6.596  2.6882  0.4943  0.8656
   22MOL   H108 7710   3.763   2.312   6.682  2.7567 -1.3722  0.3032
   22MOL   H109 7711   3.732   2.487   6.692  0.4413 -0.2130  3.2362
   22MOL   C110 7712   4.052   2.832   6.714  0.0143  0.2208  0.4911
   22MOL   C111 7713   4.148   2.957   6.693  0.0345 -1.4785 -0.2899
   22MOL   C112 7714   4.133   2.998   6.546  1.0185 -0.2132 -0.3584
   22MOL   C113 7715   4.185   3.138   6.511  0.3614  0.1444 -0.1057
   22MOL   C114 7716   4.150   3.184   6.369 -0.2010  0.0426 -0.4039
   22MOL   C115 7717   4.183   3.331   6.348 -0.5831  0.1181 -0.1997
   22MOL   H116 7718   4.109   2.742   6.690 -0.4282  0.1684 -0.3718
   22MOL   H117 7719   3.970   2.832   6.643  0.1800 -0.9854  0.2824
   22MOL   H118 7720   4.108   3.032   6.762  3.0655  1.4573 -1.5963
   22MOL   H119 7721   4.031   2.993   6.507  1.2487  0.9085 -1.1514
   22MOL   H120 7722   4.189   2.925   6.488  0.4919  1.9088 -3.6617
   22MOL   H121 7723   4.293   3.138   6.523  0.0864  2.9681  3.0507
   22MOL   H122 7724   4.129   3.205   6.577 -1.8469 -1.9584  0.2584
   22MOL   H123 7725   4.048   3.165   6.335  0.4639 -0.1750 -2.3421
   22MOL   H124 7726   4.211   3.115   6.311  0.0373  1.4678 -1.9076
   22MOL   H125 7727   4.133   3.366   6.258 -1.1822  0.9177  0.4298
   22MOL   H126 7728   4.151   3.381   6.440  3.4250 -0.4021  1.5761
   22MOL   H127 7729   4.289   3.346   6.332 -0.7574  0.5684 -0.9634
   22MOL   C128 7730   4.292   2.924   6.736  0.2538 -0.7405 -0.1064
   22MOL   C129 7731   4.329   2.947   6.888 -0.7072  0.6013  0.2020
   22MOL   C130 7732   4.374   3.089   6.915  0.6627 -0.7774 -0.3839
   22MOL   C131 7733   4.264   3.197   6.899 -0.4637 -0.0534  0.4415
   22MOL   C132 7734   4.329   3.336   6.932  0.2768 -0.0030  0.3408
   22MOL   C133 7735   4.233   3.456   6.936  0.4268  0.2014  0.7255
   22MOL   H134 7736   4.361   2.991   6.684  0.6247 -1.2188 -0.2372
   22MOL   H135 7737   4.312   2.820   6.713  1.7810 -0.5050  0.0419
   22MOL   H136 7738   4.245   2.930   6.955  0.9456 -0.4280  2.0307
   22MOL   H137 7739   4.390   3.084   7.023  0.0477 -0.7974 -0.2928
   22MOL   H138 7740   4.459   3.112   6.850  0.0022  0.6250 -0.7809
   22MOL   H139 7741   4.182   3.179   6.968  0.5783  0.7102  1.8856
   22MOL   H140 7742   4.241   3.205   6.792  0.1304 -1.1822  0.2191
   22MOL   H141 7743   4.394   3.339   7.020  1.5961  0.5384 -0.6269
   22MOL   H142 7744   4.395   3.354   6.847 -1.1463  1.6556 -0.4391
   22MOL   H143 7745   4.166   3.450   6.850  3.5900  0.9982 -1.8996
   22MOL   H144 7746   4.283   3.549   6.911 -0.8709  0.2488 -1.8083
   22MOL   H145 7747   4.165   3.466   7.021 -1.3727  0.9677 -0.7662
   22MOL   C146 7748   4.426   2.850   6.945  0.3121  0.0575 -0.2616
   22MOL   C147 7749   4.578   2.857   6.920  0.3641  0.2119  0.0118
   22MOL   C148 7750   4.624   2.833   6.772  0.2766 -0.8977 -0.4123
   22MOL   C149 7751   4.754   2.888   6.714 -0.2869  0.0101 -0.0664
   22MOL   C150 7752   4.773   3.038   6.717  0.4119 -0.1305 -0.1337
   22MOL   C151 7753   4.902   3.076   6.643 -0.5641 -0.1985  0.1413
   22MOL   H152 7754   4.421   2.856   7.054  2.6273  2.8284 -0.2557
   22MOL   H153 7755   4.402   2.751   6.906  0.4023 -0.0028 -0.1621
   22MOL   H154 7756   4.616   2.956   6.946  0.1341  0.0898  0.8171
   22MOL   H155 7757   4.556   2.886   6.705  1.0041  1.5233  0.7429
   22MOL   H156 7758   4.612   2.726   6.750 -0.3219 -0.7845 -0.6607
   22MOL   H157 7759   4.844   2.834   6.742  0.6457  1.5649 -0.0314
   22MOL   H158 7760   4.757   2.864   6.608 -2.5221  2.7024 -0.7980
   22MOL   H159 7761   4.775   3.075   6.820 -1.5949 -0.4266  0.0281
   22MOL   H160 7762   4.687   3.088   6.673  1.7101  1.3411 -1.0978
   22MOL   H161 7763   4.993   3.036   6.689  0.6432  0.8760 -1.2696
   22MOL   H162 7764   4.906   3.032   6.543 -1.8444  1.1722 -0.5202
   22MOL   H163 7765   4.910   3.184   6.640 -0.3815 -0.2624 -2.2295
   22MOL   C164 7766   4.649   2.766   7.026 -0.1168 -0.3499  0.2059
   22MOL   C165 7767   4.708   2.833   7.153 -0.3742 -0.2854  0.6162
   22MOL   C166 7768   4.725   2.734   7.266  0.7744  0.5561  0.8135
   22MOL   C167 7769   4.583   2.691   7.329  0.2790  0.0872 -0.2793
   22MOL   C168 7770   4.592   2.604   7.461  0.5212  0.2938 -0.5047
   22MOL   C169 7771   4.662   2.473   7.433  0.3863 -0.7116  1.2826
   22MOL   H170 7772   4.581   2.684   7.049 -0.0941  0.5444  3.7144
   22MOL   H171 7773   4.732   2.710   6.983  0.5462 -0.1506  1.2210
   22MOL   H172 7774   4.629   2.895   7.196 -0.9741 -0.3371 -0.3829
   22MOL   H173 7775   4.788   2.773   7.346 -0.7277 -0.1034  2.3653
   22MOL   H174 7776   4.765   2.642   7.224  0.4189  0.0980  1.4677
   22MOL   H175 7777   4.515   2.646   7.257  0.5022 -0.4613 -0.1520
   22MOL   H176 7778   4.532   2.780   7.367 -1.4352 -1.2624  0.7021
   22MOL   H177 7779   4.486   2.590   7.481  0.4108  1.6255 -0.0919
   22MOL   H178 7780   4.637   2.660   7.543 -1.9860 -1.2550  2.0473
   22MOL   H179 7781   4.657   2.413   7.523 -4.6452 -0.6687  1.1632
   22MOL   H180 7782   4.760   2.486   7.386 -0.2885  1.9700  0.5498
   22MOL   H181 7783   4.606   2.412   7.363 -0.3180  0.4714  0.7960
   22MOL   C182 7784   4.831   2.923   7.117  0.2357 -1.1698 -0.3342
   22MOL   C183 7785   4.847   3.052   7.208 -0.0508  0.0901 -0.4271
   22MOL   C184 7786   4.745   3.153   7.175  0.1258 -0.6554 -0.6688
   22MOL   C185 7787   4.756   3.275   7.260  0.1008  0.0285 -0.2508
   22MOL   C186 7788   4.626   3.358   7.275 -0.6474  0.2814  0.1209
   22MOL   C187 7789   4.504   3.296   7.351 -0.9047  0.1026 -0.0606
   22MOL   H188 7790   4.917   2.857   7.130  1.6312  0.9194  1.3684
   22MOL   H189 7791   4.839   2.965   7.017 -0.8940 -1.2905 -0.4819
   22MOL   H190 7792   4.819   3.023   7.309  0.2223 -1.0260 -0.6678
   22MOL   H191 7793   4.724   3.181   7.072 -1.8021  0.9226  0.1207
   22MOL   H192 7794   4.652   3.101   7.200  0.7445 -0.4397  2.2957
   22MOL   H193 7795   4.840   3.334   7.224  0.7148  1.0156  2.6091
   22MOL   H194 7796   4.789   3.248   7.360  2.7794  2.0611 -0.5304
   22MOL   H195 7797   4.581   3.394   7.182  1.4479  0.8509 -0.6868
   22MOL   H196 7798   4.664   3.450   7.318  1.5344 -0.1513 -0.8041
   22MOL   H197 7799   4.455   3.383   7.394  1.4793  2.6870 -2.3843
   22MOL   H198 7800   4.523   3.229   7.434  1.9382 -1.0619 -1.5933
   22MOL   H199 7801   4.439   3.239   7.284 -0.5530 -0.3287 -0.0327
   22MOL   C200 7802   5.000   3.102   7.217  1.1529 -0.5944  0.5492
   22MOL   C201 7803   5.082   3.036   7.329 -0.6036  0.9185  0.2900
   22MOL   C202 7804   5.233   3.071   7.302 -1.1511  0.6745  0.2510
   22MOL   C203 7805   5.295   2.969   7.194  0.2312 -0.8509  0.4567
   22MOL   C204 7806   5.446   2.980   7.171 -0.0617  0.2073 -1.1064
   22MOL   C205 7807   5.516   2.862   7.095  0.2122 -0.6147  0.1891
   22MOL   H206 7808   5.010   3.210   7.219  0.1046 -0.4972  1.3122
   22MOL   H207 7809   5.048   3.083   7.121 -0.1518  1.0416 -0.4419
   22MOL   H208 7810   5.080   2.928   7.316 -0.0580  1.0644 -1.2023
   22MOL   H209 7811   5.288   3.065   7.397 -1.3087 -4.9752  0.1432
   22MOL   H210 7812   5.252   3.170   7.261  2.4494 -0.9214 -2.2161
   22MOL   H211 7813   5.249   3.002   7.101  0.9237  0.2719  0.5068
   22MOL   H212 7814   5.265   2.865   7.211  0.7041 -0.5916  3.0468
   22MOL   H213 7815   5.496   2.997   7.266 -2.2005  0.7483 -0.0429
   22MOL   H214 7816   5.468   3.080   7.134  0.8004  0.1761 -0.6888
   22MOL   H215 7817   5.471   2.849   6.997 -0.4266 -1.8195  0.6296
   22MOL   H216 7818   5.622   2.879   7.079 -0.4712  1.4355 -2.3115
   22MOL   H217 7819   5.490   2.770   7.148 -0.7781 -0.8056 -0.6255
   22MOL   C218 7820   5.026   3.073   7.472 -0.0721  0.2106  0.4460
   22MOL   C219 7821   5.085   2.990   7.596 -0.1724  0.6807 -0.3838
   22MOL   C220 7822   5.054   2.839   7.582 -0.3830 -0.2111  0.6229
   22MOL   C221 7823   5.099   2.737   7.689 -0.5979 -0.5784 -0.6009
   22MOL   C222 7824   5.018   2.607   7.690 -0.1205 -0.0251 -0.4122
   22MOL   C223 7825   5.076   2.497   0.054 -0.3424  0.2856  0.2783
   22MOL   H224 7826   5.043   3.179   7.490  0.8255 -0.3767  3.3155
   22MOL   H225 7827   4.917   3.064   7.472  0.0735 -2.2318 -1.2020
   22MOL   H226 7828   5.193   2.993   7.582  0.0335 -3.0600 -0.0715
   22MOL   H227 7829   5.094   2.793   7.492  2.1324  0.3472  1.4145
   22MOL   H228 7830   4.946   2.829   7.582 -0.4850  0.7980  1.1980
   22MOL   H229 7831   5.113   2.775   0.063  3.0528  3.0996 -2.3675
   22MOL   H230 7832   5.202   2.723   7.656  0.2583  2.8739  0.3365
   22MOL   H231 7833   4.915   2.635   7.713 -0.0381  1.1933 -1.4471
   22MOL   H232 7834   5.020   2.567   7.589  1.4077 -0.1417 -0.3447
   22MOL   H233 7835   5.095   2.531   0.156  1.1882  0.4431 -0.0416
   22MOL   H234 7836   5.170   2.456   0.017 -0.9207 -1.2508  0.4888
   22MOL   H235 7837   5.013   2.410   0.067  0.8696 -0.7366 -0.5317
   22MOL   C236 7838   5.017   3.035   0.002  0.0401 -0.1547  0.3186
   22MOL   C237 7839   5.069   3.173   0.057 -0.2899 -0.2918 -0.2411
   22MOL   C238 7840   5.220   3.166   0.083 -0.2836  0.4217  0.6359
   22MOL   C239 7841   5.269   3.075   0.194 -0.3007 -0.1409  0.0795
   22MOL   C240 7842   5.423   3.080   0.208 -1.0053  0.5687  0.9198
   22MOL   C241 7843   5.480   2.962   0.281 -0.0538 -0.4870 -0.5228
   22MOL   H242 7844   4.917   3.057   7.691  0.5995  2.7283  0.4134
   22MOL   H243 7845   5.015   2.973   0.091 -1.4971  0.7476  0.9237
   22MOL   H244 7846   5.067   3.257   7.715  0.0006 -0.3739 -0.3499
   22MOL   H245 7847   5.264   3.136   7.715  0.5289 -0.8161  1.3898
   22MOL   H246 7848   5.256   3.267   0.101  0.5283  0.2751 -0.1301
   22MOL   H247 7849   5.251   2.973   0.162  2.1003 -0.2932 -0.9079
   22MOL   H248 7850   5.223   3.099   0.290  0.3530  0.3018  0.2859
   22MOL   H249 7851   5.475   3.115   0.119  0.9868 -0.6648  1.5800
   22MOL   H250 7852   5.437   3.169   0.270 -1.7228  0.7673  0.7994
   22MOL   H251 7853   5.413   2.939   0.364 -1.6178  0.5504 -1.4876
   22MOL   H252 7854   5.480   2.877   0.213  0.7878  0.1063 -1.2728
   22MOL   H253 7855   5.583   2.976   0.317 -0.6478  2.1190  0.2647
   22MOL   C254 7856   4.998   3.220   0.176  0.6790 -0.5177  0.1227
   22MOL   C255 7857   4.852   3.253   0.164  0.1010 -0.7685  0.1086
   22MOL   C256 7858   4.827   3.363   0.061  0.4505 -0.0356  0.7619
   22MOL   C257 7859   4.906   3.494   0.058 -0.6169  0.4710  0.3839
   22MOL   C258 7860   4.863   3.582   7.661 -0.7771  0.7693  0.1356
   22MOL   C259 7861   4.730   3.651   7.669 -0.4359 -0.2505 -0.3185
   22MOL   H260 7862   5.050   3.309   0.213  2.0449 -0.7708 -1.1470
   22MOL   H261 7863   5.001   3.142   0.253 -2.7043  1.9117  2.8718
   22MOL   H262 7864   4.795   3.162   0.144 -1.7028  0.6587 -1.4359
   22MOL   H263 7865   4.840   3.313   7.692  0.9004 -1.1706  1.3993
   22MOL   H264 7866   4.723   3.393   0.068  1.0072  1.6976  1.8711
   22MOL   H265 7867   4.895   3.536   0.158 -2.1441  0.7522  0.1061
   22MOL   H266 7868   5.014   3.482   0.046 -0.4502  0.5388  1.7922
   22MOL   H267 7869   4.874   3.513   7.577  1.5217  1.4005 -0.1282
   22MOL   H268 7870   4.943   3.655   7.654 -1.1047  1.3697  2.1443
   22MOL   H269 7871   4.644   3.590   7.696  1.6974 -2.3140  2.2228
   22MOL   H270 7872   4.709   3.697   7.573 -1.2067  1.5657  0.6879
   22MOL   H271 7873   4.746   3.727   0.019 -0.4999  0.6695 -1.1991
   22MOL   C272 7874   4.799   3.295   0.299  0.0291  0.1810 -0.0382
   22MOL   C273 7875   4.651   3.235   0.320 -0.1186  0.3250  0.2926
   22MOL   C274 7876   4.565   3.339   0.385 -0.9221  0.5473  0.2494
   22MOL   C275 7877   4.608   3.373   0.529 -0.5133  0.2414 -0.5031
   22MOL   C276 7878   4.562   3.515   0.568  0.5769  0.0667  0.6503
   22MOL   C277 7879   4.615   3.565   0.708 -1.0659  0.4048 -0.4717
   22MOL   H278 7880   4.864   3.268   0.383  0.6291  1.8044  0.0489
   22MOL   H279 7881   4.787   3.403   0.312 -3.3358 -0.2126  0.4377
   22MOL   H280 7882   4.603   3.227   0.222  0.4127 -1.0702  0.1433
   22MOL   H281 7883   4.462   3.304   0.390 -1.0096  0.7434 -0.1741
   22MOL   H282 7884   4.565   3.435   0.334  0.1007  0.0527 -0.6871
   22MOL   H283 7885   4.715   3.361   0.540 -0.5023  0.1814 -0.6690
   22MOL   H284 7886   4.570   3.299   0.600  4.2340  0.1726  2.1521
   22MOL   H285 7887   4.595   3.594   0.500  1.0886 -0.5415  0.1800
   22MOL   H286 7888   4.453   3.522   0.573  0.2379 -1.5497 -2.8019
   22MOL   H287 7889   4.582   3.664   0.741  0.6601  0.4103  1.3592
   22MOL   H288 7890   4.596   3.495   0.789  1.9106  1.5667  1.3105
   22MOL   H289 7891   4.723   3.578   0.703 -0.8365 -1.5303 -0.9423
   22MOL   C290 7892   4.656   3.095   0.389  0.0369 -0.9111  1.0313
   22MOL   C291 7893   4.521   3.027   0.436 -0.3315 -0.6162 -0.1510
   22MOL   C292 7894   4.417   3.007   0.319 -0.9287 -0.5652 -0.2113
   22MOL   C293 7895   4.460   2.927   0.195 -0.2933 -0.4108  0.5879
   22MOL   C294 7896   4.346   2.895   0.099 -0.7073  0.4611  0.5525
   22MOL   C295 7897   4.391   2.788   7.723  0.5025  0.0003 -0.2244
   22MOL   H296 7898   4.731   3.100   0.468  0.3976 -0.2875  0.6536
   22MOL   H297 7899   4.703   3.029   0.316  0.2751 -1.1473  1.3950
   22MOL   H298 7900   4.472   3.097   0.504 -0.6898  0.1876 -1.2068
   22MOL   H299 7901   4.383   3.109   0.298  0.7109  0.2906  1.1492
   22MOL   H300 7902   4.323   2.967   0.358 -2.1761 -0.8561 -3.4164
   22MOL   H301 7903   4.551   2.966   0.148 -0.8140 -0.1757 -0.2376
   22MOL   H302 7904   4.491   2.829   0.230  0.6181 -0.2863  0.1448
   22MOL   H303 7905   4.329   2.987   0.043  0.7846  0.2759 -0.2319
   22MOL   H304 7906   4.255   2.859   0.147  0.1807 -1.7044  0.6672
   22MOL   H305 7907   4.446   2.829   7.639  0.7150 -1.6951 -0.9478
   22MOL   H306 7908   4.311   2.724   7.686 -0.6956  2.1401 -1.3927
   22MOL   H307 7909   4.457   2.715   0.045  1.9056 -0.4603 -2.7237
   22MOL   C308 7910   4.573   2.891   0.494 -0.1126  0.2339  0.2081
   22MOL   C309 7911   4.462   2.821   0.579 -0.2763 -0.3213 -0.2639
   22MOL   C310 7912   4.450   2.884   0.723 -0.1252  0.5023 -0.3118
   22MOL   C311 7913   4.571   2.871   0.817 -0.6564  0.2515 -0.5608
   22MOL   C312 7914   4.558   2.967   0.938  0.3456  0.4226 -0.1578
   22MOL   C313 7915   4.651   2.923   1.047 -0.2893 -0.5594  0.4264
   22MOL   H314 7916   4.601   2.830   0.408  0.7246 -1.5839  1.7371
   22MOL   H315 7917   4.670   2.906   0.541 -0.8526 -1.6359  2.3986
   22MOL   H316 7918   4.366   2.831   0.529 -0.4057 -0.9768 -0.1542
   22MOL   H317 7919   4.363   2.846   0.776  0.5193 -0.0875  0.3378
   22MOL   H318 7920   4.414   2.986   0.713 -1.5827 -0.0570 -0.8494
   22MOL   H319 7921   4.660   2.900   0.762 -1.5464 -1.2053 -2.8562
   22MOL   H320 7922   4.580   2.765   0.839  0.0119  0.4125 -0.0493
   22MOL   H321 7923   4.589   3.070   0.918  0.7228  0.5877  1.1994
   22MOL   H322 7924   4.453   2.969   0.966  0.8224  2.9917  1.6299
   22MOL   H323 7925   4.640   2.997   1.126 -1.4777  0.6408 -0.8488
   22MOL   H324 7926   4.754   2.918   1.011  0.0110  0.6908  1.0828
   22MOL   H325 7927   4.611   2.824   1.070 -1.2553  0.1779  1.9315
   22MOL   C326 7928   4.488   2.668   0.598 -0.0728  0.1306  0.1487
   22MOL   C327 7929   4.386   2.582   0.681 -0.5116  0.0553  0.2002
   22MOL   C328 7930   4.244   2.608   0.625 -0.0386 -0.5588  0.0411
   22MOL   C329 7931   4.123   2.544   0.702 -0.2742  0.4883 -0.3057
   22MOL   C330 7932   3.990   2.607   0.660 -0.6745  0.1904 -0.1065
   22MOL   C331 7933   3.934   2.561   0.520 -0.5404  0.1900  0.5601
   22MOL   H332 7934   4.591   2.658   0.632  0.2157  0.5233 -0.6026
   22MOL   H333 7935   4.488   2.629   0.496 -0.5271 -0.3110  0.3168
   22MOL   H334 7936   4.390   2.608   0.787  1.6501 -0.4159  0.2525
   22MOL   H335 7937   4.236   2.717   0.631 -1.7098 -0.7612  2.2448
   22MOL   H336 7938   4.231   2.596   0.518 -2.5866 -0.4141  0.3038
   22MOL   H337 7939   4.131   2.550   0.810  0.4342  0.4790 -0.3607
   22MOL   H338 7940   4.119   2.439   0.673  1.1526  0.3077  0.1605
   22MOL   H339 7941   3.916   2.588   0.739  0.8521 -2.0223  0.8441
   22MOL   H340 7942   4.008   2.714   0.667 -4.2748  0.7572  2.1069
   22MOL   H341 7943   3.841   2.616   0.509  0.2362  1.6130  1.0266
   22MOL   H342 7944   3.923   2.453   0.509 -0.8938  0.1249  1.4416
   22MOL   H343 7945   4.004   2.598   0.446  0.9064 -1.3417  1.1185
   22MOL   C344 7946   4.424   2.430   0.659 -0.0224  0.3656  0.0720
   22MOL   C345 7947   4.566   2.398   0.712  0.1326 -0.2692  0.4399
   22MOL   C346 7948   4.585   2.246   0.715 -0.1796  0.0364  0.0862
   22MOL   C347 7949   4.718   2.215   0.778 -0.1170 -0.3840  0.5756
   22MOL   C348 7950   4.741   2.067   0.821 -0.1685 -0.4521  0.8822
   22MOL   C349 7951   4.884   2.038   0.883  0.6889 -0.4782  0.7765
   22MOL   H350 7952   4.352   2.375   0.720 -0.4631  0.0035 -0.7759
   22MOL   H351 7953   4.411   2.391   0.558  1.0933 -3.1793  1.2065
   22MOL   H352 7954   4.576   2.428   0.816 -1.1775 -0.4636  0.6224
   22MOL   H353 7955   4.506   2.194   0.770 -0.0086 -1.4925 -1.0920
   22MOL   H354 7956   4.594   2.207   0.614  1.3424  1.3238 -0.2884
   22MOL   H355 7957   4.802   2.244   0.714  0.4104 -1.0763  0.9484
   22MOL   H356 7958   4.740   2.274   0.867  0.7564  0.5908 -0.2742
   22MOL   H357 7959   4.661   2.053   0.894 -0.4997  1.6538  0.9450
   22MOL   H358 7960   4.718   1.993   0.744 -0.9990  0.6072  0.0995
   22MOL   H359 7961   4.907   1.932   0.890  0.4671 -0.7710 -2.1558
   22MOL   H360 7962   4.962   2.078   0.818 -0.8054  0.9961 -0.1657
   22MOL   H361 7963   4.883   2.099   0.974 -2.1749 -0.3193  0.7038
   22MOL   H362 7964   4.647   2.448   0.659  1.7333 -0.4199  2.6707
   23MOL     C1 7965   2.326   6.120   3.364 -0.2790 -0.0007  0.2861
   23MOL     C2 7966   2.235   6.233   3.410 -0.6652  0.4714 -0.2312
   23MOL     C3 7967   2.269   6.272   3.549 -0.0081 -0.4525 -0.5938
   23MOL     C4 7968   2.372   6.390   3.558 -0.1259  0.0278  0.3747
   23MOL     C5 7969   2.412   6.433   3.708 -0.2286  0.0358 -0.3598
   23MOL     C6 7970   2.539   6.524   3.712  0.2943 -0.3701  0.1162
   23MOL     H7 7971   2.340   6.124   3.256  0.5000  1.2821  0.4190
   23MOL     H8 7972   2.425   6.141   3.404  0.6917 -1.2566 -1.3764
   23MOL     H9 7973   2.267   6.317   3.347  2.1863  1.2539  2.1352
   23MOL    H10 7974   2.303   6.187   3.608  0.1253 -1.0907 -1.5913
   23MOL    H11 7975   2.172   6.306   3.586 -0.2123 -1.0491 -0.5815
   23MOL    H12 7976   2.335   6.480   3.510 -2.6801 -0.7039  0.9267
   23MOL    H13 7977   2.464   6.363   3.506  0.2515 -0.2756  1.1895
   23MOL    H14 7978   2.329   6.489   3.752  1.4179  1.3996  1.0461
   23MOL    H15 7979   2.434   6.337   3.755 -0.4977 -0.0211 -0.3475
   23MOL    H16 7980   2.512   6.620   3.667 -2.1763 -0.7804  0.6652
   23MOL    H17 7981   2.619   6.477   3.654  1.8678 -1.3133  2.9721
   23MOL    H18 7982   2.574   6.558   3.809  1.8316 -2.1627  0.2057
   23MOL    H19 7983   2.295   6.022   3.398  1.0426 -0.7184 -0.5294
   23MOL    C20 7984   2.086   6.196   3.384  0.3497  0.0108  0.0283
   23MOL    C21 7985   1.985   6.310   3.402  0.0105 -0.2987  0.4716
   23MOL    C22 7986   2.001   6.402   3.276  0.6655  0.6919  0.3298
   23MOL    C23 7987   1.940   6.544   3.286  0.2910 -0.1514  0.0596
   23MOL    C24 7988   1.968   6.627   3.158 -0.2354  1.1581 -0.5165
   23MOL    C25 7989   1.900   6.761   3.169  0.0111 -0.0878 -0.5090
   23MOL    H26 7990   2.073   6.105   3.443  1.0532  0.4099  0.7976
   23MOL    H27 7991   2.079   6.166   3.279 -0.4457 -2.2850  0.7154
   23MOL    H28 7992   2.010   6.376   3.484 -3.3602 -0.4626  1.7282
   23MOL    H29 7993   1.959   6.354   3.187  0.3852 -1.4245  1.5466
   23MOL    H30 7994   2.107   6.412   3.256  1.1050 -1.8560  1.1750
   23MOL    H31 7995   1.962   6.589   3.383 -1.8277  0.3284  0.3479
   23MOL    H32 7996   1.833   6.527   3.298  0.3696  0.1189  1.2505
   23MOL    H33 7997   2.074   6.653   3.160  1.0394 -3.4392 -0.9241
   23MOL    H34 7998   1.946   6.574   3.065 -0.6815 -2.1965  1.3869
   23MOL    H35 7999   1.918   6.803   3.269 -0.4089 -0.0438 -0.4541
   23MOL    H36 8000   1.946   6.829   3.098  0.2615  2.1396  1.7092
   23MOL    H37 8001   1.792   6.758   3.155 -0.0923  2.3280 -0.4548
   23MOL    C38 8002   1.835   6.269   3.429  0.6203  0.0032  0.2549
   23MOL    C39 8003   1.811   6.231   3.581  0.1165  0.4934  0.0969
   23MOL    C40 8004   1.805   6.363   3.667 -0.6538  0.9543  0.2899
   23MOL    C41 8005   1.674   6.444   3.656  0.1624 -0.1983  0.4743
   23MOL    C42 8006   1.650   6.556   3.768  0.1110 -0.2160 -0.3967
   23MOL    C43 8007   1.602   6.497   3.900  0.0605 -0.2770  0.9843
   23MOL    H44 8008   1.814   6.191   3.356 -2.4826  0.6365  0.3808
   23MOL    H45 8009   1.772   6.352   3.397 -0.1736 -0.1892  1.2869
   23MOL    H46 8010   1.898   6.175   3.616 -0.2573  1.3166  2.4784
   23MOL    H47 8011   1.809   6.327   3.770 -2.9478 -0.3559 -0.0411
   23MOL    H48 8012   1.895   6.421   3.648  0.0429 -0.8234 -2.0694
   23MOL    H49 8013   1.680   6.495   3.559  2.8946  2.2992  1.8720
   23MOL    H50 8014   1.584   6.384   3.655 -0.6481  0.9598  1.7741
   23MOL    H51 8015   1.745   6.609   3.778 -0.0532 -0.0196  0.1148
   23MOL    H52 8016   1.574   6.628   3.739  0.2157 -0.5334 -1.5048
   23MOL    H53 8017   1.500   6.458   3.897  0.5866 -1.5786  0.0846
   23MOL    H54 8018   1.602   6.576   3.976  3.1058 -0.6103  1.3800
   23MOL    H55 8019   1.662   6.419   3.945  1.2631  0.2704  0.3434
   23MOL    C56 8020   1.689   6.140   3.588 -0.0651  0.8086  0.2245
   23MOL    C57 8021   1.656   6.075   3.727 -0.1634 -1.4964 -0.8253
   23MOL    C58 8022   1.778   6.001   3.790  0.4503  0.2815 -0.3537
   23MOL    C59 8023   1.846   5.894   3.706 -0.0228  0.4187  0.0878
   23MOL    C60 8024   1.951   5.818   3.788 -0.3282  0.3445 -0.3084
   23MOL    C61 8025   2.081   5.889   3.837 -0.2423  0.8238  0.7479
   23MOL    H62 8026   1.604   6.199   3.554  2.2549  3.4081 -1.3396
   23MOL    H63 8027   1.684   6.065   3.510  0.9710 -0.3859  1.2783
   23MOL    H64 8028   1.635   6.155   3.798  0.9809  0.4345 -2.6261
   23MOL    H65 8029   1.853   6.071   3.826 -0.6974 -0.3249  3.4467
   23MOL    H66 8030   1.746   5.948   3.880 -0.0365  0.7676 -0.2393
   23MOL    H67 8031   1.897   5.928   3.616  0.8365 -1.1437 -0.0383
   23MOL    H68 8032   1.766   5.825   3.677 -0.2920  0.5230  0.5726
   23MOL    H69 8033   1.904   5.788   3.882 -0.8792 -1.5023 -1.1563
   23MOL    H70 8034   1.978   5.733   3.725 -0.0956  0.0545  0.1758
   23MOL    H71 8035   2.126   5.939   3.751 -1.2088  0.4980  0.0430
   23MOL    H72 8036   2.060   5.957   3.921 -0.2934  0.9077  0.6676
   23MOL    H73 8037   2.149   5.814   3.878 -0.6369  0.3135  0.4683
   23MOL    C74 8038   1.523   5.995   3.718 -0.7043  0.0837 -0.6259
   23MOL    C75 8039   1.390   6.053   3.675  0.0923  1.0045  0.1382
   23MOL    C76 8040   1.280   5.942   3.661 -0.0449 -0.0591 -0.0919
   23MOL    C77 8041   1.226   5.884   3.798 -0.7041  0.2085 -0.2678
   23MOL    C78 8042   1.237   5.730   3.798  0.4135  0.2935 -0.4815
   23MOL    C79 8043   1.168   5.662   3.922  0.3279  0.4801  0.0195
   23MOL    H80 8044   1.546   5.904   3.663  3.1953 -0.4049  1.6095
   23MOL    H81 8045   1.519   5.951   3.818 -0.4675  0.2356 -0.5488
   23MOL    H82 8046   1.419   6.088   3.576 -0.5833  0.3209 -0.3022
   23MOL    H83 8047   1.198   5.996   3.614  0.1703  1.1946  0.9305
   23MOL    H84 8048   1.308   5.865   3.590 -1.3028 -0.1408 -0.5038
   23MOL    H85 8049   1.265   5.933   3.887  0.5015 -3.2315  1.2133
   23MOL    H86 8050   1.120   5.905   3.811 -0.6641  1.1556 -1.3967
   23MOL    H87 8051   1.342   5.700   3.805  0.4398  0.7613  1.5805
   23MOL    H88 8052   1.212   5.681   3.705  2.1064 -2.9975  0.7140
   23MOL    H89 8053   1.218   5.707   4.007  0.5037 -2.3688  1.4762
   23MOL    H90 8054   1.064   5.690   3.938  0.1478  0.8025 -1.5990
   23MOL    H91 8055   1.196   5.557   3.920  1.6318  0.8256 -0.7093
   23MOL    C92 8056   1.334   6.176   3.762  0.5239  0.1530  0.9396
   23MOL    C93 8057   1.195   6.237   3.735 -0.2781  0.2267 -0.5766
   23MOL    C94 8058   1.161   6.352   3.836 -0.3043 -0.0918  0.2946
   23MOL    C95 8059   1.183   6.319   3.985  0.3945  1.1433 -0.2340
   23MOL    C96 8060   1.104   6.422   4.067  0.0325 -0.5409  0.4483
   23MOL    C97 8061   1.149   6.568   4.048 -0.3643  0.6127 -0.1717
   23MOL    H98 8062   1.333   6.139   3.864 -0.3652 -0.3888  0.7428
   23MOL    H99 8063   1.415   6.249   3.763  0.4011  0.3164 -0.4262
   23MOL   H100 8064   1.120   6.159   3.747 -0.2195  0.3175  0.4350
   23MOL   H101 8065   1.059   6.387   3.825 -1.4977 -2.8959  2.1191
   23MOL   H102 8066   1.233   6.433   3.819 -0.2845 -0.0257  0.6845
   23MOL   H103 8067   1.140   6.220   4.001  1.2175  0.7155 -0.6359
   23MOL   H104 8068   1.289   6.316   4.010  0.6637 -3.7857 -1.3469
   23MOL   H105 8069   0.998   6.428   4.040  0.1793  1.2744  0.2141
   23MOL   H106 8070   1.119   6.390   4.170  1.2682  2.9108  1.4012
   23MOL   H107 8071   1.241   6.592   4.100 -0.2913  0.3780 -0.1907
   23MOL   H108 8072   1.174   6.595   3.946  0.0228  1.6206  0.1939
   23MOL   H109 8073   1.075   6.635   4.092 -1.7177  0.0649 -1.5582
   23MOL   C110 8074   1.186   6.289   3.595 -0.8010 -0.6568 -0.4855
   23MOL   C111 8075   1.044   6.329   3.549  0.6482  0.1351 -0.7265
   23MOL   C112 8076   0.951   6.204   3.529  0.9911  0.5697 -0.0258
   23MOL   C113 8077   0.796   6.245   3.536 -0.3840  0.2550  0.3284
   23MOL   C114 8078   0.698   6.143   3.477  0.3075  0.3180 -0.6130
   23MOL   C115 8079   0.703   6.130   3.323  0.5363 -0.0129 -0.2889
   23MOL   H116 8080   1.258   6.370   3.582  1.4824 -2.5504 -0.0332
   23MOL   H117 8081   1.229   6.222   3.520 -1.5870 -1.5086 -0.1862
   23MOL   H118 8082   1.000   6.396   3.623  0.5991  1.4152 -1.9115
   23MOL   H119 8083   0.963   6.116   3.591 -3.6300 -0.2709 -0.1324
   23MOL   H120 8084   0.965   6.175   3.425 -0.6113  1.9360 -0.6621
   23MOL   H121 8085   0.769   6.335   3.481  1.6144  0.0814 -0.9734
   23MOL   H122 8086   0.773   6.260   3.642 -1.5847 -0.6382  0.2012
   23MOL   H123 8087   0.602   6.186   3.505  0.2018 -0.2147 -0.1307
   23MOL   H124 8088   0.709   6.043   3.520 -0.0661  0.1181 -0.9774
   23MOL   H125 8089   0.738   6.222   3.275 -1.6185  0.1000 -1.7288
   23MOL   H126 8090   0.753   6.039   3.293 -1.8883 -1.2844 -0.6474
   23MOL   H127 8091   0.598   6.125   3.291  0.1074 -0.2363  1.1207
   23MOL   C128 8092   1.044   6.416   3.418  0.1720 -0.1443  0.1370
   23MOL   C129 8093   1.063   6.566   3.450 -0.5523 -0.5458  0.1019
   23MOL   C130 8094   0.935   6.625   3.508  0.0263 -0.2404 -0.4966
   23MOL   C131 8095   0.945   6.697   3.638 -1.1135 -0.2406  0.4948
   23MOL   C132 8096   0.807   6.718   3.706  0.0633 -0.2289  0.3280
   23MOL   C133 8097   0.725   6.821   3.629  0.0090  0.0776 -0.1809
   23MOL   H134 8098   0.943   6.420   3.377 -0.4707 -0.6254  1.6556
   23MOL   H135 8099   1.121   6.375   3.352 -1.1538  1.4503 -2.5136
   23MOL   H136 8100   1.140   6.568   3.528  0.0637 -0.8346 -0.4975
   23MOL   H137 8101   0.895   6.699   3.439  0.5629 -0.0440 -0.6040
   23MOL   H138 8102   0.851   6.559   3.529 -1.6344  2.0488  0.2443
   23MOL   H139 8103   0.996   6.792   3.621  0.5487 -1.4534 -1.5884
   23MOL   H140 8104   1.005   6.635   3.705 -0.0830  1.2915  1.0096
   23MOL   H141 8105   0.746   6.629   3.721  0.6624 -0.1036  3.7441
   23MOL   H142 8106   0.817   6.767   3.802  0.8292 -1.5642  0.9398
   23MOL   H143 8107   0.778   6.912   3.600 -0.4361  0.2174 -0.5642
   23MOL   H144 8108   0.642   6.857   3.689  0.2305  2.4840 -1.2622
   23MOL   H145 8109   0.670   6.775   3.547  1.2979 -0.4245 -0.7894
   23MOL   C146 8110   1.133   6.640   3.332  0.4878 -0.6825  0.1287
   23MOL   C147 8111   1.175   6.789   3.357  0.3528 -0.3409 -0.2115
   23MOL   C148 8112   1.170   6.881   3.232 -0.4740  0.2911  0.3359
   23MOL   C149 8113   1.031   6.908   3.165  0.1300  0.7895 -0.3920
   23MOL   C150 8114   1.026   7.012   3.056  0.2958 -0.3185  0.1618
   23MOL   C151 8115   1.075   7.147   3.092  0.2843  0.8660  0.1125
   23MOL   H152 8116   1.222   6.582   3.304  1.2841  0.4009  0.4005
   23MOL   H153 8117   1.060   6.631   3.253  1.1239 -1.7345 -0.3560
   23MOL   H154 8118   1.099   6.827   3.425 -1.4731 -1.1583 -1.7432
   23MOL   H155 8119   1.233   6.823   3.165 -0.2728 -0.6066  1.2826
   23MOL   H156 8120   1.213   6.979   3.255 -0.4102  0.7237 -1.6088
   23MOL   H157 8121   0.988   6.817   3.125 -2.1412  1.1687  1.0981
   23MOL   H158 8122   0.968   6.943   3.247 -0.7784 -0.9295 -0.3273
   23MOL   H159 8123   0.921   7.022   3.026  0.7336 -1.7970 -1.9774
   23MOL   H160 8124   1.077   6.980   2.965  1.1235 -2.6379  1.4055
   23MOL   H161 8125   1.029   7.189   3.181  1.6918  0.6655  0.9593
   23MOL   H162 8126   1.184   7.150   3.104  0.2810 -1.1538  0.7982
   23MOL   H163 8127   1.046   7.211   3.008 -3.1614 -1.3853 -0.5039
   23MOL   C164 8128   1.322   6.772   3.423  0.4489  0.2641  0.5779
   23MOL   C165 8129   1.368   6.900   3.497 -0.0884 -0.2897 -0.4900
   23MOL   C166 8130   1.279   6.934   3.611  0.9126  0.4440 -0.4780
   23MOL   C167 8131   1.316   6.845   3.734 -0.3384 -0.5093 -0.7090
   23MOL   C168 8132   1.243   6.896   3.862  0.4728  0.2880  0.7530
   23MOL   C169 8133   1.299   7.016   3.921  0.2036 -0.1306 -0.5697
   23MOL   H170 8134   1.318   6.693   3.498 -1.1144  0.0284  0.2803
   23MOL   H171 8135   1.388   6.734   3.345 -1.5251  0.0159 -1.0185
   23MOL   H172 8136   1.341   6.988   3.438  0.0256  0.4949  0.6246
   23MOL   H173 8137   1.174   6.948   3.582  0.9351  0.4703 -0.5474
   23MOL   H174 8138   1.310   7.037   3.627 -0.1594  0.8403 -0.8835
   23MOL   H175 8139   1.424   6.845   3.748 -0.2921  0.5565 -0.9902
   23MOL   H176 8140   1.274   6.745   3.726 -1.1661 -0.1896 -0.4445
   23MOL   H177 8141   1.258   6.815   3.934  0.5096 -0.9548 -0.6355
   23MOL   H178 8142   1.136   6.907   3.846  0.6463  1.9507  0.6498
   23MOL   H179 8143   1.247   7.089   3.860 -0.9774 -1.4989 -1.2220
   23MOL   H180 8144   1.408   7.025   3.921  0.2235 -0.2286  0.9739
   23MOL   H181 8145   1.273   7.029   4.026  1.6516 -3.5169  0.2580
   23MOL   C182 8146   1.521   6.908   3.536  0.1530 -0.0827  0.0136
   23MOL   C183 8147   1.604   6.985   3.429  0.1657 -1.5986 -0.8118
   23MOL   C184 8148   1.565   6.946   3.282 -0.2026  0.0650 -0.7886
   23MOL   C185 8149   1.622   7.025   3.168 -0.2285  0.3988  0.1354
   23MOL   C186 8150   1.565   6.975   3.038  0.4200  0.1646 -0.5130
   23MOL   C187 8151   1.428   7.026   2.995 -0.0629 -0.1852 -0.1170
   23MOL   H188 8152   1.527   6.961   3.631 -1.7489  0.3790 -0.0936
   23MOL   H189 8153   1.553   6.806   3.556  1.0691 -0.1280 -1.6202
   23MOL   H190 8154   1.582   7.092   3.435  1.7913 -1.3317  0.9065
   23MOL   H191 8155   1.584   6.839   3.272  0.1441  0.0752 -0.2727
   23MOL   H192 8156   1.457   6.951   3.268 -0.5997 -1.8155  1.2326
   23MOL   H193 8157   1.729   7.012   3.150 -0.4126  0.3204 -0.9259
   23MOL   H194 8158   1.609   7.133   3.167  1.7233  0.6587 -0.4486
   23MOL   H195 8159   1.572   6.867   3.043 -1.7959  0.0051 -0.1511
   23MOL   H196 8160   1.632   7.003   2.957  0.9056 -2.6685 -1.1245
   23MOL   H197 8161   1.423   6.984   2.895 -0.7509  1.7752 -0.9308
   23MOL   H198 8162   1.442   7.133   2.987  2.8562 -0.6077 -1.1119
   23MOL   H199 8163   1.334   6.997   3.042 -0.5868  0.9557 -0.4487
   23MOL   C200 8164   1.752   6.974   3.453  0.1414 -1.6062 -0.0551
   23MOL   C201 8165   1.801   7.036   3.591  0.5824 -0.9669 -0.2554
   23MOL   C202 8166   1.940   6.990   3.628  0.5874 -0.6981 -0.6109
   23MOL   C203 8167   1.951   6.831   3.646 -0.0589  0.3264  0.0429
   23MOL   C204 8168   2.077   6.787   3.722  0.0549  0.2513 -0.3840
   23MOL   C205 8169   2.074   6.642   3.751  0.3203 -0.1766 -0.4481
   23MOL   H206 8170   1.807   7.026   3.375  0.2056 -2.3856 -0.5312
   23MOL   H207 8171   1.783   6.870   3.449  2.1959 -1.1069  1.7164
   23MOL   H208 8172   1.729   6.993   3.661  0.9207  0.4332  0.9891
   23MOL   H209 8173   1.969   7.024   3.727 -0.0221  0.5934 -0.8597
   23MOL   H210 8174   2.013   7.028   3.557 -0.1088  1.1022 -0.3880
   23MOL   H211 8175   1.966   6.778   3.551 -1.9166  0.4865 -0.3734
   23MOL   H212 8176   1.873   6.779   3.701  0.9292 -0.3645  0.8019
   23MOL   H213 8177   2.083   6.846   3.814  1.0421 -0.2459 -0.1236
   23MOL   H214 8178   2.166   6.823   3.671 -0.5939  1.7697 -0.4834
   23MOL   H215 8179   1.980   6.623   3.802  0.8730 -0.6298  0.3933
   23MOL   H216 8180   2.079   6.586   3.657 -1.1534  0.5952 -0.9953
   23MOL   H217 8181   2.158   6.624   3.818 -0.8838 -1.8695  0.6480
   23MOL   C218 8182   1.787   7.192   3.603 -0.3041 -0.1451 -0.0574
   23MOL   C219 8183   1.867   7.291   3.505 -0.4649  0.1227 -0.7526
   23MOL   C220 8184   1.908   7.418   3.574 -0.0182  0.9079  1.0630
   23MOL   C221 8185   2.023   7.399   3.681  0.7248 -0.1005 -0.2743
   23MOL   C222 8186   2.171   7.381   3.632  0.1069 -0.3401 -0.7262
   23MOL   C223 8187   2.262   7.349   3.755 -0.3802 -0.4213 -0.1885
   23MOL   H224 8188   1.680   7.212   3.610 -0.2390 -0.3293  1.9754
   23MOL   H225 8189   1.823   7.213   3.704  1.2761 -0.5526 -0.5181
   23MOL   H226 8190   1.958   7.243   3.469  1.3239  1.8766  1.3006
   23MOL   H227 8191   1.818   7.470   3.608 -0.7779  0.4581 -0.2414
   23MOL   H228 8192   1.943   7.486   3.497 -0.0883 -0.7822 -0.4958
   23MOL   H229 8193   1.996   7.320   3.751  1.5385 -0.3674 -0.2609
   23MOL   H230 8194   2.011   7.490   3.741 -3.3154 -2.1624  2.2507
   23MOL   H231 8195   2.175   7.313   3.547  1.3423 -1.2887  0.0674
   23MOL   H232 8196   2.204   7.478   3.593  0.0167  0.1972  0.5060
   23MOL   H233 8197   2.346   7.286   3.724 -0.3960  0.3206 -1.7596
   23MOL   H234 8198   2.215   7.283   3.827  1.0494 -1.7976 -0.4887
   23MOL   H235 8199   2.314   7.437   3.794  2.1706 -1.8769 -0.2159
   23MOL   C236 8200   1.783   7.321   3.383  0.6554 -0.4967  0.1703
   23MOL   C237 8201   1.863   7.375   3.253 -0.8082  0.2653  0.3008
   23MOL   C238 8202   1.776   7.393   3.118 -0.6457  0.0122 -0.2240
   23MOL   C239 8203   1.630   7.438   3.140  0.1849 -0.7792  0.2543
   23MOL   C240 8204   1.540   7.465   3.004 -0.5851 -0.7149  0.2869
   23MOL   C241 8205   1.615   7.554   2.908  0.0278 -0.2186 -0.2075
   23MOL   H242 8206   1.727   7.230   3.361 -1.0968  0.6781 -0.3434
   23MOL   H243 8207   1.711   7.396   3.415  1.9943  0.0584  1.9526
   23MOL   H244 8208   1.882   7.475   3.291 -0.6923  0.6822 -0.8351
   23MOL   H245 8209   1.825   7.471   3.060 -1.5092 -0.2044 -1.2700
   23MOL   H246 8210   1.769   7.301   3.059 -0.9981 -0.3434  0.3671
   23MOL   H247 8211   1.635   7.528   3.202  0.3778 -1.0329  0.6151
   23MOL   H248 8212   1.580   7.369   3.208  2.4580 -1.7669  0.9794
   23MOL   H249 8213   1.514   7.371   2.954 -0.2987 -0.8418  0.3724
   23MOL   H250 8214   1.452   7.524   3.029 -1.0626  0.2247 -3.3195
   23MOL   H251 8215   1.549   7.585   2.826  0.0767  1.4996  0.3943
   23MOL   H252 8216   1.643   7.648   2.954  2.4210 -1.2492  0.5123
   23MOL   H253 8217   1.695   7.494   2.864 -0.1059 -0.1346 -0.5696
   23MOL   C254 8218   2.005   7.306   3.220 -0.4576  0.4167  0.6822
   23MOL   C255 8219   2.084   7.334   3.091 -0.8767 -0.0958 -0.3811
   23MOL   C256 8220   2.217   7.262   3.082 -0.3333  1.1106  0.2497
   23MOL   C257 8221   2.209   7.110   3.051  0.3273 -0.3725 -0.5469
   23MOL   C258 8222   2.335   7.057   2.989  0.5173 -0.5630  0.0350
   23MOL   C259 8223   2.337   6.911   2.935 -0.2507 -0.8035 -0.5790
   23MOL   H260 8224   1.986   7.199   3.213  3.0841 -0.1775 -1.3742
   23MOL   H261 8225   2.073   7.311   3.305  1.1556 -0.0405 -0.5549
   23MOL   H262 8226   2.017   7.306   3.010  0.7790  3.0594 -2.9763
   23MOL   H263 8227   2.275   7.312   3.004 -0.5668  2.9472  1.2025
   23MOL   H264 8228   2.280   7.273   3.170  1.1389 -0.0367 -0.6384
   23MOL   H265 8229   2.178   7.058   3.141  2.7554  0.5828  0.8664
   23MOL   H266 8230   2.136   7.089   2.972  1.6935 -2.3365 -1.3325
   23MOL   H267 8231   2.412   7.063   3.065 -1.4231  0.9383  1.9715
   23MOL   H268 8232   2.379   7.120   2.912  0.5977  0.7669  1.1514
   23MOL   H269 8233   2.438   6.878   2.910  1.2629  2.8416  0.3711
   23MOL   H270 8234   2.268   6.909   2.851 -0.7366 -0.1194 -0.2077
   23MOL   H271 8235   2.294   6.847   3.013  2.2401 -1.2878  0.4295
   23MOL   C272 8236   2.113   7.490   3.077  0.6946  0.0896 -0.2279
   23MOL   C273 8237   2.132   7.553   2.938 -0.1179  0.5699 -0.0811
   23MOL   C274 8238   2.222   7.687   2.945  0.2360  0.2737  0.2661
   23MOL   C275 8239   2.152   0.084   3.007 -0.4842 -0.0227 -0.0337
   23MOL   C276 8240   2.247   0.206   3.013 -0.0327  0.1954 -0.1173
   23MOL   C277 8241   2.298   0.256   2.879  0.4035  0.4017  0.9629
   23MOL   H278 8242   2.036   7.549   3.127 -0.3116 -1.0873 -0.3744
   23MOL   H279 8243   2.206   7.509   3.130 -0.1989  0.3120  1.2850
   23MOL   H280 8244   2.190   7.488   2.873 -1.3562 -0.8107  0.1611
   23MOL   H281 8245   2.257   7.701   2.843  1.8693 -1.1042  0.6087
   23MOL   H282 8246   2.317   7.673   2.995  0.4706 -0.2531 -0.3171
   23MOL   H283 8247   2.116   0.055   3.105 -0.0570  0.3194  0.2250
   23MOL   H284 8248   2.063   0.108   2.948 -1.5869 -1.6454  0.9243
   23MOL   H285 8249   2.206   0.295   3.061  0.6617  0.2234  0.4354
   23MOL   H286 8250   2.333   0.183   3.077 -0.6912 -2.3287 -0.0859
   23MOL   H287 8251   2.324   0.171   2.816 -0.6099  0.6045  0.2556
   23MOL   H288 8252   2.221   0.319   2.834  0.0636 -1.5201 -1.2480
   23MOL   H289 8253   2.395   0.304   2.893  0.9737 -0.8519  1.3851
   23MOL   C290 8254   2.010   7.559   2.849 -0.7499  0.1485 -0.1679
   23MOL   C291 8255   2.029   7.583   2.689  0.5230 -0.2818 -1.2758
   23MOL   C292 8256   2.028   7.457   2.607 -0.5176 -0.1708  0.2262
   23MOL   C293 8257   2.119   7.345   2.655  0.0398  0.1546 -0.0912
   23MOL   C294 8258   2.129   7.222   2.553  0.4956 -0.2143 -0.6045
   23MOL   C295 8259   2.225   7.111   2.604 -0.2945  0.8310  0.4874
   23MOL   H296 8260   1.942   7.634   2.888  1.7658  1.7244  1.2743
   23MOL   H297 8261   1.943   7.475   2.868 -1.3930  0.8028  0.4960
   23MOL   H298 8262   2.127   7.630   2.676  0.2541  0.6031 -0.1888
   23MOL   H299 8263   2.058   7.483   2.506 -0.9111  1.1230  0.4394
   23MOL   H300 8264   1.926   7.421   2.595 -1.1751  0.6980  2.7993
   23MOL   H301 8265   2.222   7.380   2.662 -0.2872  1.3130 -1.0127
   23MOL   H302 8266   2.080   7.311   2.751  0.7773  0.9609  0.5001
   23MOL   H303 8267   2.153   7.258   2.453  0.5587 -0.9756 -0.8629
   23MOL   H304 8268   2.027   7.184   2.553  0.4523 -0.1035 -1.1456
   23MOL   H305 8269   2.325   7.155   2.608 -0.0454  0.3858 -0.5272
   23MOL   H306 8270   2.230   7.018   2.546  0.5301  0.3802  1.2521
   23MOL   H307 8271   2.203   7.093   2.709 -0.1079  1.0663  0.5669
   23MOL   C308 8272   1.917   7.668   2.631 -0.6082 -0.1771 -0.3365
   23MOL   C309 8273   1.935   0.092   2.646  0.1228  0.7594 -0.5335
   23MOL   C310 8274   1.812   0.164   2.592 -0.1500 -0.3195 -0.3214
   23MOL   C311 8275   1.681   0.136   2.658  0.1584  0.0501  0.6788
   23MOL   C312 8276   1.559   0.201   2.588 -0.1517 -0.0375  0.3386
   23MOL   C313 8277   1.425   0.164   2.660  0.4069 -0.2783 -0.1706
   23MOL   H314 8278   1.913   7.655   2.523 -2.5098  3.4308 -0.8034
   23MOL   H315 8279   1.828   7.630   2.682  0.0807 -0.4581  0.6604
   23MOL   H316 8280   1.933   0.115   2.753 -1.4241  1.1634 -0.6430
   23MOL   H317 8281   1.800   0.137   2.487 -1.0483  2.6031 -1.0254
   23MOL   H318 8282   1.826   0.272   2.600 -2.3358 -0.0170 -0.1486
   23MOL   H319 8283   1.682   0.158   2.765 -1.0949  0.1296  0.6823
   23MOL   H320 8284   1.658   0.030   2.649 -0.1151 -0.0042  1.9327
   23MOL   H321 8285   1.575   0.308   2.583 -0.0335 -0.0795 -0.3104
   23MOL   H322 8286   1.562   0.163   2.485 -2.3428  0.5869  0.0219
   23MOL   H323 8287   1.406   0.056   2.655  1.4275 -0.7150  3.4175
   23MOL   H324 8288   1.358   0.224   2.599  1.5284 -0.6797 -1.8327
   23MOL   H325 8289   1.423   0.203   2.762  1.5908  3.3530 -1.4683
   23MOL   C326 8290   2.072   0.157   2.603 -0.1297  0.1721 -0.3629
   23MOL   C327 8291   2.093   0.197   2.457  0.4085  0.2855  0.4209
   23MOL   C328 8292   2.206   0.301   2.440  0.2781 -0.3184 -0.6831
   23MOL   C329 8293   2.351   0.248   2.446 -0.3972 -0.2548  0.0536
   23MOL   C330 8294   2.455   0.360   2.460  0.6053  0.2692 -0.5574
   23MOL   C331 8295   2.446   0.458   2.573  0.0815 -1.0491 -0.0443
   23MOL   H332 8296   2.158   0.100   2.637 -1.0151 -0.9598  0.0450
   23MOL   H333 8297   2.072   0.250   2.660  1.6416  0.4272 -0.7641
   23MOL   H334 8298   1.999   0.241   2.423 -0.8147 -2.5448 -0.0696
   23MOL   H335 8299   2.197   0.333   2.336 -1.2435 -1.5129 -0.9426
   23MOL   H336 8300   2.179   0.376   2.514  1.5837 -1.0252  0.5358
   23MOL   H337 8301   2.357   0.189   2.355 -2.1832  0.5871 -0.6282
   23MOL   H338 8302   2.372   0.173   2.523  2.9417 -0.2154 -0.7261
   23MOL   H339 8303   2.546   0.301   2.475  0.6860  0.7727  1.0937
   23MOL   H340 8304   2.456   0.412   2.364  0.6072  1.1286 -0.0980
   23MOL   H341 8305   2.483   0.408   2.662  1.4838 -0.4079 -0.2556
   23MOL   H342 8306   2.350   0.505   2.596  0.5182  0.9641 -2.1461
   23MOL   H343 8307   2.522   0.535   2.560 -0.7576 -0.1045  0.5643
   23MOL   C344 8308   2.121   0.076   2.370  0.0837  0.0652 -0.7210
   23MOL   C345 8309   2.108   0.093   2.222 -0.3889  1.3075  0.3931
   23MOL   C346 8310   2.077   7.683   2.154  0.3359 -0.4627 -0.0202
   23MOL   C347 8311   1.923   7.652   2.158  0.7329  0.6935 -0.4906
   23MOL   C348 8312   1.882   7.508   2.118 -1.1607  0.0165  0.8085
   23MOL   C349 8313   1.946   7.389   2.194 -0.0869 -0.0763 -0.2701
   23MOL   H350 8314   2.224   0.045   2.390 -0.7956 -0.1968  4.1592
   23MOL   H351 8315   2.063   7.717   2.400  0.1448  0.9118  2.0085
   23MOL   H352 8316   2.190   0.134   2.164  0.4576 -1.1481 -0.1992
   23MOL   H353 8317   2.107   7.681   2.049  0.1020 -0.2738 -0.0922
   23MOL   H354 8318   2.128   7.595   2.193  0.9459  0.1508  0.5832
   23MOL   H355 8319   1.885   7.658   2.260 -2.2618 -1.9420 -1.3761
   23MOL   H356 8320   1.855   0.000   2.117 -0.2144  2.0091  3.3078
   23MOL   H357 8321   1.776   7.496   2.138 -1.3402  0.2100 -0.0061
   23MOL   H358 8322   1.879   7.483   2.012 -1.7240 -0.4863  0.9413
   23MOL   H359 8323   1.876   7.306   2.187  0.3828 -0.5249  0.2752
   23MOL   H360 8324   2.050   7.359   2.180  0.2214  1.0692 -0.5077
   23MOL   H361 8325   1.936   7.412   2.301 -0.1039 -0.3873 -0.2039
   23MOL   H362 8326   2.023   0.156   2.192 -0.2894  0.7549 -1.1080
   24MOL     C1 8327   5.791   5.386   0.736  0.1816 -0.3192 -0.0406
   24MOL     C2 8328   5.696   5.295   0.656  0.3233  0.1403  0.5310
   24MOL     C3 8329   5.692   5.150   0.707  0.5487 -0.1370  0.3460
   24MOL     C4 8330   5.641   5.129   0.857 -0.1516 -0.6911 -0.4464
   24MOL     C5 8331   5.648   4.992   0.913 -0.3186  0.3327  0.0041
   24MOL     C6 8332   5.591   4.965   1.047  0.3614 -0.5126 -0.1031
   24MOL     H7 8333   5.755   5.383   0.839 -2.0386  0.8479 -0.7265
   24MOL     H8 8334   5.892   5.347   0.733  0.6349  0.5885  2.2591
   24MOL     H9 8335   5.590   5.323   0.659  0.1296 -0.5526  0.2429
   24MOL    H10 8336   5.795   5.117   0.703  0.4569 -0.6493  1.9433
   24MOL    H11 8337   5.636   5.083   0.642 -0.1007 -0.6565  1.4306
   24MOL    H12 8338   5.543   5.176   0.866  1.0376  1.8171 -0.1668
   24MOL    H13 8339   5.703   5.195   0.917  1.4025 -2.7474  0.2545
   24MOL    H14 8340   5.601   4.925   0.840 -0.2561  0.2013  0.0842
   24MOL    H15 8341   5.752   4.960   0.911 -0.2330  0.5495  1.0405
   24MOL    H16 8342   5.581   4.857   1.058 -1.5684 -0.4052 -0.5939
   24MOL    H17 8343   5.485   4.991   1.042  0.6517  1.2008  2.1481
   24MOL    H18 8344   5.642   5.017   1.127  2.4812 -0.9851 -1.0995
   24MOL    H19 8345   5.778   5.490   0.703  1.9017 -0.1475 -0.2240
   24MOL    C20 8346   5.735   5.288   0.507  0.1470 -0.0421  0.4755
   24MOL    C21 8347   5.610   5.283   0.420  0.4336 -0.6448 -0.1681
   24MOL    C22 8348   5.549   5.426   0.400  0.8743 -0.2159  0.2879
   24MOL    C23 8349   5.600   5.513   0.280 -0.1211  0.4347 -0.3096
   24MOL    C24 8350   5.552   5.656   0.292  0.4863 -0.6329 -0.0893
   24MOL    C25 8351   5.404   5.686   0.274  0.5632 -0.0864  0.7450
   24MOL    H26 8352   5.802   5.204   0.487  3.1724  2.3472  0.1318
   24MOL    H27 8353   5.797   5.375   0.485  0.2189 -0.3935 -0.7425
   24MOL    H28 8354   5.545   5.228   0.488  0.5268  0.1698  0.5939
   24MOL    H29 8355   5.581   5.474   0.493 -1.0460 -0.8381  1.2941
   24MOL    H30 8356   5.441   5.413   0.407  0.6760  1.3803  0.4673
   24MOL    H31 8357   5.566   5.470   0.186 -2.1550 -0.4059  0.7749
   24MOL    H32 8358   5.709   5.516   0.274 -0.0659 -0.0888  0.3579
   24MOL    H33 8359   5.582   5.691   0.391  1.6422 -0.5451 -0.4556
   24MOL    H34 8360   5.615   5.711   0.221 -0.5597 -0.4855 -0.9097
   24MOL    H35 8361   5.391   5.794   0.275 -1.4710 -0.3205  0.4009
   24MOL    H36 8362   5.378   5.653   0.174  0.7010  0.8604  0.3912
   24MOL    H37 8363   5.345   5.626   0.344  2.2365 -2.7807 -0.0661
   24MOL    C38 8364   5.625   5.200   0.284 -0.0806 -0.6553 -0.2788
   24MOL    C39 8365   5.506   5.197   0.192  0.3334 -0.8372 -0.0154
   24MOL    C40 8366   5.548   5.172   0.035  0.0773  0.0158  0.0845
   24MOL    C41 8367   5.621   5.292   7.697 -0.3051  0.0180 -0.2627
   24MOL    C42 8368   5.648   5.278   7.553  1.0106  0.0221 -0.9690
   24MOL    C43 8369   5.525   5.305   7.468 -0.0275  0.0993 -0.4917
   24MOL    H44 8370   5.678   5.108   0.306 -0.9883 -1.8711 -2.9692
   24MOL    H45 8371   5.701   5.259   0.233 -0.1648 -0.0625  0.2686
   24MOL    H46 8372   5.462   5.297   0.192  1.3464 -0.3468  2.4734
   24MOL    H47 8373   5.608   5.081   0.026 -0.9115 -0.5985 -0.4615
   24MOL    H48 8374   5.456   5.153   7.706 -0.2869  0.4316  0.5363
   24MOL    H49 8375   5.576   5.389   7.718  0.5341  0.7164 -1.6489
   24MOL    H50 8376   5.722   5.301   0.010 -0.0050 -0.3566 -0.9397
   24MOL    H51 8377   5.721   5.355   7.528  0.1411  0.7660 -1.2457
   24MOL    H52 8378   5.699   5.182   7.540 -1.0626 -1.3789  0.8533
   24MOL    H53 8379   5.539   5.278   7.363  0.9049 -1.0167 -0.0796
   24MOL    H54 8380   5.482   5.406   7.466 -0.8925 -0.2833 -2.2399
   24MOL    H55 8381   5.449   5.236   7.506  0.6927  0.4856  1.7135
   24MOL    C56 8382   5.397   5.092   0.241  0.9176 -0.0461 -0.5887
   24MOL    C57 8383   5.249   5.109   0.182  0.3541 -0.8906  0.1806
   24MOL    C58 8384   5.189   5.252   0.191 -0.0734  0.1731  0.4938
   24MOL    C59 8385   5.131   5.305   0.316 -0.5470 -0.2307  0.1588
   24MOL    C60 8386   5.075   5.450   0.300 -0.0393  0.2389 -0.5579
   24MOL    C61 8387   4.940   5.467   0.371 -1.1449 -0.8450  0.5762
   24MOL    H62 8388   5.440   4.998   0.207  1.1893  0.0433 -0.4885
   24MOL    H63 8389   5.395   5.080   0.349  3.0116 -1.2116 -0.6645
   24MOL    H64 8390   5.253   5.102   0.073  0.5800 -1.3093  0.2133
   24MOL    H65 8391   5.257   5.333   0.163  1.2309 -0.7894  0.8224
   24MOL    H66 8392   5.107   5.258   0.120  0.9794 -0.4834 -0.7895
   24MOL    H67 8393   5.211   5.307   0.390  0.3941 -1.5780 -0.8057
   24MOL    H68 8394   5.057   5.239   0.362  0.7777 -0.8373  1.4517
   24MOL    H69 8395   5.143   5.531   0.326  0.6648 -1.3227  2.6606
   24MOL    H70 8396   5.069   5.471   0.193  0.5956 -4.3252 -1.6107
   24MOL    H71 8397   4.880   5.379   0.348  0.8287 -2.2893  0.7632
   24MOL    H72 8398   4.943   5.496   0.476 -1.1138 -2.2949  0.9826
   24MOL    H73 8399   4.903   5.560   0.328  1.4560 -0.4815 -1.0126
   24MOL    C74 8400   5.153   4.997   0.225  0.0175  0.2045  0.0974
   24MOL    C75 8401   5.198   4.853   0.182  0.7615 -0.0978 -0.6250
   24MOL    C76 8402   5.099   4.749   0.235  0.4863  0.6296 -0.0811
   24MOL    C77 8403   5.085   4.723   0.389  1.4422 -0.4498 -0.1811
   24MOL    C78 8404   4.970   4.629   0.419  0.7646  0.7450  0.3502
   24MOL    C79 8405   4.963   4.594   0.572 -0.0378 -0.2018  0.1416
   24MOL    H80 8406   5.140   5.005   0.333 -0.1570 -0.1690  0.1072
   24MOL    H81 8407   5.053   5.007   0.182  0.6919 -1.5653 -2.0099
   24MOL    H82 8408   5.291   4.829   0.235  1.1013  1.4867 -0.4925
   24MOL    H83 8409   5.003   4.784   0.197  0.1583  1.7748  1.7428
   24MOL    H84 8410   5.117   4.654   0.185  0.0406  0.4535  0.0840
   24MOL    H85 8411   5.174   4.672   0.427  0.8689 -0.0323  1.8041
   24MOL    H86 8412   5.075   4.819   0.441  1.0480  0.5026 -1.9935
   24MOL    H87 8413   4.980   4.532   0.368 -0.0691  0.5281  0.5982
   24MOL    H88 8414   4.882   4.672   0.371  1.3375  1.1080 -0.3909
   24MOL    H89 8415   4.869   4.546   0.595 -0.0982  0.3008  0.9737
   24MOL    H90 8416   5.034   4.520   0.608 -0.2436  0.2393  1.4540
   24MOL    H91 8417   4.978   4.676   0.643  0.4731  0.6154 -0.8729
   24MOL    C92 8418   5.226   4.835   0.030 -0.4061  0.6512 -0.5408
   24MOL    C93 8419   5.107   4.868   7.654  0.1820 -1.0917  0.3652
   24MOL    C94 8420   5.175   4.935   7.529  0.2113  0.9277  1.0818
   24MOL    C95 8421   5.238   4.827   7.443  0.0353 -0.4518 -0.5030
   24MOL    C96 8422   5.331   4.878   7.330 -0.0735 -0.3138  0.6784
   24MOL    C97 8423   5.477   4.878   7.375  0.0347 -0.0608  0.2841
   24MOL    H98 8424   5.307   4.900   0.000  0.5454 -0.8967 -1.4186
   24MOL    H99 8425   5.253   4.731   0.012 -1.0081  0.8046 -2.4941
   24MOL   H100 8426   5.057   4.955   7.694  0.4257 -1.1207  0.7364
   24MOL   H101 8427   5.244   5.011   7.566  1.0841 -0.3592  2.1176
   24MOL   H102 8428   5.100   4.989   7.471 -0.7160 -0.9928  0.4658
   24MOL   H103 8429   5.294   4.748   7.492 -0.3835 -2.0500 -2.5179
   24MOL   H104 8430   5.155   4.794   7.380  0.4776 -0.9420 -0.8260
   24MOL   H105 8431   5.332   4.803   7.251  0.4142  2.4702 -2.0712
   24MOL   H106 8432   5.296   4.968   7.278  0.9368 -0.6827 -0.6617
   24MOL   H107 8433   5.537   4.895   7.286 -0.8121  2.0097  0.0899
   24MOL   H108 8434   5.497   4.951   7.454 -2.2763  2.5666 -1.4415
   24MOL   H109 8435   5.520   4.782   7.404 -0.0900 -0.2416 -0.1271
   24MOL   C110 8436   5.003   4.754   7.635 -0.6179 -0.8043  0.0495
   24MOL   C111 8437   4.871   4.808   7.579  0.1756 -0.2247  0.2366
   24MOL   C112 8438   4.787   4.881   7.692  0.4525 -0.5218 -0.0866
   24MOL   C113 8439   4.687   4.985   7.640 -0.2901 -0.3324 -0.2950
   24MOL   C114 8440   4.606   5.049   0.025 -0.6763  0.4686 -0.2195
   24MOL   C115 8441   4.486   5.130   7.700 -0.1288  0.3245 -0.0826
   24MOL   H116 8442   5.050   4.673   7.579  1.8134  0.8901 -0.4114
   24MOL   H117 8443   4.984   4.706   0.005 -1.5410 -2.6598 -1.0241
   24MOL   H118 8444   4.882   4.879   7.496  1.8499 -1.6689 -0.8196
   24MOL   H119 8445   4.849   4.932   0.039 -0.6233  0.3101  0.2548
   24MOL   H120 8446   4.735   4.803   0.020  0.6024 -1.0731 -0.7301
   24MOL   H121 8447   4.627   4.932   7.566  1.8409 -0.2506 -2.1194
   24MOL   H122 8448   4.742   5.066   7.592 -0.2653  0.6382  1.3463
   24MOL   H123 8449   4.665   5.115   0.088 -0.2221  2.9808 -3.2003
   24MOL   H124 8450   4.566   4.970   0.090 -0.8049  1.1049  0.4860
   24MOL   H125 8451   4.440   5.198   0.045  0.1308  0.1392  0.2628
   24MOL   H126 8452   4.520   5.204   7.628  1.2541 -1.5827 -1.4257
   24MOL   H127 8453   4.416   5.062   7.652  0.2231 -1.9519  2.4628
   24MOL   C128 8454   4.778   4.697   7.509  0.2382  0.0750  0.1205
   24MOL   C129 8455   4.834   4.633   7.376  0.0452  0.2852 -0.3692
   24MOL   C130 8456   4.821   4.742   7.265  0.3608 -0.4258 -0.4254
   24MOL   C131 8457   4.934   4.725   7.165 -0.6524 -0.0254 -0.7829
   24MOL   C132 8458   4.968   4.850   7.088  0.0577 -0.5749  0.1961
   24MOL   C133 8459   4.848   4.929   7.027  0.1238  0.6100 -0.1748
   24MOL   H134 8460   4.679   4.734   7.482  0.9216  2.5392  0.8005
   24MOL   H135 8461   4.764   4.614   7.578  1.5408 -0.8394 -0.6986
   24MOL   H136 8462   4.939   4.607   7.389 -0.6350 -0.8140  3.7539
   24MOL   H137 8463   4.723   4.734   7.217 -0.1163 -1.7049  0.6968
   24MOL   H138 8464   4.820   4.842   7.309 -0.4081  0.0501 -1.5210
   24MOL   H139 8465   4.895   4.655   7.091  0.1872 -0.7826 -0.5148
   24MOL   H140 8466   5.024   4.687   7.213  0.5945  0.7001 -2.4822
   24MOL   H141 8467   5.013   4.927   7.151 -0.2780  0.9382 -1.3730
   24MOL   H142 8468   5.040   4.824   7.010  0.7864  0.0230  0.6554
   24MOL   H143 8469   4.873   5.015   6.965  1.3027  0.6369  0.3348
   24MOL   H144 8470   4.778   4.969   7.101  0.7917 -0.6989  1.1800
   24MOL   H145 8471   4.793   4.859   6.964  0.0980  0.2379  0.2590
   24MOL   C146 8472   4.769   4.499   7.349 -0.0387 -0.0701 -0.7898
   24MOL   C147 8473   4.847   4.409   7.245 -0.1008 -0.3630  0.0536
   24MOL   C148 8474   4.742   4.332   7.156  0.0416  0.5742  0.1997
   24MOL   C149 8475   4.648   4.239   7.230 -0.3721 -1.0393  0.5657
   24MOL   C150 8476   4.558   4.163   7.128  0.5526  0.2429  0.4378
   24MOL   C151 8477   4.439   4.091   7.181 -0.8305  0.7579  0.0333
   24MOL   H152 8478   4.757   4.450   7.446  1.8502 -1.7593 -1.3850
   24MOL   H153 8479   4.667   4.509   7.312  0.3299  0.1325 -1.7671
   24MOL   H154 8480   4.909   4.463   7.175 -0.9484  0.6654  0.0873
   24MOL   H155 8481   4.797   4.276   7.080 -0.5509  1.7357 -1.1338
   24MOL   H156 8482   4.685   4.406   7.099 -1.8638 -0.3298  0.9242
   24MOL   H157 8483   4.713   4.176   7.291  1.3293  1.8540  1.8256
   24MOL   H158 8484   4.595   4.303   7.300 -0.8457  0.0747 -0.7957
   24MOL   H159 8485   4.625   4.102   7.068  0.2602  1.5947 -1.2983
   24MOL   H160 8486   4.521   4.233   7.052  1.4131 -1.0701 -1.2084
   24MOL   H161 8487   4.468   4.015   7.253  1.1477  0.1276 -1.3945
   24MOL   H162 8488   4.369   4.160   7.230 -1.3121 -0.1650  0.6593
   24MOL   H163 8489   4.392   4.038   7.098 -2.4693 -0.3596  1.6490
   24MOL   C164 8490   4.933   4.317   7.333  0.3227  0.5621 -0.0157
   24MOL   C165 8491   5.027   4.212   7.270 -0.7129 -0.3274 -0.0284
   24MOL   C166 8492   5.108   4.271   7.157  0.4339  0.9561  0.6010
   24MOL   C167 8493   5.211   4.376   7.189 -0.3039  0.2780  0.6763
   24MOL   C168 8494   5.276   4.449   7.067 -0.5312 -0.2582 -0.4036
   24MOL   C169 8495   5.390   4.541   7.116 -0.0414  0.5461 -0.0220
   24MOL   H170 8496   4.997   4.379   7.395  0.0424  1.2403 -0.3991
   24MOL   H171 8497   4.869   4.270   7.407 -0.5134  0.5810 -0.7143
   24MOL   H172 8498   4.951   4.143   7.232  0.4100 -0.7303 -1.6009
   24MOL   H173 8499   5.049   4.302   7.071  0.1940  0.5266  0.6081
   24MOL   H174 8500   5.162   4.182   7.124 -1.4375 -0.3320  0.9255
   24MOL   H175 8501   5.292   4.331   7.247  1.4507  0.8836 -1.2359
   24MOL   H176 8502   5.162   4.449   7.253 -0.0596 -0.4973  1.7656
   24MOL   H177 8503   5.201   4.514   7.021  2.3656  3.0816 -0.6325
   24MOL   H178 8504   5.312   4.375   6.995 -0.2723  0.2008 -0.7484
   24MOL   H179 8505   5.362   4.581   7.213 -1.0833  3.1383 -1.3357
   24MOL   H180 8506   5.414   4.620   7.045  2.7875  0.3806  0.6832
   24MOL   H181 8507   5.481   4.487   7.141  0.2615  1.1519  0.1776
   24MOL   C182 8508   5.116   4.135   7.371 -0.1492 -0.3050  0.0247
   24MOL   C183 8509   5.040   4.042   7.468  0.4964  0.4528  0.1926
   24MOL   C184 8510   5.137   3.971   7.569  0.1093 -0.3152 -0.0409
   24MOL   C185 8511   5.195   4.069   7.680 -0.0733 -0.5615 -0.6181
   24MOL   C186 8512   5.289   4.001   0.056 -0.4485 -0.4607  0.2633
   24MOL   C187 8513   5.348   4.110   0.142  0.0882 -0.0972 -0.4781
   24MOL   H188 8514   5.187   4.083   7.306 -1.7107  0.6180 -2.5168
   24MOL   H189 8515   5.174   4.204   7.432  1.1738 -1.1914 -0.2124
   24MOL   H190 8516   4.976   4.106   7.530 -1.6241  1.6415 -3.0886
   24MOL   H191 8517   5.081   3.894   7.621 -1.3839  0.2498 -0.7889
   24MOL   H192 8518   5.223   3.928   7.518 -0.2691  0.5161 -1.4011
   24MOL   H193 8519   5.102   4.094   0.003  0.2287  0.5101 -0.5811
   24MOL   H194 8520   5.243   4.156   7.637 -2.0902  0.3851 -1.0046
   24MOL   H195 8521   5.369   3.938   0.017 -1.0825 -1.0147 -0.1681
   24MOL   H196 8522   5.226   3.935   0.116  0.3365 -1.1451  0.3482
   24MOL   H197 8523   5.275   4.171   0.195  0.9216  1.3485 -0.9639
   24MOL   H198 8524   5.406   4.176   0.078 -0.4953  1.1247  0.2345
   24MOL   H199 8525   5.418   4.066   0.214 -1.6456 -2.0498  0.0632
   24MOL   C200 8526   4.944   3.941   7.403 -0.1846  0.0200 -0.2514
   24MOL   C201 8527   4.990   3.866   7.273  0.4348  0.0757  0.3310
   24MOL   C202 8528   5.111   3.766   7.283  0.1354  0.6168  0.6870
   24MOL   C203 8529   5.103   3.654   7.391  0.3045 -0.2134  0.0171
   24MOL   C204 8530   5.207   3.538   7.363  0.3548  0.1814 -0.2319
   24MOL   C205 8531   5.230   3.433   7.473  0.4361 -0.2104  0.3983
   24MOL   H206 8532   4.858   4.003   7.376  0.0256 -0.2366 -1.5124
   24MOL   H207 8533   4.896   3.872   7.473  0.7132  1.0538  1.4027
   24MOL   H208 8534   5.029   3.941   7.205  1.0504  0.3498  0.9861
   24MOL   H209 8535   5.200   3.822   7.309 -0.8119  2.0992  0.7824
   24MOL   H210 8536   5.130   3.720   7.186 -0.7067 -0.4104  0.9984
   24MOL   H211 8537   5.001   3.617   7.389  0.8288 -1.7048 -0.0596
   24MOL   H212 8538   5.126   3.688   7.491 -0.2470  0.7361 -0.1825
   24MOL   H213 8539   5.307   3.569   7.331  0.4170 -1.5676 -1.8199
   24MOL   H214 8540   5.169   3.472   7.285 -2.1075 -0.4803  1.4802
   24MOL   H215 8541   5.288   3.482   7.551 -0.1285  0.6921  0.2521
   24MOL   H216 8542   5.137   3.388   7.508  0.2762 -0.1273  0.0780
   24MOL   H217 8543   5.282   3.351   7.424  1.8220  0.6551  0.3947
   24MOL   C218 8544   4.867   3.799   7.206  0.0012  0.1551 -0.1021
   24MOL   C219 8545   4.870   3.791   7.049 -0.3968  0.0307  0.3274
   24MOL   C220 8546   4.811   3.915   6.982  0.0906 -0.5922 -0.0760
   24MOL   C221 8547   4.838   3.933   6.830  0.2462 -0.3394  0.0823
   24MOL   C222 8548   4.757   4.057   6.787 -0.5012  0.2137 -0.5549
   24MOL   C223 8549   4.736   4.059   6.636  0.1946  0.0166 -0.2954
   24MOL   H224 8550   4.854   3.699   7.246  2.2324  0.7784  2.3353
   24MOL   H225 8551   4.768   3.838   7.229  0.0097  1.4223 -2.1029
   24MOL   H226 8552   4.977   3.779   7.033 -0.2936  2.8692 -1.2961
   24MOL   H227 8553   4.838   4.012   7.024 -2.1344  0.7586 -1.5941
   24MOL   H228 8554   4.704   3.904   7.004  0.2850  0.0790  1.2418
   24MOL   H229 8555   4.799   3.848   6.774 -1.8813  1.2849 -0.9487
   24MOL   H230 8556   4.944   3.949   6.807  0.9312 -2.9668  1.2204
   24MOL   H231 8557   4.660   4.050   6.837 -0.4528  1.0337 -0.3523
   24MOL   H232 8558   4.807   4.148   6.820  1.3271 -0.2232 -1.9882
   24MOL   H233 8559   4.662   3.984   6.608 -2.9748  2.9752 -0.1028
   24MOL   H234 8560   4.830   4.052   6.581 -0.3351 -0.6579 -1.1437
   24MOL   H235 8561   4.693   4.157   6.617 -0.6103  0.3622  3.1456
   24MOL   C236 8562   4.813   3.653   7.003  0.2389  0.5923 -0.4088
   24MOL   C237 8563   4.880   3.587   6.877 -0.5831 -0.6198 -0.2912
   24MOL   C238 8564   4.781   3.483   6.816 -1.0396 -0.7445  0.0577
   24MOL   C239 8565   4.660   3.539   6.743  0.5062 -0.2772 -0.5165
   24MOL   C240 8566   4.595   3.440   6.646 -0.0236 -0.6474  0.1123
   24MOL   C241 8567   4.475   3.503   6.571 -0.6144  0.3352 -0.2889
   24MOL   H242 8568   4.821   3.591   7.092  0.8795  2.1473  0.6330
   24MOL   H243 8569   4.706   3.657   6.982  0.1271 -1.3547 -0.3330
   24MOL   H244 8570   4.894   3.657   6.794 -4.6011 -0.0912 -0.6001
   24MOL   H245 8571   4.829   3.419   6.742  0.1952  0.4947 -0.2330
   24MOL   H246 8572   4.742   3.415   6.892 -0.3940  1.6119  2.5615
   24MOL   H247 8573   4.675   3.633   6.690  0.4503 -0.3077 -0.5866
   24MOL   H248 8574   4.580   3.561   6.814  0.3268  0.9742 -1.0933
   24MOL   H249 8575   4.665   3.419   6.565  1.4421  1.3114  0.8280
   24MOL   H250 8576   4.575   3.346   6.697 -1.7133  0.3822  1.4135
   24MOL   H251 8577   4.498   3.587   6.506  0.7453  0.3561  0.1957
   24MOL   H252 8578   4.428   3.430   6.504 -1.6809  1.2420 -0.5249
   24MOL   H253 8579   4.394   3.534   6.636 -0.5792  1.6213 -0.8457
   24MOL   C254 8580   5.020   3.530   6.920 -0.5530  0.2171 -0.1771
   24MOL   C255 8581   5.092   3.445   6.811  0.3428  0.2033 -0.2941
   24MOL   C256 8582   5.201   3.368   6.886 -0.2406  0.1008  0.2370
   24MOL   C257 8583   5.206   3.222   6.845 -0.4531 -0.4381 -0.8284
   24MOL   C258 8584   5.348   3.169   6.831 -0.6851  0.2807 -0.4576
   24MOL   C259 8585   5.335   3.024   6.766 -0.2488  0.7213  0.1125
   24MOL   H260 8586   4.995   3.460   7.000 -0.1465  1.4049  1.0286
   24MOL   H261 8587   5.086   3.609   6.957  0.7773 -0.5077 -0.9516
   24MOL   H262 8588   5.026   3.370   6.767  1.3187 -1.3408  0.8330
   24MOL   H263 8589   5.297   3.420   6.884 -0.4209  0.3964 -2.1069
   24MOL   H264 8590   5.180   3.367   6.993 -0.3874 -1.9846  0.2009
   24MOL   H265 8591   5.145   3.170   6.919  1.4752  0.6103  1.5580
   24MOL   H266 8592   5.151   3.205   6.752 -0.6604 -0.8383 -0.6350
   24MOL   H267 8593   5.405   3.169   6.924 -1.0669 -0.9325 -0.2149
   24MOL   H268 8594   5.396   3.224   6.750  0.1753 -1.5864 -1.2452
   24MOL   H269 8595   5.433   2.983   6.743 -0.7690 -0.5349  0.0883
   24MOL   H270 8596   5.294   3.033   6.665 -0.1503  1.8245  0.1645
   24MOL   H271 8597   5.278   2.955   6.828  2.5482 -1.5055  0.3137
   24MOL   C272 8598   5.147   3.533   6.697  0.0589 -0.3739 -0.3628
   24MOL   C273 8599   5.206   3.464   6.578 -0.0947  0.6226 -0.1138
   24MOL   C274 8600   5.297   3.564   6.505  0.0370 -0.5098  0.3431
   24MOL   C275 8601   5.450   3.533   6.502  0.1631 -0.0662 -0.6777
   24MOL   C276 8602   5.531   3.619   6.398 -0.1485 -0.3818  0.0133
   24MOL   C277 8603   5.486   3.604   6.250  0.0357  0.4201 -0.4013
   24MOL   H278 8604   5.068   3.603   6.670 -0.1103  1.0031  3.4358
   24MOL   H279 8605   5.221   3.601   6.738 -0.5033 -1.0003  1.7312
   24MOL   H280 8606   5.276   3.388   6.614  0.8339  0.5864 -1.8917
   24MOL   H281 8607   5.274   3.661   6.548 -0.4143 -0.6119  0.3332
   24MOL   H282 8608   5.247   3.576   6.409  0.1488 -0.9928  0.2206
   24MOL   H283 8609   5.473   3.429   6.478  1.1937  0.5398 -2.4683
   24MOL   H284 8610   5.495   3.542   6.601 -0.6628  1.0858 -0.4037
   24MOL   H285 8611   5.526   3.721   6.435 -0.5953  0.5474 -2.4876
   24MOL   H286 8612   5.635   3.588   6.405 -0.2409 -1.0536 -1.3216
   24MOL   H287 8613   5.543   3.658   6.174 -1.2399  2.2598 -0.0999
   24MOL   H288 8614   5.486   3.500   6.218  1.8157  0.8911 -2.0397
   24MOL   H289 8615   5.387   3.649   6.244 -0.4480 -0.5726  0.0794
   24MOL   C290 8616   5.114   3.380   6.486  0.0411  0.2752 -0.3790
   24MOL   C291 8617   5.185   3.298   6.370 -1.1335 -0.3133  0.0044
   24MOL   C292 8618   5.281   3.184   6.422  0.9735  0.0719  0.1091
   24MOL   C293 8619   5.349   3.111   6.311  0.1426 -0.3773 -0.8533
   24MOL   C294 8620   5.429   2.988   6.373  0.3977  0.0937 -0.2432
   24MOL   C295 8621   5.505   2.902   6.276  1.0006  0.1555  0.7314
   24MOL   H296 8622   5.048   3.455   6.444 -0.4368 -1.0455 -1.9959
   24MOL   H297 8623   5.048   3.306   6.532 -1.9982  2.2209 -0.0878
   24MOL   H298 8624   5.249   3.367   6.314 -1.3695 -1.1974 -1.3727
   24MOL   H299 8625   5.215   3.123   6.484 -0.8252  1.3976 -0.4489
   24MOL   H300 8626   5.354   3.220   6.495  0.9433 -0.0224  0.1852
   24MOL   H301 8627   5.274   3.065   6.246 -3.3810  2.0652  1.3124
   24MOL   H302 8628   5.396   3.185   6.247  0.7181  0.3225  0.3652
   24MOL   H303 8629   5.362   2.920   6.424 -2.0513  0.9755 -2.2007
   24MOL   H304 8630   5.496   3.030   6.448 -0.2220  0.7508 -0.0481
   24MOL   H305 8631   5.434   2.858   6.205  1.8312 -0.8951  0.5321
   24MOL   H306 8632   5.551   2.814   6.321  0.0651 -0.5222  0.3929
   24MOL   H307 8633   5.583   2.958   6.224 -1.2665  2.1901 -0.5761
   24MOL   C308 8634   5.086   3.241   6.265  0.2287  0.4404 -0.1912
   24MOL   C309 8635   4.986   3.336   6.202  0.3545  0.0212  0.3976
   24MOL   C310 8636   4.873   3.260   6.128  0.6464  0.2292  0.0547
   24MOL   C311 8637   4.775   3.169   6.207  0.4840  0.2357 -0.4562
   24MOL   C312 8638   4.708   3.242   6.319  0.1703 -0.0942 -0.3953
   24MOL   C313 8639   4.603   3.155   6.397  0.0403 -0.9541  0.0510
   24MOL   H314 8640   5.126   3.176   6.188 -0.2589 -0.0869 -0.0101
   24MOL   H315 8641   5.024   3.177   6.328 -0.1312  0.5500 -0.4348
   24MOL   H316 8642   4.929   3.386   6.280 -1.0914 -0.9001 -0.0630
   24MOL   H317 8643   4.924   3.201   6.052 -1.8106 -3.1239  0.8877
   24MOL   H318 8644   4.805   3.329   6.079  0.0625  1.0529  1.9541
   24MOL   H319 8645   4.830   3.084   6.248 -0.6122 -0.1962  0.1217
   24MOL   H320 8646   4.714   3.126   6.128  0.7189 -1.5800  0.3131
   24MOL   H321 8647   4.777   3.263   6.401  1.1522 -2.0267 -0.7096
   24MOL   H322 8648   4.673   3.341   6.289  1.3870  0.6790  0.6668
   24MOL   H323 8649   4.641   3.053   6.394 -0.8154 -1.2526 -0.7437
   24MOL   H324 8650   4.507   3.153   6.345 -0.8101 -1.4804  1.5956
   24MOL   H325 8651   4.592   3.188   6.500  1.4201 -1.7598  0.4715
   24MOL   C326 8652   5.063   3.433   6.111  0.0995  0.6513 -0.5744
   24MOL   C327 8653   4.977   3.547   6.050  0.1589  0.8063 -0.6052
   24MOL   C328 8654   4.912   3.634   6.161 -0.4791 -0.4156 -0.3856
   24MOL   C329 8655   5.013   3.712   6.258 -0.0553  0.0767  0.2275
   24MOL   C330 8656   4.957   3.809   6.361  0.4525  0.3017  0.3149
   24MOL   C331 8657   5.069   3.878   6.436  0.4329  0.5809  0.4823
   24MOL   H332 8658   5.108   3.371   6.034  0.8281  1.4431 -0.7876
   24MOL   H333 8659   5.144   3.482   6.166  0.3948 -1.8332  1.3262
   24MOL   H334 8660   4.892   3.510   5.992 -0.0679 -0.9546  0.8370
   24MOL   H335 8661   4.859   3.712   6.106 -0.3861 -0.1013 -0.0344
   24MOL   H336 8662   4.837   3.589   6.225 -0.1352  1.7966  1.6285
   24MOL   H337 8663   5.084   3.780   6.210 -0.1543  2.0695  2.7726
   24MOL   H338 8664   5.084   3.642   6.302  0.8744  0.1196 -1.1558
   24MOL   H339 8665   4.894   3.890   6.324 -2.0239 -0.8053  2.0040
   24MOL   H340 8666   4.888   3.769   6.435 -1.4386  1.8800 -0.5416
   24MOL   H341 8667   5.027   3.950   6.507  0.5981  1.8297 -0.6525
   24MOL   H342 8668   5.135   3.938   6.373  1.0430 -1.4647 -0.8812
   24MOL   H343 8669   5.131   3.812   6.496 -0.0524  0.3819  0.7675
   24MOL   C344 8670   5.056   3.634   5.951 -0.0825  0.2819  0.5687
   24MOL   C345 8671   5.076   3.571   5.814 -0.4177  0.3360 -0.2873
   24MOL   C346 8672   5.154   3.663   5.705  0.8881  0.1016 -0.0850
   24MOL   C347 8673   5.062   3.776   5.649  0.4099  0.1224  0.1349
   24MOL   C348 8674   5.133   3.859   5.539  0.0951  0.4885  0.5054
   24MOL   C349 8675   5.044   3.967   5.477 -0.7200 -0.0844  0.6089
   24MOL   H350 8676   5.007   3.729   5.929  0.3467  0.3030 -0.3270
   24MOL   H351 8677   5.150   3.673   5.991  0.4671  0.9011 -1.2653
   24MOL   H352 8678   4.993   3.524   5.761  1.6557 -0.1124 -3.2573
   24MOL   H353 8679   5.249   3.691   5.750  0.6957  1.7972 -0.7190
   24MOL   H354 8680   5.176   3.597   5.621  3.3145  2.8367 -1.6798
   24MOL   H355 8681   4.971   3.740   5.600  0.6593  0.6665 -0.7300
   24MOL   H356 8682   5.029   3.842   5.729  0.9972  0.4154  0.1409
   24MOL   H357 8683   5.219   3.909   5.583  0.6908 -3.8244  4.6029
   24MOL   H358 8684   5.172   3.786   5.468 -1.7249 -1.0067  1.0119
   24MOL   H359 8685   4.989   4.025   5.550 -0.9083  0.3408  0.1342
   24MOL   H360 8686   5.103   4.035   5.415 -1.5183  1.3174  1.3820
   24MOL   H361 8687   4.975   3.924   5.404  1.0474 -2.5467  0.3084
   24MOL   H362 8688   5.143   3.485   5.816  0.1328  0.7701  0.3997
   25MOL     C1 8689   5.741   1.234   2.795 -0.0124  0.0766  0.8178
   25MOL     C2 8690   5.830   1.290   2.680 -0.1976  0.2228 -0.6289
   25MOL     C3 8691   5.851   1.185   2.567 -0.0560 -0.4589 -0.0595
   25MOL     C4 8692   5.716   1.134   2.504  0.4035  0.2824 -0.0010
   25MOL     C5 8693   5.735   1.066   2.369 -0.0212 -0.3043 -0.7350
   25MOL     C6 8694   5.611   1.075   2.280 -0.0858  0.1866  0.3189
   25MOL     H7 8695   5.796   1.228   2.889  0.4749 -3.8891  0.3581
   25MOL     H8 8696   5.653   1.296   2.813 -1.1889 -1.4012  0.2559
   25MOL     H9 8697   5.784   1.374   2.630  1.4465  1.8581  0.5337
   25MOL    H10 8698   5.899   1.093   2.600  1.6758 -0.3160 -2.0991
   25MOL    H11 8699   5.913   1.228   2.488 -1.5538 -0.5944 -1.3386
   25MOL    H12 8700   5.644   1.215   2.488 -0.5756 -0.5842 -0.0649
   25MOL    H13 8701   5.656   1.062   2.560  0.6969  1.1126  1.4110
   25MOL    H14 8702   5.814   1.117   2.316  1.3655 -0.6793  0.9276
   25MOL    H15 8703   5.761   0.961   2.380 -2.3530 -0.8833 -0.3794
   25MOL    H16 8704   5.562   1.171   2.263 -0.7938 -0.1754  0.2625
   25MOL    H17 8705   5.534   1.005   2.312  0.5803 -1.1753 -1.0102
   25MOL    H18 8706   5.636   1.034   2.183 -1.2299  0.5312 -0.1383
   25MOL    H19 8707   5.703   1.134   2.773 -1.1196  0.9877 -1.6391
   25MOL    C20 8708   5.970   1.328   2.741 -0.4796 -1.2272  0.4860
   25MOL    C21 8709   6.078   1.410   2.649 -0.0031 -0.1250 -0.2553
   25MOL    C22 8710   6.047   1.557   2.639  0.2305  0.2538 -0.2853
   25MOL    C23 8711   6.143   1.644   2.563  0.3058  0.3040 -0.5413
   25MOL    C24 8712   6.076   1.776   2.525 -0.0394 -0.2148  0.2492
   25MOL    C25 8713   6.173   1.855   2.438 -0.0358 -0.6749 -0.6154
   25MOL    H26 8714   6.010   1.239   2.790 -0.1976 -0.4719  1.6336
   25MOL    H27 8715   5.945   1.394   2.824 -2.7409  0.7127 -1.6852
   25MOL    H28 8716   6.083   1.371   2.547  0.0331 -0.8417  0.0129
   25MOL    H29 8717   6.070   1.596   2.738  0.7213  0.4501 -0.4785
   25MOL    H30 8718   5.939   1.573   2.633 -0.4131 -3.1772  0.8520
   25MOL    H31 8719   6.164   1.593   2.469  1.4966  1.6832 -1.0446
   25MOL    H32 8720   6.228   1.683   2.618 -1.1034  0.3156  1.6806
   25MOL    H33 8721   5.976   1.756   2.488 -0.1185 -0.1168  0.4072
   25MOL    H34 8722   6.052   1.840   2.610  0.5989 -0.5652  0.6983
   25MOL    H35 8723   6.136   1.957   2.427  0.5762 -0.0273  2.7266
   25MOL    H36 8724   6.271   1.858   2.486 -1.3068  2.1779  1.9952
   25MOL    H37 8725   6.182   1.807   2.341 -0.1371  1.2206 -1.5858
   25MOL    C38 8726   6.220   1.384   2.711 -0.1017  0.5206 -0.4926
   25MOL    C39 8727   6.274   1.238   2.713 -0.9725 -0.4898 -1.2960
   25MOL    C40 8728   6.363   1.212   2.582 -0.6252  0.3192 -0.1887
   25MOL    C41 8729   6.289   1.190   2.454  0.1703 -0.4444 -0.0895
   25MOL    C42 8730   6.366   1.107   2.350  0.2999  0.8112  0.6426
   25MOL    C43 8731   6.266   1.085   2.229 -1.0488  0.1205  0.4948
   25MOL    H44 8732   6.201   1.412   2.814  1.0323  1.0830 -0.4303
   25MOL    H45 8733   6.294   1.457   2.677  1.1317 -0.6011 -0.2685
   25MOL    H46 8734   6.192   1.168   2.697 -1.4954  0.0130 -0.8574
   25MOL    H47 8735   6.443   1.285   2.578  0.3817 -0.7376  0.3248
   25MOL    H48 8736   6.418   1.120   2.601 -0.3914  0.4332 -0.3181
   25MOL    H49 8737   6.187   1.154   2.468 -0.6916  2.0175  0.2499
   25MOL    H50 8738   6.277   1.290   2.413  1.2545 -0.8783 -1.4614
   25MOL    H51 8739   6.461   1.152   2.320  1.9809 -1.6511  2.1208
   25MOL    H52 8740   6.394   1.010   2.392  1.1503 -0.1449 -2.0356
   25MOL    H53 8741   6.225   1.176   2.185 -1.4707  0.3424  1.3265
   25MOL    H54 8742   6.170   1.039   2.255 -0.6927 -0.7558  0.2779
   25MOL    H55 8743   6.314   1.016   2.159 -0.3976  1.6566 -0.6011
   25MOL    C56 8744   6.366   1.216   2.837 -0.2390  0.4598 -0.6532
   25MOL    C57 8745   6.397   1.068   2.887  0.2821 -0.4640 -0.1416
   25MOL    C58 8746   6.276   0.969   2.897  0.4583 -0.3437 -0.4326
   25MOL    C59 8747   6.177   1.013   3.013 -0.2337 -0.2866 -0.3279
   25MOL    C60 8748   6.056   0.919   3.029 -0.4279  0.5940 -0.0357
   25MOL    C61 8749   5.967   0.964   3.142  0.6079  0.7066 -0.0807
   25MOL    H62 8750   6.457   1.277   2.832 -1.0040  1.6091 -0.8756
   25MOL    H63 8751   6.320   1.266   2.922  2.7701  2.7582 -0.2644
   25MOL    H64 8752   6.456   1.030   2.804  0.9152  2.6182 -1.1985
   25MOL    H65 8753   6.228   0.962   2.800  0.8103  1.4575 -0.7422
   25MOL    H66 8754   6.317   0.869   2.912  1.1369 -0.0076 -0.0147
   25MOL    H67 8755   6.129   1.107   2.989  0.0772 -0.3434 -1.1792
   25MOL    H68 8756   6.224   1.025   3.111 -0.5962 -0.5781 -0.1128
   25MOL    H69 8757   6.009   0.907   2.931  2.1000 -3.1466 -0.9204
   25MOL    H70 8758   6.104   0.825   3.058 -0.2213  0.9016  0.6223
   25MOL    H71 8759   5.862   0.936   3.128  0.8138 -0.9112  1.4708
   25MOL    H72 8760   6.002   0.938   3.242  0.1144 -2.5993 -0.7002
   25MOL    H73 8761   5.959   1.072   3.130  0.4474  0.8728  1.3988
   25MOL    C74 8762   6.491   1.056   3.018  0.4939  0.1302  0.0071
   25MOL    C75 8763   6.644   1.055   2.996 -0.3268  0.0311  0.8775
   25MOL    C76 8764   6.707   1.116   3.117  0.4418 -0.0301 -0.3555
   25MOL    C77 8765   6.720   1.270   3.113  0.6785  0.1451  0.2089
   25MOL    C78 8766   6.772   1.309   3.256  0.1355 -0.1764  0.1005
   25MOL    C79 8767   6.819   1.456   3.260 -0.2956 -0.1427  0.1710
   25MOL    H80 8768   6.453   1.138   3.080  0.1854 -0.8043  1.0695
   25MOL    H81 8769   6.463   0.979   3.090  0.2329  0.4126  0.2137
   25MOL    H82 8770   6.667   1.104   2.901  0.0593 -0.5115  0.6860
   25MOL    H83 8771   6.648   1.082   3.201 -1.4789  0.0349 -1.6510
   25MOL    H84 8772   6.805   1.070   3.133  1.3278  1.5627 -1.0175
   25MOL    H85 8773   6.788   1.291   3.030  0.8335 -3.2419 -0.6109
   25MOL    H86 8774   6.622   1.310   3.087  0.6266 -1.8183 -2.8985
   25MOL    H87 8775   6.853   1.241   3.284  2.5865  2.3035 -0.7815
   25MOL    H88 8776   6.697   1.302   3.335  1.5900  2.2296  1.7761
   25MOL    H89 8777   6.904   1.458   3.192 -0.7531  1.4408 -0.3670
   25MOL    H90 8778   6.742   1.531   3.243  0.5652  0.2551 -2.0798
   25MOL    H91 8779   6.877   1.457   3.353  1.2167 -0.3369 -0.7444
   25MOL    C92 8780   6.681   0.906   2.969 -0.4208  0.0919 -0.0160
   25MOL    C93 8781   6.825   0.874   2.904 -0.0140 -0.0062 -1.6001
   25MOL    C94 8782   6.878   0.731   2.929  0.7557  0.3639 -0.5695
   25MOL    C95 8783   6.887   0.697   3.076 -0.4340 -0.3644 -0.0664
   25MOL    C96 8784   6.954   0.567   3.106 -0.0948 -0.1885 -0.5580
   25MOL    C97 8785   6.969   0.527   3.249  0.7512 -0.3843  0.5949
   25MOL    H98 8786   6.650   0.854   3.061  1.4842  0.1297  0.6560
   25MOL    H99 8787   6.607   0.859   2.903  0.0279 -1.2307  0.3908
   25MOL   H100 8788   6.896   0.935   2.960 -1.4942 -0.9342  1.4017
   25MOL   H101 8789   6.979   0.738   2.889  1.7387 -0.1684  1.7236
   25MOL   H102 8790   6.822   0.658   2.870 -0.3270 -0.0201  0.8995
   25MOL   H103 8791   6.939   0.782   3.120  0.2286  0.3676 -2.2106
   25MOL   H104 8792   6.787   0.694   3.121 -0.4112  0.5865  0.0561
   25MOL   H105 8793   6.904   0.493   3.044 -0.4250 -0.0960 -0.4000
   25MOL   H106 8794   7.053   0.581   3.063  0.2931  0.7170  0.5975
   25MOL   H107 8795   7.017   0.605   3.308  0.1998 -0.0459  0.5941
   25MOL   H108 8796   6.868   0.504   3.284 -0.8219  1.7456 -2.3386
   25MOL   H109 8797   7.024   0.432   3.251  1.5711  0.0552 -0.7155
   25MOL   C110 8798   6.829   0.913   2.759 -0.3649  0.2850  0.5190
   25MOL   C111 8799   6.970   0.922   2.686 -0.6823 -0.0697  0.3470
   25MOL   C112 8800   7.055   1.033   2.755 -0.0460 -0.0741  0.1986
   25MOL   C113 8801   7.191   1.075   2.704  0.4130  0.1884  0.3699
   25MOL   C114 8802   7.252   1.189   2.789  0.6046 -0.6364  0.7932
   25MOL   C115 8803   7.389   1.236   2.738 -0.4644 -0.2012 -0.2590
   25MOL   H116 8804   6.771   0.843   2.698  1.8482  0.0839 -1.4269
   25MOL   H117 8805   6.781   1.007   2.733  0.7530  0.7104 -0.0132
   25MOL   H118 8806   7.020   0.828   2.711 -2.4806 -0.8583  1.0317
   25MOL   H119 8807   7.066   1.007   2.860 -2.2055 -0.3289  0.3958
   25MOL   H120 8808   6.990   1.120   2.766  1.3232  0.9272  0.4812
   25MOL   H121 8809   7.186   1.092   2.596 -1.9039 -1.0721  0.2479
   25MOL   H122 8810   7.247   0.982   2.718 -1.1545 -0.6204  1.5121
   25MOL   H123 8811   7.264   1.156   2.892 -0.7399 -2.5987  0.3488
   25MOL   H124 8812   7.177   1.268   2.791  2.2516  1.1214 -2.7307
   25MOL   H125 8813   7.439   1.315   2.793 -2.2870  0.4189  0.5394
   25MOL   H126 8814   7.464   1.157   2.737 -1.6147 -1.4017  2.6728
   25MOL   H127 8815   7.381   1.271   2.635 -0.2919 -0.2084 -0.2748
   25MOL   C128 8816   6.959   0.933   2.531 -0.0093 -0.7849  0.9896
   25MOL   C129 8817   6.888   0.821   2.455 -0.2126 -0.0889  0.6754
   25MOL   C130 8818   6.910   0.676   2.497 -0.1335  0.4026 -0.0929
   25MOL   C131 8819   7.039   0.607   2.469 -0.2059  0.2830  0.0899
   25MOL   C132 8820   7.068   0.484   2.547 -0.5299  0.2361 -0.7110
   25MOL   C133 8821   6.972   0.369   2.503  0.8292 -0.0391  0.1545
   25MOL   H134 8822   7.065   0.920   2.511 -0.4864  0.9710 -3.1699
   25MOL   H135 8823   6.923   1.027   2.488  0.5847 -1.0854 -0.1837
   25MOL   H136 8824   6.780   0.839   2.460 -0.2386 -0.3697  1.2246
   25MOL   H137 8825   6.907   0.683   2.606  0.8305  0.4791 -0.0757
   25MOL   H138 8826   6.829   0.609   2.467  1.0975  0.0493 -2.7857
   25MOL   H139 8827   7.116   0.678   2.498 -0.9468  0.8167  0.7919
   25MOL   H140 8828   7.044   0.587   2.362  2.3741  0.7274  0.0980
   25MOL   H141 8829   7.173   0.463   2.527 -0.1704 -0.0716  1.4470
   25MOL   H142 8830   7.063   0.497   2.655  1.6925 -1.8596 -0.3083
   25MOL   H143 8831   6.954   0.372   2.395  1.3368 -0.3954  0.0604
   25MOL   H144 8832   6.872   0.394   2.540  0.3155  1.1530 -1.9144
   25MOL   H145 8833   7.004   0.272   2.541 -0.1680  0.0878  1.3665
   25MOL   C146 8834   6.919   0.837   2.305  0.4293 -0.1540 -0.0058
   25MOL   C147 8835   6.878   0.961   2.229 -0.7611 -0.3524 -0.6099
   25MOL   C148 8836   6.746   0.933   2.152 -0.4974 -0.5951 -0.2259
   25MOL   C149 8837   6.662   1.053   2.114  0.2310  0.4630  1.0402
   25MOL   C150 8838   6.548   1.025   2.010  0.1129  0.3798 -0.0653
   25MOL   C151 8839   6.597   1.049   1.868  0.7036  0.5498 -1.4149
   25MOL   H152 8840   7.026   0.831   2.289  0.1977 -1.1610 -1.1848
   25MOL   H153 8841   6.886   0.740   2.270 -0.0513 -0.2837  0.7768
   25MOL   H154 8842   6.843   1.044   2.290  0.6331 -0.0069 -0.2526
   25MOL   H155 8843   6.688   0.865   2.214  0.8251 -0.9816  0.6227
   25MOL   H156 8844   6.789   0.885   2.064  1.3982  2.2788 -0.9522
   25MOL   H157 8845   6.612   1.098   2.199  1.2898  1.0233  1.3673
   25MOL   H158 8846   6.729   1.127   2.070 -0.3458  1.1981  1.4150
   25MOL   H159 8847   6.475   1.092   2.055  0.4329  1.1742 -0.7290
   25MOL   H160 8848   6.534   0.918   2.027  1.7721 -0.1280 -1.8056
   25MOL   H161 8849   6.532   1.002   1.794  0.6319 -2.2424  0.3397
   25MOL   H162 8850   6.583   1.155   1.849 -1.5238  0.3844 -0.8292
   25MOL   H163 8851   6.702   1.022   1.851  0.1835 -1.4880 -1.5961
   25MOL   C164 8852   6.994   1.016   2.144  0.3955  0.0728 -0.1201
   25MOL   C165 8853   7.109   1.088   2.211  0.6477  0.3660 -0.0894
   25MOL   C166 8854   7.246   1.014   2.182 -0.2948 -0.4111  0.0525
   25MOL   C167 8855   7.363   1.074   2.255 -0.8569 -0.4873  0.0941
   25MOL   C168 8856   7.471   0.969   2.296  0.4635 -0.3483  0.5052
   25MOL   C169 8857   7.583   1.030   2.377 -0.4991  0.1216  0.0808
   25MOL   H170 8858   7.032   0.943   2.073  1.8825 -0.9558  1.6648
   25MOL   H171 8859   6.945   1.086   2.077  1.0529 -1.2294 -2.0072
   25MOL   H172 8860   7.094   1.080   2.319  0.2125 -1.5020 -0.2634
   25MOL   H173 8861   7.279   1.020   2.078 -1.5389 -3.7763 -0.5988
   25MOL   H174 8862   7.233   0.909   2.207 -0.8226 -0.0094  1.5309
   25MOL   H175 8863   7.318   1.113   2.347 -0.3139 -0.1479  0.2179
   25MOL   H176 8864   7.406   1.158   2.200 -0.3128 -0.8526 -0.0371
   25MOL   H177 8865   7.518   0.936   2.204 -0.5099  2.2352 -0.9745
   25MOL   H178 8866   7.420   0.890   2.352  0.2318  1.9543  3.7108
   25MOL   H179 8867   7.671   1.062   2.321 -0.0106  2.0264  1.8389
   25MOL   H180 8868   7.613   0.950   2.444 -0.4310  0.1676  0.1063
   25MOL   H181 8869   7.551   1.104   2.451  0.1738  1.7635 -1.2409
   25MOL   C182 8870   7.106   1.233   2.169 -0.3606 -0.2637  0.0593
   25MOL   C183 8871   6.998   1.332   2.209  0.5892 -0.3002  0.2214
   25MOL   C184 8872   7.033   1.471   2.159 -0.7636 -0.4381  0.5359
   25MOL   C185 8873   7.092   1.479   2.009  0.5732 -0.6534 -0.2792
   25MOL   C186 8874   7.116   1.624   1.972  0.1831 -0.0845 -0.1976
   25MOL   C187 8875   7.157   1.629   1.827  0.1892 -0.5471 -0.2579
   25MOL   H188 8876   7.203   1.277   2.195  0.2211 -0.9104 -0.9663
   25MOL   H189 8877   7.109   1.233   2.060  1.7770  0.1062  0.1013
   25MOL   H190 8878   6.906   1.313   2.154  0.5474  0.9423 -0.1587
   25MOL   H191 8879   6.943   1.533   2.163 -2.1650 -2.1157 -3.2484
   25MOL   H192 8880   7.109   1.525   2.216 -1.4875  1.3373 -0.1518
   25MOL   H193 8881   7.028   1.429   1.936  1.0981 -0.4776 -0.8606
   25MOL   H194 8882   7.185   1.423   2.015  1.2762  0.5053 -0.3482
   25MOL   H195 8883   7.199   1.663   2.031  1.9688 -4.5529  0.4350
   25MOL   H196 8884   7.022   1.673   1.999 -0.7231 -1.9019  0.0258
   25MOL   H197 8885   7.184   1.727   1.789  4.0703 -1.7225 -0.7454
   25MOL   H198 8886   7.076   1.586   1.768  1.5093 -1.8024 -1.1992
   25MOL   H199 8887   7.243   1.564   1.806  1.7875  0.9360  1.5685
   25MOL   C200 8888   6.972   1.332   2.360 -0.0613  0.3083 -0.1759
   25MOL   C201 8889   6.844   1.390   2.422  0.8218  0.3530 -0.5022
   25MOL   C202 8890   6.830   1.348   2.570 -0.8418  0.3178  0.1945
   25MOL   C203 8891   6.898   1.443   2.663  0.1417  0.2007 -0.1453
   25MOL   C204 8892   6.867   1.414   2.806 -0.5637 -0.0625 -0.2114
   25MOL   C205 8893   6.929   1.510   2.906 -0.3618 -0.3732 -0.2580
   25MOL   H206 8894   7.062   1.381   2.397  0.1670  0.3078 -0.7169
   25MOL   H207 8895   6.979   1.228   2.392  1.2080  0.7512  1.0419
   25MOL   H208 8896   6.770   1.339   2.360  0.9996  2.7956 -2.8078
   25MOL   H209 8897   6.875   1.251   2.594  1.9797  1.3605 -0.6100
   25MOL   H210 8898   6.723   1.345   2.590 -1.3221  0.4342 -2.2144
   25MOL   H211 8899   6.867   1.546   2.648 -1.1139 -0.2644 -0.8223
   25MOL   H212 8900   7.006   1.432   2.653  0.3242  0.7412  1.1520
   25MOL   H213 8901   6.914   1.319   2.832 -0.3322  0.0461 -0.2323
   25MOL   H214 8902   6.763   1.405   2.834 -0.3405 -0.9005  0.3545
   25MOL   H215 8903   7.018   1.556   2.864 -0.5890  2.7721  2.5107
   25MOL   H216 8904   6.869   1.600   2.921  0.7179  0.1761  0.7694
   25MOL   H217 8905   6.956   1.461   2.999 -0.8065  1.2779  0.7670
   25MOL   C218 8906   6.810   1.540   2.381  0.3470 -0.7190 -0.3522
   25MOL   C219 8907   6.683   1.599   2.445  0.3896  0.4498  1.0449
   25MOL   C220 8908   6.538   1.560   2.388  0.6984  0.3142 -0.0171
   25MOL   C221 8909   6.485   1.645   2.275 -0.3085 -0.0921 -0.1914
   25MOL   C222 8910   6.384   1.571   2.188  0.0696 -0.1552  0.6592
   25MOL   C223 8911   6.297   1.660   2.089  0.2951 -0.6610  0.1633
   25MOL   H224 8912   6.892   1.604   2.415  0.0835 -0.9638  0.7630
   25MOL   H225 8913   6.790   1.556   2.275 -0.3822 -0.4040 -0.1651
   25MOL   H226 8914   6.683   1.552   2.544  3.1296  0.5065  1.0865
   25MOL   H227 8915   6.468   1.563   2.472  1.2804 -0.9722  0.5350
   25MOL   H228 8916   6.543   1.454   2.362 -3.9344  0.2961 -1.2461
   25MOL   H229 8917   6.562   1.692   2.214  1.9884 -0.4319  2.3387
   25MOL   H230 8918   6.433   1.733   2.313  1.1983  0.9060 -0.4018
   25MOL   H231 8919   6.446   1.504   2.129  0.9038  2.0708 -1.0470
   25MOL   H232 8920   6.318   1.514   2.253  0.1729 -0.7643  0.2367
   25MOL   H233 8921   6.230   1.597   2.031 -1.9631  0.3330  1.6150
   25MOL   H234 8922   6.344   1.725   2.015 -0.8831  1.8444  1.5302
   25MOL   H235 8923   6.237   1.733   2.144 -1.0310 -0.9895 -0.8306
   25MOL   C236 8924   6.684   1.748   2.476 -0.0226  0.0874 -0.0165
   25MOL   C237 8925   6.611   1.787   2.604 -0.6697 -1.3074 -0.0986
   25MOL   C238 8926   6.574   1.941   2.593  0.1353 -0.9163 -0.5448
   25MOL   C239 8927   6.700   2.034   2.608 -0.1410  0.5187 -0.0160
   25MOL   C240 8928   6.669   2.181   2.606  0.6304  0.6878  0.6868
   25MOL   C241 8929   6.794   2.265   2.565  0.2979  0.6427 -0.2298
   25MOL   H242 8930   6.788   1.768   2.499  0.0752 -1.6771  1.1923
   25MOL   H243 8931   6.667   1.810   2.388  1.1110 -0.0418 -0.3345
   25MOL   H244 8932   6.517   1.733   2.592 -1.7956  0.6082  0.0283
   25MOL   H245 8933   6.537   1.962   2.492  1.0416  3.7147 -0.0092
   25MOL   H246 8934   6.497   1.969   2.664  0.2410 -1.4307 -0.2259
   25MOL   H247 8935   6.768   2.008   2.527 -0.2410 -2.9961  0.9486
   25MOL   H248 8936   6.755   2.010   2.699 -0.8925 -0.0524  0.2852
   25MOL   H249 8937   6.588   2.203   2.537  0.6899  0.5088  0.5597
   25MOL   H250 8938   6.630   2.199   2.706  0.0358 -1.0921  0.7945
   25MOL   H251 8939   6.877   2.246   2.633 -0.9184  1.3988  1.4986
   25MOL   H252 8940   6.835   2.221   2.474 -1.1203 -0.4754 -0.3454
   25MOL   H253 8941   6.780   2.373   2.560  0.6625  0.6956 -0.1494
   25MOL   C254 8942   6.670   1.756   2.746 -0.6319  0.0208 -0.7081
   25MOL   C255 8943   6.589   1.795   2.873  0.4807  0.2244 -0.1847
   25MOL   C256 8944   6.677   1.794   2.994 -0.4894 -0.2884 -0.1711
   25MOL   C257 8945   6.805   1.881   3.004  0.0997 -0.0972  0.5285
   25MOL   C258 8946   6.838   1.934   3.143  0.1356 -0.2214  0.5417
   25MOL   C259 8947   6.910   1.827   3.235 -0.1932 -0.2804 -0.1094
   25MOL   H260 8948   6.772   1.793   2.757  0.0744 -2.0467 -0.0013
   25MOL   H261 8949   6.679   1.647   2.742  1.2965  0.1102  0.4550
   25MOL   H262 8950   6.545   1.894   2.861 -0.1606 -0.0725 -0.3295
   25MOL   H263 8951   6.615   1.832   3.075 -1.0250  0.9287 -1.1350
   25MOL   H264 8952   6.698   1.692   3.028 -1.0530 -0.0902  0.7833
   25MOL   H265 8953   6.892   1.828   2.965 -1.0063 -0.3617 -1.6778
   25MOL   H266 8954   6.803   1.972   2.944  0.7696 -0.8210 -0.6162
   25MOL   H267 8955   6.750   1.989   3.178  1.5892  3.2981 -1.0907
   25MOL   H268 8956   6.906   2.016   3.121 -2.0296  1.1526 -1.2532
   25MOL   H269 8957   6.970   1.755   3.180 -2.7552 -3.4552  1.1162
   25MOL   H270 8958   6.841   1.756   3.281 -0.4893  0.5228  0.6943
   25MOL   H271 8959   6.979   1.870   3.308  2.2047 -0.3813 -2.2689
   25MOL   C272 8960   6.469   1.697   2.889  0.2173 -0.1312  0.2868
   25MOL   C273 8961   6.371   1.711   3.006 -0.5319  0.6533 -0.1319
   25MOL   C274 8962   6.274   1.595   3.017 -0.7373  0.3331  0.4555
   25MOL   C275 8963   6.244   1.538   3.159  0.4817  0.0164 -0.3968
   25MOL   C276 8964   6.180   1.399   3.151 -0.4237  0.2107 -0.2551
   25MOL   C277 8965   6.142   1.348   3.287 -0.0107  0.9075  0.0824
   25MOL   H278 8966   6.408   1.703   2.800 -0.9132  1.0334  1.1242
   25MOL   H279 8967   6.517   1.599   2.887 -0.3664 -0.4020 -0.5287
   25MOL   H280 8968   6.430   1.710   3.098  0.9461 -1.3517 -1.0527
   25MOL   H281 8969   6.314   1.515   2.955 -0.0162  0.7251  0.4084
   25MOL   H282 8970   6.180   1.623   2.971 -0.6629 -1.0218 -0.5715
   25MOL   H283 8971   6.179   1.599   3.222  1.0672  1.8026 -1.4755
   25MOL   H284 8972   6.331   1.540   3.224  0.4307 -2.0563 -0.2449
   25MOL   H285 8973   6.090   1.413   3.091  0.4602  0.7680 -1.4816
   25MOL   H286 8974   6.238   1.321   3.102  0.3321 -0.5985  1.8732
   25MOL   H287 8975   6.231   1.355   3.349 -1.9295 -0.4168  3.0837
   25MOL   H288 8976   6.062   1.412   3.326  0.9663  1.3347  1.3878
   25MOL   H289 8977   6.103   1.246   3.282 -0.2947  1.0428 -0.5645
   25MOL   C290 8978   6.297   1.845   2.993  0.3405 -0.3445  0.8477
   25MOL   C291 8979   6.179   1.883   3.091 -0.4758  0.6394  0.4982
   25MOL   C292 8980   6.226   1.879   3.239 -0.2521  0.5328  0.5637
   25MOL   C293 8981   6.274   2.010   3.299  0.0194 -0.2317  0.3280
   25MOL   C294 8982   6.347   1.993   3.433  0.5396  0.1797 -0.2342
   25MOL   C295 8983   6.492   1.935   3.435  0.3430  0.4596 -0.4893
   25MOL   H296 8984   6.258   1.848   2.891  2.3138 -0.9809  0.0494
   25MOL   H297 8985   6.353   1.937   3.008  2.7373 -1.0871 -2.8576
   25MOL   H298 8986   6.120   1.793   3.070  1.8201 -1.3949  2.3438
   25MOL   H299 8987   6.313   1.817   3.257 -0.6456 -0.0633  0.4059
   25MOL   H300 8988   6.143   1.841   3.298 -0.1281  1.0682  1.0872
   25MOL   H301 8989   6.332   2.063   3.223  0.0141  0.2112  0.6367
   25MOL   H302 8990   6.189   2.076   3.312  0.2711 -0.3167  2.5422
   25MOL   H303 8991   6.290   1.917   3.487 -2.1035  1.2984 -1.3811
   25MOL   H304 8992   6.347   2.092   3.478  2.2052 -0.5363  1.4629
   25MOL   H305 8993   6.531   1.932   3.537 -0.0700 -0.3707 -0.3460
   25MOL   H306 8994   6.560   1.992   3.372  0.7019 -2.0645 -2.4626
   25MOL   H307 8995   6.478   1.837   3.389 -0.4807 -0.2434  1.1734
   25MOL   C308 8996   6.096   2.008   3.049  0.3344 -0.1264  0.6335
   25MOL   C309 8997   5.955   2.012   3.108  0.3466  0.3705  0.4187
   25MOL   C310 8998   5.866   1.874   3.091 -0.2155  0.5259  0.4547
   25MOL   C311 8999   5.842   1.842   2.938 -0.2207  0.3815 -0.4656
   25MOL   C312 9000   5.770   1.708   2.916 -0.4232 -0.3599 -1.0009
   25MOL   C313 9001   5.620   1.718   2.941  0.2861  0.6777 -0.1318
   25MOL   H314 9002   6.149   2.099   3.078  1.0583 -0.3141 -0.0769
   25MOL   H315 9003   6.103   2.009   2.940  1.3630 -2.6935  0.6330
   25MOL   H316 9004   5.976   2.019   3.215 -2.5172 -0.0429  1.0506
   25MOL   H317 9005   5.765   1.890   3.130 -1.4225 -0.3786 -2.1587
   25MOL   H318 9006   5.900   1.782   3.139  1.1150  0.3321 -0.8549
   25MOL   H319 9007   5.939   1.814   2.898  0.0941 -0.7059  0.9983
   25MOL   H320 9008   5.815   1.923   2.870 -0.6630 -0.6153 -1.4885
   25MOL   H321 9009   5.786   1.666   2.817 -0.3707  0.0095 -1.1491
   25MOL   H322 9010   5.807   1.634   2.987  1.4275  1.2747 -0.2275
   25MOL   H323 9011   5.582   1.816   2.912  1.2616  0.8727 -0.7670
   25MOL   H324 9012   5.603   1.707   3.049  2.6869 -2.0241  0.0285
   25MOL   H325 9013   5.556   1.636   2.908  0.0074 -0.1606  2.3225
   25MOL   C326 9014   5.875   2.139   3.074  0.0816  0.5317  0.1082
   25MOL   C327 9015   5.914   2.265   3.156 -0.2983  0.0618  0.3274
   25MOL   C328 9016   5.932   2.398   3.077  0.8479 -0.5692  0.4914
   25MOL   C329 9017   5.797   2.462   3.016 -0.5190 -0.5169  0.5355
   25MOL   C330 9018   5.822   2.576   2.914 -0.0668 -0.6291  0.2589
   25MOL   C331 9019   5.690   2.616   2.859 -0.4830  0.1596 -0.9967
   25MOL   H332 9020   5.774   2.106   3.098  0.6821 -0.7227  0.9696
   25MOL   H333 9021   5.866   2.159   2.967  0.3069 -1.1606 -0.2328
   25MOL   H334 9022   6.001   2.242   3.217  0.2973 -0.7203 -0.7835
   25MOL   H335 9023   5.965   2.474   3.147 -0.8221  0.8397 -0.2063
   25MOL   H336 9024   6.007   2.380   3.000  0.7787  1.4016 -0.0619
   25MOL   H337 9025   5.736   2.500   3.098 -0.0992  0.2187  0.5050
   25MOL   H338 9026   5.740   2.378   2.974  1.5103  0.1459 -3.7685
   25MOL   H339 9027   5.874   2.660   2.961  1.9033 -1.8992  0.3829
   25MOL   H340 9028   5.891   2.541   2.837  1.3902  0.4082  1.0666
   25MOL   H341 9029   5.710   2.692   2.783 -0.3021  0.0367 -1.0716
   25MOL   H342 9030   5.620   2.641   2.939  1.1654 -2.4130  1.3463
   25MOL   H343 9031   5.635   2.543   2.800 -2.8953  1.0806  0.0502
   25MOL   C344 9032   5.796   2.285   3.257 -0.2665  0.0507  0.0667
   25MOL   C345 9033   5.804   2.206   3.384  0.1295 -0.8208 -0.5694
   25MOL   C346 9034   5.713   2.272   3.480 -0.2823 -0.1294  0.3383
   25MOL   C347 9035   5.685   2.183   3.594  0.5533  0.8278 -0.5451
   25MOL   C348 9036   5.587   2.241   3.701  0.1366  0.4262 -0.1845
   25MOL   C349 9037   5.584   2.164   3.835  0.2054 -0.4383  0.4350
   25MOL   H350 9038   5.803   2.389   3.288 -0.4132  1.0202 -2.9945
   25MOL   H351 9039   5.700   2.278   3.207 -0.9405 -0.7666  1.4490
   25MOL   H352 9040   5.901   2.196   3.433  0.1854  2.3089  0.0192
   25MOL   H353 9041   5.759   2.363   3.516  1.8896 -0.4213 -1.5808
   25MOL   H354 9042   5.613   2.286   3.439 -0.4512 -1.2738  0.3402
   25MOL   H355 9043   5.635   2.091   3.565 -0.0477  1.0553 -0.2569
   25MOL   H356 9044   5.779   2.159   3.644  0.3854 -0.5209 -0.8782
   25MOL   H357 9045   5.618   2.344   3.715  1.1730  0.4756 -2.5888
   25MOL   H358 9046   5.485   2.251   3.664  0.5679 -0.5818 -1.6990
   25MOL   H359 9047   5.550   2.061   3.837  0.7046 -0.6777 -2.2816
   25MOL   H360 9048   5.684   2.167   3.878 -0.4809  1.6985  2.0185
   25MOL   H361 9049   5.514   2.219   3.899 -0.9955 -2.1598  0.6205
   25MOL   H362 9050   5.773   2.102   3.373 -0.5178 -0.8946  1.7196
   26MOL     C1 9051   5.260   6.339   6.703 -0.5053 -0.1931 -0.2548
   26MOL     C2 9052   5.285   6.309   6.848  0.2042  0.8464 -0.3400
   26MOL     C3 9053   5.179   6.211   6.912 -0.0386  0.0877  0.4789
   26MOL     C4 9054   5.164   6.076   6.838 -0.2524  0.1489  0.4735
   26MOL     C5 9055   5.094   5.969   6.920  0.7700 -0.4480 -0.4138
   26MOL     C6 9056   5.063   5.836   6.846 -0.1046 -0.4721 -0.1300
   26MOL     H7 9057   5.278   6.260   6.630 -0.2368  1.3937 -1.9375
   26MOL     H8 9058   5.161   6.379   6.682 -0.0919 -0.0148 -1.9137
   26MOL     H9 9059   5.382   6.258   6.850  0.2344  0.9240  0.2320
   26MOL    H10 9060   5.082   6.261   6.913  0.1989  0.5886 -0.9239
   26MOL    H11 9061   5.201   6.187   7.016  0.2325  0.1712  0.4399
   26MOL    H12 9062   5.267   6.046   6.820 -0.8623 -0.6062 -1.9067
   26MOL    H13 9063   5.113   6.110   6.748 -2.1953 -0.0692  1.4498
   26MOL    H14 9064   5.156   5.941   7.006 -1.2892  1.8564  1.9119
   26MOL    H15 9065   5.004   6.011   6.965 -0.3787 -2.6351 -0.5740
   26MOL    H16 9066   5.152   5.812   6.787 -0.2484 -0.9167 -0.1717
   26MOL    H17 9067   4.990   5.857   6.767  0.0776  1.4264  0.1905
   26MOL    H18 9068   5.036   5.754   6.913  0.1944  0.5410  1.2385
   26MOL    H19 9069   5.330   6.413   6.666 -3.0117  1.6320 -1.5184
   26MOL    C20 9070   5.274   6.441   6.924 -0.4366  0.4715 -0.6116
   26MOL    C21 9071   5.398   6.481   7.001  0.3662  0.3052 -0.4253
   26MOL    C22 9072   5.408   6.634   7.004 -0.1491 -0.3585 -0.1472
   26MOL    C23 9073   5.309   6.704   7.099 -0.0094  1.1101 -0.2255
   26MOL    C24 9074   5.247   6.834   7.037 -0.1724 -0.3365  0.2304
   26MOL    C25 9075   5.150   6.886   7.137 -0.1903 -0.2126  0.3692
   26MOL    H26 9076   5.195   6.436   6.998 -0.5115 -1.3506 -0.7962
   26MOL    H27 9077   5.250   6.527   6.861 -0.0319 -0.9985 -2.8239
   26MOL    H28 9078   5.475   6.447   6.933  1.9593 -1.1113  2.0087
   26MOL    H29 9079   5.401   6.682   6.906  1.9206 -0.8202 -0.5495
   26MOL    H30 9080   5.508   6.656   7.044 -1.0170  0.7117  1.5145
   26MOL    H31 9081   5.362   6.725   7.192 -0.3742 -0.5430  0.3816
   26MOL    H32 9082   5.233   6.630   7.123  1.0012  0.5113  1.2355
   26MOL    H33 9083   5.322   6.911   7.021 -0.0275 -0.3538  0.7895
   26MOL    H34 9084   5.211   6.808   6.938  0.2321  2.3026 -0.6298
   26MOL    H35 9085   5.089   6.967   7.097  2.2960  0.9015 -1.3104
   26MOL    H36 9086   5.079   6.812   7.172 -1.0799 -0.4751 -1.9316
   26MOL    H37 9087   5.199   6.931   7.224 -1.1189  1.4071  0.0770
   26MOL    C38 9088   5.415   6.408   7.139 -0.8478 -0.4213  0.5899
   26MOL    C39 9089   5.561   6.409   7.177  0.4136 -0.3088 -0.8753
   26MOL    C40 9090   5.565   6.499   7.303 -0.6989  0.2031 -0.0700
   26MOL    C41 9091   5.708   6.515   7.361 -0.0626 -0.6220  0.0555
   26MOL    C42 9092   5.706   6.596   7.489  0.3511  0.3817  0.6988
   26MOL    C43 9093   5.853   6.637   7.529  0.0101 -0.5521  0.4596
   26MOL    H44 9094   5.384   6.306   7.113 -0.2106 -0.0931 -1.5761
   26MOL    H45 9095   5.352   6.443   7.221  1.3036  0.5371  1.8646
   26MOL    H46 9096   5.622   6.459   7.102 -1.0162  3.3721  0.2856
   26MOL    H47 9097   5.521   6.596   7.281  0.8694  1.2039  1.1080
   26MOL    H48 9098   5.515   6.450   7.386  0.5413 -2.4179 -0.8177
   26MOL    H49 9099   5.734   6.414   7.394 -0.7718 -1.2582 -1.2848
   26MOL    H50 9100   5.771   6.558   7.283 -3.3067  1.7226 -1.3959
   26MOL    H51 9101   5.647   6.687   7.483 -1.0831 -0.5874 -0.2177
   26MOL    H52 9102   5.666   6.538   7.573  0.4297  0.7995  1.0272
   26MOL    H53 9103   5.884   6.704   7.448 -0.8662 -0.9334 -0.2107
   26MOL    H54 9104   5.908   6.544   7.537  2.5863  0.9347  0.5173
   26MOL    H55 9105   5.850   6.686   7.626 -3.0118 -2.3175  1.3278
   26MOL    C56 9106   5.615   6.265   7.198  0.4827  0.3155  0.0836
   26MOL    C57 9107   5.635   6.187   7.073 -0.3720 -0.5266 -0.3425
   26MOL    C58 9108   5.640   6.033   7.102  0.5595 -0.1293 -0.2356
   26MOL    C59 9109   5.500   5.970   7.126  0.2662  0.4009  0.1165
   26MOL    C60 9110   5.513   5.826   7.170 -0.3866  0.0613  0.3378
   26MOL    C61 9111   5.378   5.771   7.207 -0.2889  0.4289 -0.5057
   26MOL    H62 9112   5.705   6.269   7.260  0.7383  1.2379 -0.3354
   26MOL    H63 9113   5.537   6.218   7.257  2.2704 -0.3382  2.0101
   26MOL    H64 9114   5.549   6.208   7.011 -0.6248  0.8581  0.4628
   26MOL    H65 9115   5.693   5.985   7.019 -0.2248 -0.5884 -0.4773
   26MOL    H66 9116   5.717   6.006   7.174 -1.2334  0.3094  1.8706
   26MOL    H67 9117   5.431   5.989   7.045 -0.9170 -0.3275  0.9453
   26MOL    H68 9118   5.454   6.018   7.212  1.1773  0.5645  0.5261
   26MOL    H69 9119   5.569   5.768   7.096 -2.1602 -1.9671  0.5083
   26MOL    H70 9120   5.574   5.839   7.259  0.9564  2.0851 -0.8504
   26MOL    H71 9121   5.372   5.672   7.251 -2.7035  0.6649 -0.2421
   26MOL    H72 9122   5.327   5.838   7.277 -1.0295 -0.7134  0.0631
   26MOL    H73 9123   5.307   5.752   7.126  0.3138 -0.9055 -0.7347
   26MOL    C74 9124   5.764   6.234   6.993  0.6174 -0.3342  0.9335
   26MOL    C75 9125   5.788   6.174   6.844  0.2075  0.3840  0.0271
   26MOL    C76 9126   5.664   6.174   6.745  0.4382  1.0565 -0.1927
   26MOL    C77 9127   5.564   6.048   6.740  0.6303 -0.6648 -0.4499
   26MOL    C78 9128   5.640   5.915   6.705 -0.0243  0.6430  0.0898
   26MOL    C79 9129   5.547   5.834   6.614 -0.2702  0.2465 -0.0121
   26MOL    H80 9130   5.756   6.342   6.983 -0.5502 -0.3918  1.1751
   26MOL    H81 9131   5.856   6.216   7.050  0.6669 -0.6206  0.7613
   26MOL    H82 9132   5.816   6.069   6.835 -0.6625  0.2356 -1.0682
   26MOL    H83 9133   5.598   6.256   6.773 -1.3813 -0.5837  0.3980
   26MOL    H84 9134   5.714   6.185   6.648  2.1327  0.3696  0.5807
   26MOL    H85 9135   5.528   6.036   6.842 -0.4083 -0.0117 -0.7291
   26MOL    H86 9136   5.489   6.076   6.666 -1.4602  0.4655  2.0138
   26MOL    H87 9137   5.657   5.858   6.796  2.5728 -0.2657 -0.8918
   26MOL    H88 9138   5.735   5.934   6.654 -0.2691  1.0433 -0.2154
   26MOL    H89 9139   5.593   5.742   6.578  0.6119 -0.1723  2.1221
   26MOL    H90 9140   5.454   5.816   6.669 -0.7576 -0.2877 -0.9934
   26MOL    H91 9141   5.527   5.889   6.522  0.1297  0.2147 -0.1201
   26MOL    C92 9142   5.901   6.247   6.767  0.3446  0.6351 -0.1973
   26MOL    C93 9143   6.033   6.269   6.844  0.0258 -0.4026 -0.2643
   26MOL    C94 9144   6.106   6.134   6.860 -0.3695  0.3412 -0.5643
   26MOL    C95 9145   6.206   6.138   6.974 -0.2685 -0.3882  0.2591
   26MOL    C96 9146   6.281   6.005   6.996 -0.8680 -0.2146  0.4468
   26MOL    C97 9147   6.201   5.886   7.052 -0.0625 -0.5026  0.8925
   26MOL    H98 9148   5.928   6.205   6.670  0.4532 -0.8266  0.4569
   26MOL    H99 9149   5.863   6.349   6.752 -0.5261  0.1978 -1.0023
   26MOL   H100 9150   6.006   6.299   6.945  1.2781  0.3711 -0.1465
   26MOL   H101 9151   6.164   6.123   6.768  0.4262 -0.0050 -0.0180
   26MOL   H102 9152   6.043   6.046   6.865  0.6326 -0.4991 -2.4006
   26MOL   H103 9153   6.274   6.222   6.963  0.4290 -0.8155  1.2229
   26MOL   H104 9154   6.145   6.157   7.062 -1.8428  0.5983 -1.0260
   26MOL   H105 9155   6.328   5.981   6.901 -0.8547  1.7165 -0.0630
   26MOL   H106 9156   6.364   6.032   7.061  0.0717 -1.7690 -0.1024
   26MOL   H107 9157   6.277   5.809   7.047  0.7358  0.3296 -0.0856
   26MOL   H108 9158   6.152   5.888   7.149 -2.2673 -0.7192 -0.1800
   26MOL   H109 9159   6.121   5.852   6.985  1.4462 -2.0677 -0.1410
   26MOL   C110 9160   6.117   6.387   6.794  0.5702  0.6345 -0.2214
   26MOL   C111 9161   6.075   6.521   6.858  0.6760  0.0752  0.0316
   26MOL   C112 9162   6.099   6.630   6.759  0.2979 -0.7514  0.0862
   26MOL   C113 9163   5.978   6.653   6.662  0.5901  0.3142 -0.0907
   26MOL   C114 9164   5.998   6.775   6.571 -0.1735 -0.0240 -0.3977
   26MOL   C115 9165   5.901   6.783   6.460  0.1270  0.4305 -0.1143
   26MOL   H116 9166   6.224   6.371   6.806  0.2318 -1.1666  0.4376
   26MOL   H117 9167   6.107   6.406   6.687 -0.5989 -0.2975 -0.2846
   26MOL   H118 9168   5.968   6.510   6.876  0.4886 -1.4782 -1.8525
   26MOL   H119 9169   6.187   6.610   6.699  1.0116 -2.6826  1.6919
   26MOL   H120 9170   6.113   6.731   6.797  0.1659 -1.1098  1.1260
   26MOL   H121 9171   5.883   6.661   6.716  1.0536 -3.1022  1.4121
   26MOL   H122 9172   5.965   6.570   6.593 -2.1895  1.4405 -0.9797
   26MOL   H123 9173   6.093   6.768   6.519  0.0157  1.6594 -0.2758
   26MOL   H124 9174   6.001   6.869   6.625  1.9150 -0.4985  0.3814
   26MOL   H125 9175   5.795   6.791   6.484  0.4079 -1.0715  1.7249
   26MOL   H126 9176   5.910   6.876   6.404 -0.4238  0.0704 -0.8067
   26MOL   H127 9177   5.899   6.696   6.393  1.1721  0.2059  0.1338
   26MOL   C128 9178   6.149   6.546   6.991 -0.6483  0.3935  0.7887
   26MOL   C129 9179   6.113   6.673   7.073 -0.2165  0.2562  1.3371
   26MOL   C130 9180   6.217   6.692   7.188 -0.0918 -0.2160 -0.1108
   26MOL   C131 9181   6.358   6.747   7.142  0.0138  0.6710 -0.1077
   26MOL   C132 9182   6.439   6.807   7.263  0.1413  0.1819 -0.2276
   26MOL   C133 9183   6.575   6.858   7.214 -0.6706  0.0629 -0.5207
   26MOL   H134 9184   6.256   6.540   6.972 -0.8661  0.0812 -0.3951
   26MOL   H135 9185   6.130   6.458   7.052 -1.5611  0.6866  0.9317
   26MOL   H136 9186   6.112   6.755   7.002 -3.0008 -2.3292 -1.7600
   26MOL   H137 9187   6.179   6.763   7.262 -0.2138 -1.0218  0.6082
   26MOL   H138 9188   6.225   6.602   7.250 -1.7851  0.4560  1.1423
   26MOL   H139 9189   6.346   6.823   7.064 -0.7672 -1.7228 -2.3622
   26MOL   H140 9190   6.420   6.670   7.097  0.7954  1.6768 -0.7927
   26MOL   H141 9191   6.379   6.885   7.311 -0.9908 -1.0700  0.4061
   26MOL   H142 9192   6.455   6.725   7.332  0.8903 -0.6746 -1.3993
   26MOL   H143 9193   6.629   6.919   7.286  0.3255 -1.3739 -0.0303
   26MOL   H144 9194   6.563   6.916   7.123 -1.0265  1.7321  0.5492
   26MOL   H145 9195   6.647   6.778   7.198  2.1892  2.4954 -0.2308
   26MOL   C146 9196   5.971   6.674   7.132  1.1786  0.2058  0.2682
   26MOL   C147 9197   5.877   6.794   7.095 -0.2267 -0.3344  0.5782
   26MOL   C148 9198   5.837   6.801   6.946  0.0483  0.0138 -0.1393
   26MOL   C149 9199   5.695   6.869   6.924  0.8090 -0.8581  0.0330
   26MOL   C150 9200   5.642   6.850   6.780 -0.0777 -0.2084 -0.1580
   26MOL   C151 9201   5.513   6.918   6.740 -0.3579 -0.3267  0.3846
   26MOL   H152 9202   5.933   6.575   7.106  1.1033 -0.3527  2.4046
   26MOL   H153 9203   5.979   6.664   7.240 -1.2247  2.3121  0.6981
   26MOL   H154 9204   5.783   6.772   7.147 -0.3194 -2.0734 -0.2934
   26MOL   H155 9205   5.843   6.695   6.918  1.0912  0.6354 -2.4567
   26MOL   H156 9206   5.924   6.844   6.897  0.2093  1.2611  1.2300
   26MOL   H157 9207   5.615   6.836   6.989  0.7558 -0.8721 -0.0383
   26MOL   H158 9208   5.704   6.976   6.943 -0.3817 -0.2836 -2.3365
   26MOL   H159 9209   5.631   6.742   6.766 -0.3711 -0.3831  1.2794
   26MOL   H160 9210   5.720   6.875   6.709  0.0994 -0.4388 -0.0449
   26MOL   H161 9211   5.432   6.893   6.808 -0.5721 -1.3667 -0.2487
   26MOL   H162 9212   5.526   7.026   6.731  1.0053 -0.5593 -0.7348
   26MOL   H163 9213   5.479   6.878   6.644 -0.9868  0.5431  0.2377
   26MOL   C164 9214   5.925   6.936   7.145 -0.1453 -0.0505 -0.2722
   26MOL   C165 9215   5.894   6.980   7.291 -0.6171 -0.3774 -0.9850
   26MOL   C166 9216   6.018   7.003   7.391  0.7853 -0.3830 -0.1241
   26MOL   C167 9217   6.091   7.139   7.370  0.5755  0.9735 -0.5435
   26MOL   C168 9218   6.205   7.170   7.480  0.0508 -0.1325 -0.5647
   26MOL   C169 9219   6.311   7.277   7.434 -0.0593 -0.4447  0.3704
   26MOL   H170 9220   6.032   6.937   7.127  0.0536  0.1261  0.9303
   26MOL   H171 9221   5.881   7.009   7.077 -0.2635  2.2583  2.2004
   26MOL   H172 9222   5.843   6.894   7.334 -1.4527  0.8260  0.5373
   26MOL   H173 9223   6.081   6.914   7.381 -0.2564 -1.6154  3.5930
   26MOL   H174 9224   5.980   7.011   7.492  0.6947 -1.3162 -0.0743
   26MOL   H175 9225   6.023   7.222   7.390 -0.1168  0.4898 -0.8414
   26MOL   H176 9226   6.135   7.146   7.271 -1.0514 -0.8689 -1.4401
   26MOL   H177 9227   6.254   7.075   7.502  3.1144  1.8199  1.6325
   26MOL   H178 9228   6.160   7.213   7.570  1.1445 -0.3982  0.1192
   26MOL   H179 9229   6.266   7.371   7.399  1.4029 -0.3536 -1.3874
   26MOL   H180 9230   6.360   7.239   7.344 -0.5984 -1.9034  0.6802
   26MOL   H181 9231   6.379   7.302   7.515  0.8543 -2.2542  0.1797
   26MOL   C182 9232   5.794   7.092   7.288  0.2586  0.0170 -0.0019
   26MOL   C183 9233   5.652   7.066   7.232 -0.2066  0.1553 -0.1866
   26MOL   C184 9234   5.588   7.203   7.186 -0.0333  0.0143  0.6074
   26MOL   C185 9235   5.652   7.288   7.077 -0.1855 -0.7427  0.0886
   26MOL   C186 9236   5.578   7.428   7.052  0.6926 -0.1952  0.7104
   26MOL   C187 9237   5.654   7.528   6.966  0.3501 -0.1370 -0.2463
   26MOL   H188 9238   5.787   7.139   7.387  0.7397  1.5233 -0.6628
   26MOL   H189 9239   5.841   7.176   7.237  0.0169  1.3509  1.8942
   26MOL   H190 9240   5.664   7.008   7.141  1.2656 -1.9449  1.3214
   26MOL   H191 9241   5.495   7.174   7.137  1.2577 -0.4350 -1.6485
   26MOL   H192 9242   5.557   7.261   7.273 -0.9521 -0.0014  0.2989
   26MOL   H193 9243   5.670   7.227   6.988  2.2660 -1.2338  0.8959
   26MOL   H194 9244   5.754   7.310   7.111  0.5177 -0.5561 -2.0568
   26MOL   H195 9245   5.542   7.477   7.142 -4.1860 -0.6203 -0.8525
   26MOL   H196 9246   5.488   7.408   6.993  1.3896 -0.2933 -0.3380
   26MOL   H197 9247   5.753   7.550   7.005 -0.5573  0.5849  1.7197
   26MOL   H198 9248   5.597   7.614   6.933 -0.2421 -1.2638 -2.2695
   26MOL   H199 9249   5.677   7.479   6.871 -0.0408  2.1622 -1.5504
   26MOL   C200 9250   5.557   6.989   7.326  0.6499  0.6807 -0.0824
   26MOL   C201 9251   5.536   7.049   7.468  0.0298  0.0950 -0.0572
   26MOL   C202 9252   5.381   7.065   7.494 -0.0568  0.4555 -0.5480
   26MOL   C203 9253   5.311   7.175   7.417  0.5471 -0.1040  0.1895
   26MOL   C204 9254   5.163   7.161   7.454 -0.0509  0.2872 -0.1129
   26MOL   C205 9255   5.077   7.272   7.389  0.0182 -0.0825 -0.6985
   26MOL   H206 9256   5.584   6.884   7.337 -0.8903  0.1482 -1.1900
   26MOL   H207 9257   5.461   6.981   7.273 -0.4560  0.6563  1.8686
   26MOL   H208 9258   5.582   7.147   7.477 -2.5770  1.3498 -0.1822
   26MOL   H209 9259   5.371   7.097   7.598 -2.5858 -0.5614 -0.4397
   26MOL   H210 9260   5.331   6.968   7.494  1.3468 -0.2926 -2.1421
   26MOL   H211 9261   5.333   7.166   7.311 -1.5120  1.2743 -0.3788
   26MOL   H212 9262   5.344   7.278   7.433 -2.0179  0.6919  0.5259
   26MOL   H213 9263   5.145   7.164   7.561 -2.5560  1.4110 -0.5165
   26MOL   H214 9264   5.127   7.064   7.421 -1.2875  1.3983 -2.1369
   26MOL   H215 9265   5.115   7.277   7.287 -0.8625  0.0253 -1.0194
   26MOL   H216 9266   4.969   7.275   7.395  0.0487  1.4323 -0.5427
   26MOL   H217 9267   5.105   7.366   7.438 -1.6695 -0.6197  1.3389
   26MOL   C218 9268   5.603   6.960   7.570 -0.7008 -0.5601  0.6750
   26MOL   C219 9269   5.635   7.019   7.705  0.4034  0.5500 -0.4140
   26MOL   C220 9270   5.762   7.109   7.688 -0.2217  0.4833 -0.1855
   26MOL   C221 9271   5.806   7.184   0.092 -0.0265 -0.1018 -0.2525
   26MOL   C222 9272   5.859   7.329   0.070 -0.8409  0.2405  0.2351
   26MOL   C223 9273   5.907   7.391   0.206 -0.2365  0.3367  1.1563
   26MOL   H224 9274   5.536   6.874   7.574 -0.1204 -0.9565  2.1761
   26MOL   H225 9275   5.697   6.925   7.527 -1.2838 -1.1517 -0.1455
   26MOL   H226 9276   5.551   7.082   0.006  0.6218  0.3310  0.7678
   26MOL   H227 9277   5.752   7.176   7.603 -1.6653 -0.6374 -0.9193
   26MOL   H228 9278   5.851   7.053   7.659 -1.7008 -0.2982 -3.4087
   26MOL   H229 9279   5.883   7.119   0.134 -0.6359 -1.2892 -0.9461
   26MOL   H230 9280   5.720   7.185   0.159  0.8751 -2.0025  0.9787
   26MOL   H231 9281   5.948   7.322   0.008  0.5678  1.4138  2.0727
   26MOL   H232 9282   5.789   7.400   0.025 -1.6349 -0.2972  0.6186
   26MOL   H233 9283   5.968   7.320   0.261  2.7500 -0.2019 -2.6380
   26MOL   H234 9284   5.822   7.399   0.273 -1.5706  1.1272 -0.5965
   26MOL   H235 9285   5.965   7.484   0.200 -2.4082  1.7740  1.7811
   26MOL   C236 9286   5.655   6.903   0.087  0.1193  0.5654  0.0038
   26MOL   C237 9287   5.533   6.863   0.164  0.2056  0.5122 -0.5464
   26MOL   C238 9288   5.410   6.815   0.080 -0.2636 -0.1494  0.1921
   26MOL   C239 9289   5.451   6.676   0.019  1.3534 -1.0400 -1.1701
   26MOL   C240 9290   5.336   6.613   7.677 -0.0571 -0.3163  0.2941
   26MOL   C241 9291   5.322   6.674   7.537  0.1271 -0.3882 -0.0179
   26MOL   H242 9292   5.691   6.816   0.033  0.3638  1.0749 -0.6694
   26MOL   H243 9293   5.738   6.930   0.152  0.6291  1.5197 -1.0081
   26MOL   H244 9294   5.547   6.777   0.229  1.2360  0.0257 -1.4041
   26MOL   H245 9295   5.320   6.807   0.142  1.5033 -0.2224  2.8140
   26MOL   H246 9296   5.376   6.896   0.015 -1.3126  3.0196  4.4761
   26MOL   H247 9297   5.488   6.607   0.095 -0.5567 -1.7728 -0.8658
   26MOL   H248 9298   5.529   6.690   7.671 -0.3671  2.7419 -2.3670
   26MOL   H249 9299   5.335   6.504   7.669  0.0148 -0.2895 -0.0725
   26MOL   H250 9300   5.247   6.640   0.006 -0.3588  1.0054 -0.7876
   26MOL   H251 9301   5.239   6.631   7.481 -0.0763 -0.6299  0.4700
   26MOL   H252 9302   5.290   6.776   7.557  0.1634  0.3891 -3.6231
   26MOL   H253 9303   5.420   6.674   7.490  1.4017  0.2908  2.5309
   26MOL   C254 9304   5.502   6.978   0.255  0.1099  0.6298 -0.8395
   26MOL   C255 9305   5.503   6.957   0.404 -0.1752 -1.2345  0.5397
   26MOL   C256 9306   5.643   6.932   0.460 -0.5187  0.2575 -0.3070
   26MOL   C257 9307   5.751   7.046   0.465  0.3309  0.4686 -0.4326
   26MOL   C258 9308   5.886   7.002   0.519 -0.4987 -0.0071 -0.2859
   26MOL   C259 9309   5.986   7.119   0.538 -0.7007 -0.4259  0.1613
   26MOL   H260 9310   5.408   7.027   0.228  0.4500  0.3482 -2.5746
   26MOL   H261 9311   5.571   7.056   0.227  0.6756  0.4479  0.0418
   26MOL   H262 9312   5.475   7.055   0.442  1.4962 -1.0543  1.3890
   26MOL   H263 9313   5.639   6.891   0.561 -0.2260 -0.9556 -0.7759
   26MOL   H264 9314   5.690   6.852   0.402 -1.6853 -0.0798 -0.7905
   26MOL   H265 9315   5.758   7.100   0.371  3.2346  0.7378 -0.1053
   26MOL   H266 9316   5.716   7.121   0.536 -0.7679  1.6882 -2.2139
   26MOL   H267 9317   5.937   6.940   0.446 -0.9060 -0.8059  0.1036
   26MOL   H268 9318   5.866   6.935   0.603 -0.5065  0.2845 -0.0534
   26MOL   H269 9319   6.009   7.160   0.440 -1.9937  0.5758  0.2593
   26MOL   H270 9320   6.075   7.063   0.568 -0.7683 -1.1556 -0.9711
   26MOL   H271 9321   5.954   7.199   0.605  0.2008  0.9987 -1.0686
   26MOL   C272 9322   5.407   6.847   0.447 -0.3912  0.2607  0.5558
   26MOL   C273 9323   5.351   6.881   0.589  0.0086  0.1278  0.1176
   26MOL   C274 9324   5.370   6.749   0.677 -0.2189  0.3335 -0.2187
   26MOL   C275 9325   5.327   6.763   0.825 -0.7712 -0.2603 -0.0779
   26MOL   C276 9326   5.383   6.646   0.913 -0.5609 -0.3308 -0.2161
   26MOL   C277 9327   5.315   6.668   1.054  0.3736  1.6321 -0.3793
   26MOL   H278 9328   5.322   6.829   0.382  1.0864 -1.9982 -0.8447
   26MOL   H279 9329   5.457   6.751   0.434  2.8201  1.6043  2.4004
   26MOL   H280 9330   5.416   6.960   0.626  2.9344 -0.5913 -3.2520
   26MOL   H281 9331   5.476   6.725   0.687 -0.2533  0.4423  0.4344
   26MOL   H282 9332   5.325   6.664   0.628 -0.6876  0.3045  0.2647
   26MOL   H283 9333   5.218   6.764   0.833 -0.6221 -0.7016  2.7318
   26MOL   H284 9334   5.363   6.854   0.874  1.1767 -0.9847 -0.1390
   26MOL   H285 9335   5.358   6.551   0.864 -1.1021 -0.6293  0.6270
   26MOL   H286 9336   5.491   6.638   0.908 -0.4481  0.8063  0.2258
   26MOL   H287 9337   5.347   6.754   1.113  4.0686  1.5426 -2.1344
   26MOL   H288 9338   5.206   6.667   1.054  0.3726 -0.4121  0.3479
   26MOL   H289 9339   5.349   6.579   1.108  0.9007  1.6759 -0.6376
   26MOL   C290 9340   5.198   6.931   0.588  0.8118  0.1271 -0.0166
   26MOL   C291 9341   5.168   7.081   0.559  0.5920 -0.4871 -0.4648
   26MOL   C292 9342   5.016   7.090   0.530 -0.5263  0.1052  0.2471
   26MOL   C293 9343   4.966   7.047   0.386 -0.2190 -0.7494 -0.0618
   26MOL   C294 9344   4.814   7.040   0.379  0.2798  0.3102  0.0879
   26MOL   C295 9345   4.750   7.182   0.349  0.7463  0.7460  0.5282
   26MOL   H296 9346   5.153   6.897   0.681  2.2219 -1.2196  0.1886
   26MOL   H297 9347   5.146   6.869   0.515  2.4422 -2.3662  0.8731
   26MOL   H298 9348   5.210   7.115   0.465  0.4698  1.6311  0.2361
   26MOL   H299 9349   5.002   7.198   0.532 -2.0248 -0.0514 -0.6197
   26MOL   H300 9350   4.961   7.038   0.609  1.6128 -0.5698  1.3128
   26MOL   H301 9351   5.001   7.115   0.308 -1.7731  0.0382 -0.0919
   26MOL   H302 9352   4.995   6.946   0.358 -0.7753 -1.1848  0.8977
   26MOL   H303 9353   4.772   6.991   0.467 -1.5727 -0.1404 -1.0138
   26MOL   H304 9354   4.779   6.963   0.310 -0.0591 -2.3438  3.1191
   26MOL   H305 9355   4.759   7.253   0.431  0.6563  0.3509  0.8872
   26MOL   H306 9356   4.644   7.157   0.347  0.4145  1.9621  2.0369
   26MOL   H307 9357   4.783   7.220   0.253 -0.6147 -1.8268 -1.0003
   26MOL   C308 9358   5.222   7.168   0.672 -0.0391 -0.0517 -0.2226
   26MOL   C309 9359   5.209   7.317   0.646  0.5164 -0.1607  0.0083
   26MOL   C310 9360   5.343   7.370   0.598 -0.5906  0.0913  0.4456
   26MOL   C311 9361   5.362   7.519   0.556 -0.2508  0.4066  0.1446
   26MOL   C312 9362   5.499   7.555   0.493  0.4577  0.1196 -0.5227
   26MOL   C313 9363   5.504   7.514   0.345 -0.4291 -0.2309  0.6786
   26MOL   H314 9364   5.174   7.145   0.767  0.6510  1.5889  0.5300
   26MOL   H315 9365   5.327   7.152   0.695 -0.2946 -2.8927 -0.8632
   26MOL   H316 9366   5.136   7.337   0.568 -0.8517 -1.8487  0.7978
   26MOL   H317 9367   5.395   7.309   0.523  1.7851  0.8431  1.4307
   26MOL   H318 9368   5.411   7.355   0.682  0.8505  0.3019 -0.6585
   26MOL   H319 9369   5.363   7.572   0.651  0.7567 -1.6967  1.3356
   26MOL   H320 9370   5.286   7.554   0.486  0.5608 -0.1373 -1.0316
   26MOL   H321 9371   5.490   7.664   0.501 -0.7731 -0.1345  2.2799
   26MOL   H322 9372   5.582   7.521   0.556 -0.3060  1.3807  1.2025
   26MOL   H323 9373   5.572   7.584   0.295 -0.9267 -2.4256 -3.2338
   26MOL   H324 9374   5.410   7.529   0.292 -0.1389  0.1183  0.2578
   26MOL   H325 9375   5.538   7.411   0.336  0.8766  0.1473  1.1747
   26MOL   C326 9376   5.164   7.402   0.769  0.2832 -0.0643  0.6287
   26MOL   C327 9377   5.021   7.379   0.801  0.1096 -0.0150  0.1207
   26MOL   C328 9378   4.985   7.398   0.941 -0.8251 -0.4079 -0.4737
   26MOL   C329 9379   4.992   7.545   0.994 -0.2435 -0.1834  0.1758
   26MOL   C330 9380   4.987   7.546   1.148  0.4210  0.7560 -0.0733
   26MOL   C331 9381   5.132   7.534   1.198 -0.0937  0.4833 -0.5059
   26MOL   H332 9382   5.185   7.508   0.779 -0.6584  0.3389 -1.4576
   26MOL   H333 9383   5.229   7.374   0.852  0.8671  0.6364  0.4046
   26MOL   H334 9384   4.991   7.278   0.775 -2.5032  1.0346 -1.0461
   26MOL   H335 9385   4.886   7.361   0.965  0.3024 -2.8444  0.6985
   26MOL   H336 9386   5.050   7.330   0.998 -2.0151  1.2022  2.9717
   26MOL   H337 9387   4.894   7.588   0.970  0.0708 -0.6197 -2.0304
   26MOL   H338 9388   5.063   7.615   0.951 -1.9123  1.0164 -0.6768
   26MOL   H339 9389   4.946   7.640   1.184  1.3576  1.7036 -1.4295
   26MOL   H340 9390   4.910   7.471   1.169 -0.5375  1.0698 -2.2355
   26MOL   H341 9391   5.174   7.435   1.184 -2.0978 -0.4824  0.2493
   26MOL   H342 9392   5.138   7.553   1.305  0.9933  2.0593 -0.8223
   26MOL   H343 9393   5.206   7.599   1.151  0.2035 -0.4753 -1.3849
   26MOL   C344 9394   4.927   7.466   0.707  0.0982 -0.0914 -0.6109
   26MOL   C345 9395   4.787   7.418   0.698  0.6234 -0.9420 -0.1377
   26MOL   C346 9396   4.689   7.525   0.639 -0.3433  0.1095  0.4019
   26MOL   C347 9397   4.718   7.554   0.491  0.4359  0.1962 -0.2648
   26MOL   C348 9398   4.596   7.623   0.438 -0.9949 -0.0699  0.1339
   26MOL   C349 9399   4.611   7.669   0.293  0.1705  0.2067 -0.2583
   26MOL   H350 9400   4.932   7.569   0.743 -0.9590 -0.6936  1.3496
   26MOL   H351 9401   4.961   7.462   0.604  1.0842 -0.9463 -0.2625
   26MOL   H352 9402   4.745   7.404   0.798  0.6208  1.4650  0.2337
   26MOL   H353 9403   4.589   7.489   0.665  0.2469 -1.0171  1.1675
   26MOL   H354 9404   4.702   7.619   0.692  0.9389  0.3479 -0.3277
   26MOL   H355 9405   4.809   7.615   0.494  0.2260  0.5891 -1.5697
   26MOL   H356 9406   4.727   7.460   0.438  1.0755 -0.7034  1.3953
   26MOL   H357 9407   4.504   7.564   0.436 -1.7203  1.0528 -0.3960
   26MOL   H358 9408   4.587   7.705   0.509  2.0673  0.3450  0.1175
   26MOL   H359 9409   4.515   7.712   0.262 -0.5016 -1.6713 -0.8703
   26MOL   H360 9410   4.693   0.009   0.273  1.8277 -1.7691 -0.2794
   26MOL   H361 9411   4.634   7.586   0.226  1.7134  0.4538 -0.0297
   26MOL   H362 9412   4.773   7.320   0.653  1.5483 -0.3104 -1.8348
   27MOL     C1 9413   3.348   0.668   0.850  0.0438 -0.5644 -0.2302
   27MOL     C2 9414   3.355   0.736   0.706 -0.6700 -0.1927 -0.0740
   27MOL     C3 9415   3.214   0.791   0.656  0.4223  0.0033 -0.9673
   27MOL     C4 9416   3.152   0.908   0.737  0.1781  0.0381 -0.7103
   27MOL     C5 9417   3.233   1.039   0.735 -0.0834 -0.0368 -0.3277
   27MOL     C6 9418   3.192   1.142   0.629 -0.4646 -0.1739  0.4040
   27MOL     H7 9419   3.450   0.647   0.881  0.8304  1.5128 -1.2936
   27MOL     H8 9420   3.302   0.737   0.921  0.5182  2.5733 -2.8774
   27MOL     H9 9421   3.431   0.814   0.712  2.2538 -2.7419 -2.3248
   27MOL    H10 9422   3.146   0.706   0.667  0.7250 -0.1798 -0.4261
   27MOL    H11 9423   3.220   0.824   0.553 -1.5941 -0.2046 -1.1647
   27MOL    H12 9424   3.156   0.872   0.840 -1.1328  0.5733 -0.4754
   27MOL    H13 9425   3.047   0.927   0.717 -0.9197 -3.8158  0.8581
   27MOL    H14 9426   3.212   1.082   0.833  1.3024  1.1520 -0.5265
   27MOL    H15 9427   3.338   1.010   0.729  0.1558  0.3504  1.5889
   27MOL    H16 9428   3.245   1.114   0.538 -0.9671  0.3851 -0.0676
   27MOL    H17 9429   3.214   1.243   0.663 -3.0117  0.5565  0.0006
   27MOL    H18 9430   3.087   1.131   0.599 -0.3346  0.5740 -0.3392
   27MOL    H19 9431   3.287   0.578   0.847 -1.8134  0.6963 -0.9514
   27MOL    C20 9432   3.422   0.640   0.601 -0.1145 -0.6153  0.1598
   27MOL    C21 9433   3.442   0.685   0.451  0.3852  0.4395  0.0117
   27MOL    C22 9434   3.502   0.829   0.442 -0.2251 -0.0414  0.6478
   27MOL    C23 9435   3.640   0.851   0.495  0.2975 -0.4022 -0.0195
   27MOL    C24 9436   3.682   1.003   0.481  0.6417 -0.2700  0.2834
   27MOL    C25 9437   3.715   1.042   0.334 -0.8416 -0.1212  0.5977
   27MOL    H26 9438   3.373   0.543   0.616  0.9123 -0.9397  1.6093
   27MOL    H27 9439   3.524   0.629   0.640 -0.1332 -1.1032  0.0794
   27MOL    H28 9440   3.342   0.690   0.407  0.9951  0.2148 -1.4192
   27MOL    H29 9441   3.432   0.896   0.492 -1.7285 -0.1866 -1.1999
   27MOL    H30 9442   3.493   0.853   0.336 -1.9289 -1.2173  0.4941
   27MOL    H31 9443   3.703   0.791   0.429  0.5397 -1.5634  1.2497
   27MOL    H32 9444   3.648   0.815   0.597 -2.2960 -2.0817 -0.3680
   27MOL    H33 9445   3.605   1.073   0.511  0.2555 -0.3845 -0.4212
   27MOL    H34 9446   3.771   1.026   0.541 -0.1032  3.5258  0.0488
   27MOL    H35 9447   3.621   1.071   0.286 -1.1787  0.7533  1.7792
   27MOL    H36 9448   3.788   1.122   0.322 -1.3639  0.5049  1.5287
   27MOL    H37 9449   3.751   0.954   0.280 -0.4643 -0.1433  0.8886
   27MOL    C38 9450   3.535   0.584   0.371  0.1433 -0.4870  0.1348
   27MOL    C39 9451   3.483   0.441   0.342 -0.2906  0.0158  0.3503
   27MOL    C40 9452   3.349   0.426   0.268  0.5915 -0.2373 -0.2845
   27MOL    C41 9453   3.342   0.486   0.125 -0.0962  0.4688 -0.5511
   27MOL    C42 9454   3.222   0.439   0.039 -0.6864 -0.0682  0.1034
   27MOL    C43 9455   3.079   0.467   0.094  1.3748  0.2686  0.0050
   27MOL    H44 9456   3.634   0.574   0.417  1.0298 -1.7973 -1.9523
   27MOL    H45 9457   3.546   0.626   0.271 -1.2211 -1.1590 -0.3128
   27MOL    H46 9458   3.461   0.383   0.431 -0.1394  0.4422  0.6663
   27MOL    H47 9459   3.319   0.321   0.269  0.8225 -0.3029 -0.2464
   27MOL    H48 9460   3.283   0.476   0.339  1.0830 -1.8211  1.3206
   27MOL    H49 9461   3.325   0.590   0.153 -1.8650  0.4098 -1.3578
   27MOL    H50 9462   3.436   0.476   0.072  1.6515 -0.3566  2.6003
   27MOL    H51 9463   3.237   0.474   7.664 -0.4729 -0.5951 -0.0506
   27MOL    H52 9464   3.237   0.332   0.026 -0.7587 -0.0067 -0.4864
   27MOL    H53 9465   3.065   0.418   0.190  1.0388  1.1506  0.4068
   27MOL    H54 9466   2.999   0.434   0.027  0.8299 -0.6766  1.1134
   27MOL    H55 9467   3.058   0.573   0.104 -1.8371 -0.1968 -1.1837
   27MOL    C56 9468   3.589   0.369   0.259  0.5814 -0.2064 -0.4715
   27MOL    C57 9469   3.664   0.251   0.329  0.3242  0.2371  0.1423
   27MOL    C58 9470   3.584   0.126   0.384 -0.0014 -0.0620  0.2657
   27MOL    C59 9471   3.660   7.724   0.412  0.1033 -0.4389 -0.3316
   27MOL    C60 9472   3.712   7.646   0.291 -0.3826 -0.0914  0.5509
   27MOL    C61 9473   3.772   7.518   0.345 -0.5977 -0.4118  0.2118
   27MOL    H62 9474   3.542   0.319   0.174 -2.4017  0.3940  0.7664
   27MOL    H63 9475   3.656   0.440   0.211  0.9810 -2.1783 -2.9693
   27MOL    H64 9476   3.720   0.207   0.246  1.4009  0.8936  0.5129
   27MOL    H65 9477   3.529   0.163   0.470 -2.3111  0.8533 -1.5572
   27MOL    H66 9478   3.509   0.091   0.313  1.8253  1.2479 -2.4179
   27MOL    H67 9479   3.592   7.658   0.467 -1.1471  1.9315  1.0600
   27MOL    H68 9480   3.746   0.018   0.476 -0.3214 -1.0716  0.4714
   27MOL    H69 9481   3.639   7.638   0.211 -1.1814  0.5665  1.2028
   27MOL    H70 9482   3.797   7.703   0.252 -0.2420 -0.7687 -0.1499
   27MOL    H71 9483   3.842   7.540   0.426  0.5321 -4.3125  0.4018
   27MOL    H72 9484   3.695   7.452   0.385  0.2113 -1.0566  0.7213
   27MOL    H73 9485   3.831   7.461   0.273  1.6035 -0.0002  1.6278
   27MOL    C74 9486   3.768   0.299   0.439 -0.0521  0.0749 -0.2815
   27MOL    C75 9487   3.882   0.395   0.397 -0.2054 -0.1743 -0.1133
   27MOL    C76 9488   3.934   0.451   0.531  0.7239 -0.8535  0.0015
   27MOL    C77 9489   3.841   0.556   0.597  0.3419 -0.3904 -0.2771
   27MOL    C78 9490   3.907   0.601   0.720  0.5985 -0.4185  0.1161
   27MOL    C79 9491   3.825   0.705   0.797 -0.4583 -0.3960 -0.4696
   27MOL    H80 9492   3.715   0.345   0.523  1.3319  0.2696  0.4897
   27MOL    H81 9493   3.811   0.216   0.494 -1.3092  0.8888  2.0241
   27MOL    H82 9494   3.853   0.486   0.346 -0.4565  0.1580  0.6164
   27MOL    H83 9495   3.936   0.369   0.603 -2.8028 -0.9602  0.0835
   27MOL    H84 9496   4.034   0.490   0.519  0.7547 -0.9670 -0.1243
   27MOL    H85 9497   3.842   0.645   0.534  2.3966 -1.1284 -1.3230
   27MOL    H86 9498   3.737   0.527   0.614  0.2382  0.7346  1.0497
   27MOL    H87 9499   4.001   0.651   0.698  0.7903 -1.1775 -0.8134
   27MOL    H88 9500   3.937   0.517   0.783 -0.9822 -0.0226  1.4217
   27MOL    H89 9501   3.794   0.787   0.732 -1.7466 -1.2651 -0.9674
   27MOL    H90 9502   3.738   0.660   0.846 -0.5214 -1.2741 -1.3617
   27MOL    H91 9503   3.894   0.739   0.874  1.5958  0.2295 -2.5397
   27MOL    C92 9504   3.989   0.320   0.312 -0.1303 -0.1807 -0.1936
   27MOL    C93 9505   4.111   0.412   0.266 -0.8370  0.0262 -0.4499
   27MOL    C94 9506   4.249   0.324   0.271  0.6271 -0.5202  0.4705
   27MOL    C95 9507   4.375   0.407   0.250  0.2546  0.5117 -0.6594
   27MOL    C96 9508   4.508   0.324   0.285 -0.5690 -0.7138 -0.8622
   27MOL    C97 9509   4.539   0.310   0.431  0.5253 -0.1585  0.1099
   27MOL    H98 9510   4.037   0.258   0.387 -1.3014 -1.9472 -0.8589
   27MOL    H99 9511   3.944   0.254   0.237  1.2559  0.4791 -1.6336
   27MOL   H100 9512   4.131   0.496   0.332 -2.5769  0.4657 -0.4456
   27MOL   H101 9513   4.251   0.253   0.188  0.5942  0.2075 -0.1558
   27MOL   H102 9514   4.254   0.271   0.366  0.2476 -0.4340  0.5385
   27MOL   H103 9515   4.375   0.436   0.145  2.6026  0.9309 -0.5796
   27MOL   H104 9516   4.377   0.493   0.316 -0.4365 -1.6746  2.2963
   27MOL   H105 9517   4.504   0.225   0.241 -1.3606 -0.8449 -0.4908
   27MOL   H106 9518   4.592   0.368   0.230 -1.1149 -0.7745 -1.7485
   27MOL   H107 9519   4.637   0.264   0.442 -0.9476 -3.4340  0.0086
   27MOL   H108 9520   4.540   0.407   0.481  0.9620 -0.8243  1.4162
   27MOL   H109 9521   4.466   0.245   0.480 -0.5840 -0.6471 -2.1551
   27MOL   C110 9522   4.084   0.481   0.130  0.6953  0.3233 -0.1391
   27MOL   C111 9523   4.135   0.624   0.123  0.2835 -0.0262  0.5745
   27MOL   C112 9524   4.055   0.728   0.198  0.9165  0.0506 -0.3370
   27MOL   C113 9525   4.138   0.850   0.247 -0.7246 -0.4412  0.4095
   27MOL   C114 9526   4.065   0.954   0.330  0.1573 -0.1638  0.4222
   27MOL   C115 9527   4.039   0.893   0.468 -0.7157 -0.3589  0.3126
   27MOL   H116 9528   4.121   0.421   0.047  0.0987  0.0734 -0.2250
   27MOL   H117 9529   3.975   0.484   0.117  0.5595  1.9053  1.1053
   27MOL   H118 9530   4.236   0.618   0.163  0.4471  1.5483  0.4337
   27MOL   H119 9531   4.014   0.671   0.280  0.0145  1.5093  0.2505
   27MOL   H120 9532   3.966   0.762   0.145  1.4333  0.8622 -0.7170
   27MOL   H121 9533   4.172   0.904   0.158 -0.1943 -2.1649 -0.4597
   27MOL   H122 9534   4.227   0.823   0.304  0.0213  1.8271  0.3633
   27MOL   H123 9535   3.982   0.994   0.271  0.9296  1.1143  0.1863
   27MOL   H124 9536   4.137   1.036   0.336  0.7663 -0.8040  2.2000
   27MOL   H125 9537   4.011   0.977   0.532  1.3554  1.6206 -1.2945
   27MOL   H126 9538   3.955   0.823   0.466 -1.2708  0.2994 -3.2458
   27MOL   H127 9539   4.118   0.836   0.517 -0.2265  0.6713  0.7197
   27MOL   C128 9540   4.139   0.674   7.698 -0.3311  0.4146  0.6339
   27MOL   C129 9541   4.277   0.652   7.632  0.2054 -1.0210  0.3851
   27MOL   C130 9542   4.380   0.754   7.685 -0.4328 -0.3880 -0.6360
   27MOL   C131 9543   4.533   0.715   7.663 -0.7023  0.0312  0.2957
   27MOL   C132 9544   4.618   0.831   7.701 -0.7717  0.3070  0.4031
   27MOL   C133 9545   4.760   0.783   0.022 -0.2630  0.7126  0.6896
   27MOL   H134 9546   4.101   0.776   7.697 -0.1543  0.4780  0.3746
   27MOL   H135 9547   4.069   0.616   7.637  2.1600 -2.6371  0.5575
   27MOL   H136 9548   4.319   0.552   7.648 -0.8588 -1.6465 -0.7447
   27MOL   H137 9549   4.358   0.855   7.650 -1.4801 -0.7389 -1.0146
   27MOL   H138 9550   4.366   0.768   0.065  1.2999 -0.4365 -0.3825
   27MOL   H139 9551   4.561   0.697   7.559  0.0076  0.5806  0.3913
   27MOL   H140 9552   4.566   0.638   0.006  0.3178 -0.1434 -0.3660
   27MOL   H141 9553   4.635   0.898   7.617  2.2207 -1.5880 -0.5870
   27MOL   H142 9554   4.564   0.879   0.056 -1.1967  0.6103 -0.0505
   27MOL   H143 9555   4.743   0.713   0.104  0.7465 -2.3502 -1.6156
   27MOL   H144 9556   4.816   0.866   0.066  0.7315 -0.8872  2.5229
   27MOL   H145 9557   4.821   0.732   7.674  1.2383  1.3393  1.4512
   27MOL   C146 9558   4.261   0.671   7.477 -0.4357  0.1823  0.4331
   27MOL   C147 9559   4.293   0.553   7.384  0.4753 -0.1015  0.5741
   27MOL   C148 9560   4.341   0.583   7.242 -0.1263  0.0580 -0.3755
   27MOL   C149 9561   4.252   0.682   7.169 -0.3214 -0.2282 -0.7826
   27MOL   C150 9562   4.114   0.624   7.149  0.3705  0.3548 -0.3541
   27MOL   C151 9563   4.027   0.717   7.062 -0.2965 -0.0412  0.4651
   27MOL   H152 9564   4.160   0.707   7.459 -0.2883  0.1376 -0.4877
   27MOL   H153 9565   4.322   0.757   7.452  0.5341 -0.6211 -0.0289
   27MOL   H154 9566   4.388   0.526   7.430 -0.4897 -1.8247  1.5936
   27MOL   H155 9567   4.347   0.491   7.183 -1.0905  1.1255 -2.1830
   27MOL   H156 9568   4.437   0.635   7.240 -1.5173  2.6601 -2.4156
   27MOL   H157 9569   4.245   0.768   7.235 -1.5889  0.0372 -1.2650
   27MOL   H158 9570   4.311   0.700   7.079 -0.8668  0.4314 -1.0040
   27MOL   H159 9571   4.063   0.621   7.246 -0.1416  0.3373 -0.6225
   27MOL   H160 9572   4.129   0.528   7.101 -1.9717 -0.5000  0.5492
   27MOL   H161 9573   4.031   0.814   7.111  1.3317 -0.1893  0.6766
   27MOL   H162 9574   4.064   0.742   6.962  2.3930 -2.7523  0.6921
   27MOL   H163 9575   3.926   0.678   7.050 -0.1279 -0.0980 -0.9249
   27MOL   C164 9576   4.199   0.424   7.393  0.6533 -0.1154 -0.0297
   27MOL   C165 9577   4.250   0.296   7.320 -1.1280 -0.5882  0.0002
   27MOL   C166 9578   4.391   0.246   7.362  1.0642 -0.7813 -0.5255
   27MOL   C167 9579   4.404   0.181   7.499 -0.2844  0.1736 -1.1573
   27MOL   C168 9580   4.522   0.085   7.515 -0.1036 -0.5354 -0.6580
   27MOL   C169 9581   4.473   7.671   7.480 -0.2896 -0.1103 -0.0954
   27MOL   H170 9582   4.167   0.400   7.494 -2.4512 -2.0492 -1.3845
   27MOL   H171 9583   4.105   0.447   7.343  1.1397  0.5088 -0.6641
   27MOL   H172 9584   4.257   0.310   7.212  0.3316  2.4990  0.4406
   27MOL   H173 9585   4.469   0.321   7.354  0.8083 -0.1964  1.8975
   27MOL   H174 9586   4.396   0.158   7.297 -0.9663 -0.0502 -1.7249
   27MOL   H175 9587   4.312   0.141   7.542  0.8135 -0.9364  0.1801
   27MOL   H176 9588   4.422   0.262   7.571  0.4603 -1.6053  0.7066
   27MOL   H177 9589   4.563   0.088   7.616 -0.8984 -2.2156 -0.2670
   27MOL   H178 9590   4.599   0.109   7.442 -0.8626  0.5230 -1.1239
   27MOL   H179 9591   4.391   7.637   7.543  0.1579 -1.3532 -0.1608
   27MOL   H180 9592   4.556   7.607   7.509  0.2420  2.0313  3.4881
   27MOL   H181 9593   4.451   7.660   7.374  0.1911  1.1216 -0.3350
   27MOL   C182 9594   4.141   0.184   7.331  0.7770  0.4901  0.2625
   27MOL   C183 9595   4.013   0.207   7.246 -0.7902 -0.9461 -0.2385
   27MOL   C184 9596   3.888   0.164   7.329 -0.3417  0.5753  0.3234
   27MOL   C185 9597   3.865   0.238   7.464  0.2115  0.7853 -0.1898
   27MOL   C186 9598   3.719   0.241   7.505  0.3799  0.0165 -0.1698
   27MOL   C187 9599   3.698   0.298   7.649  0.6718  0.1271  0.6255
   27MOL   H188 9600   4.172   0.081   7.312  0.1351  0.9873 -3.7882
   27MOL   H189 9601   4.120   0.181   7.438  0.5440  0.1623  0.2108
   27MOL   H190 9602   3.988   0.312   7.230 -2.3002 -1.4556 -1.3027
   27MOL   H191 9603   3.809   0.211   7.270  0.0013  0.8052  0.0518
   27MOL   H192 9604   3.879   0.056   7.337 -1.7115  0.6213 -0.4713
   27MOL   H193 9605   3.897   0.342   7.455  0.8544  0.6388  0.3467
   27MOL   H194 9606   3.931   0.204   7.543 -0.4577  0.2995  0.1588
   27MOL   H195 9607   3.682   0.138   7.498  0.9169 -0.1965  0.0927
   27MOL   H196 9608   3.657   0.304   7.441 -0.9798  0.5745  1.6798
   27MOL   H197 9609   3.763   0.386   7.645 -0.1438  0.8420  2.5779
   27MOL   H198 9610   3.739   0.250   0.011 -1.3341 -2.0801  0.3889
   27MOL   H199 9611   3.597   0.335   7.663  0.2695 -1.4951  2.1661
   27MOL   C200 9612   3.996   0.139   7.110 -0.4461  0.7966 -0.1740
   27MOL   C201 9613   4.093   0.185   7.000  0.6161 -0.5323  0.1783
   27MOL   C202 9614   4.215   0.097   7.006 -0.7108 -0.0782  0.3816
   27MOL   C203 9615   4.336   0.151   6.932 -0.0622  0.0595 -0.2407
   27MOL   C204 9616   4.456   0.062   6.929  0.1736 -0.0700  0.2699
   27MOL   C205 9617   4.583   0.126   6.857  0.5945  0.4714  0.9065
   27MOL   H206 9618   3.893   0.153   7.078  0.1746 -1.2384 -3.3033
   27MOL   H207 9619   4.013   0.032   7.124 -0.2007  0.9759  1.0001
   27MOL   H208 9620   4.124   0.289   7.004 -0.7175 -0.0763 -1.1345
   27MOL   H209 9621   4.187   7.724   6.973 -0.1896 -0.1120  0.0456
   27MOL   H210 9622   4.258   0.077   7.104  0.5039 -1.0283 -0.3372
   27MOL   H211 9623   4.356   0.246   6.980 -0.9233 -0.0353  0.3199
   27MOL   H212 9624   4.310   0.181   6.831  0.2686  0.1492 -0.3026
   27MOL   H213 9625   4.433   7.694   6.880 -2.0614 -0.2387  1.5846
   27MOL   H214 9626   4.481   0.039   7.032  1.5769 -1.3392 -0.3266
   27MOL   H215 9627   4.588   0.118   6.748 -1.1140 -2.0406  0.9647
   27MOL   H216 9628   4.606   0.227   6.891 -1.9881  1.4502 -0.1389
   27MOL   H217 9629   4.672   0.071   6.886 -0.3194 -0.3204  2.2437
   27MOL   C218 9630   4.031   0.181   6.865 -0.7347  0.4389  0.1613
   27MOL   C219 9631   3.967   0.310   6.809  0.5827 -0.3234  0.3574
   27MOL   C220 9632   3.835   0.357   6.869  0.1978  0.6572  0.2110
   27MOL   C221 9633   3.709   0.273   6.832  0.0110  0.1163  0.0026
   27MOL   C222 9634   3.585   0.299   6.918  0.1927  0.4806  0.0538
   27MOL   C223 9635   3.471   0.187   6.880 -0.2173 -0.1243  0.7055
   27MOL   H224 9636   4.100   0.149   6.787 -1.9458  0.1156 -0.7746
   27MOL   H225 9637   3.950   0.108   6.860  0.1816 -0.6985  1.5003
   27MOL   H226 9638   4.051   0.375   6.830  0.6862 -0.4675  0.3894
   27MOL   H227 9639   3.826   0.456   6.824  2.1735 -0.9082 -3.9151
   27MOL   H228 9640   3.858   0.371   6.974 -0.4452  0.9837  0.3080
   27MOL   H229 9641   3.729   0.168   6.849 -1.4104 -0.1955 -0.1736
   27MOL   H230 9642   3.687   0.282   6.726 -0.5478 -0.0658  0.0997
   27MOL   H231 9643   3.618   0.293   7.022  2.2810  0.0270 -0.6129
   27MOL   H232 9644   3.557   0.403   6.902 -2.5516 -0.1885  0.2460
   27MOL   H233 9645   3.435   0.209   6.779  0.8882  1.3961  0.6364
   27MOL   H234 9646   3.383   0.184   6.945 -0.1295 -1.6577  0.7805
   27MOL   H235 9647   3.520   0.090   6.888  1.5648  0.6359 -0.7527
   27MOL   C236 9648   3.960   0.306   6.657 -0.4903 -0.3451 -0.1117
   27MOL   C237 9649   4.093   0.314   6.575  0.4936 -0.7210  0.0818
   27MOL   C238 9650   4.107   0.459   6.534  0.3859  0.2413  0.1500
   27MOL   C239 9651   4.130   0.563   6.645 -0.3498  0.6297 -0.3799
   27MOL   C240 9652   4.179   0.696   6.592  0.0870 -1.1220 -0.1945
   27MOL   C241 9653   4.192   0.791   6.707 -0.1144 -0.2229 -0.2153
   27MOL   H242 9654   3.886   0.231   6.630 -0.8821  0.3958 -1.0969
   27MOL   H243 9655   3.908   0.396   6.626  3.1770  0.7826 -3.4258
   27MOL   H244 9656   4.180   0.283   6.633  0.3018 -2.0221 -0.3113
   27MOL   H245 9657   4.190   0.467   6.463  0.8073 -0.1051  0.6064
   27MOL   H246 9658   4.017   0.491   6.481  1.1606  0.0413 -1.3239
   27MOL   H247 9659   4.195   0.526   6.724  0.1213  0.4222 -0.8627
   27MOL   H248 9660   4.039   0.581   6.702  0.0483  2.0252 -0.1578
   27MOL   H249 9661   4.269   0.666   6.537  0.1148 -1.6424  0.1243
   27MOL   H250 9662   4.110   0.740   6.521  1.0807  2.0068  0.7086
   27MOL   H251 9663   4.262   0.759   6.784 -0.3493 -0.6674 -0.1827
   27MOL   H252 9664   4.236   0.881   6.664 -0.1574 -0.9849 -1.8876
   27MOL   H253 9665   4.093   0.819   6.744 -0.7203 -1.9668 -0.4859
   27MOL   C254 9666   4.086   0.220   6.451 -0.0051 -0.4968 -0.6770
   27MOL   C255 9667   4.078   0.059   6.477 -0.4903  0.3058  0.3469
   27MOL   C256 9668   4.215   0.005   6.511  0.2821 -0.2495  0.8036
   27MOL   C257 9669   4.190   7.599   6.580  0.0694  0.5279  0.4145
   27MOL   C258 9670   4.329   7.544   6.631 -0.2551  0.0301 -0.2706
   27MOL   C259 9671   4.323   7.412   6.713  0.1239  0.5831 -0.6942
   27MOL   H260 9672   4.165   0.241   6.380 -0.4499  1.9420 -0.4706
   27MOL   H261 9673   3.999   0.250   6.393 -1.1027  2.6652  2.4295
   27MOL   H262 9674   4.005   0.036   6.554 -1.5920  2.2556 -0.0922
   27MOL   H263 9675   4.286   7.726   6.428  1.3116  2.4570  1.4281
   27MOL   H264 9676   4.248   0.083   6.580  1.1945 -0.3279  0.4720
   27MOL   H265 9677   4.120   7.607   6.663 -2.5833 -3.2426 -1.3192
   27MOL   H266 9678   4.156   7.525   6.508 -0.4546 -0.9187  2.1104
   27MOL   H267 9679   4.394   7.615   6.682  1.3073  0.4168 -2.7243
   27MOL   H268 9680   4.384   7.525   6.540  0.0406 -1.6516  0.2331
   27MOL   H269 9681   4.297   7.331   6.644  0.4945 -0.2632  0.1361
   27MOL   H270 9682   4.246   7.407   6.789 -0.2096  2.8552 -0.8527
   27MOL   H271 9683   4.411   7.378   6.769 -0.1526 -0.8953 -1.1221
   27MOL   C272 9684   4.023   7.719   6.352 -0.0871  1.1348  0.1169
   27MOL   C273 9685   3.876   0.031   6.303  0.0453  0.3727 -0.1227
   27MOL   C274 9686   3.770   0.040   6.415 -0.1038 -0.1403 -0.0283
   27MOL   C275 9687   3.759   7.653   6.513  0.2844  0.5426 -0.4914
   27MOL   C276 9688   3.698   7.699   6.645 -0.4499 -0.7565 -0.5523
   27MOL   C277 9689   3.718   7.605   6.772 -0.3434 -0.0716 -0.1385
   27MOL   H278 9690   4.087   0.032   6.273  0.9190  0.5456  0.6200
   27MOL   H279 9691   4.034   7.611   6.358  0.7743  1.2079 -0.0953
   27MOL   H280 9692   3.883   0.130   6.258 -1.4532  0.1245 -0.9443
   27MOL   H281 9693   3.671   0.056   6.373  0.1300 -0.3381 -0.6633
   27MOL   H282 9694   3.802   0.132   6.464  0.7188 -0.4630  0.0453
   27MOL   H283 9695   3.847   7.591   6.526  0.3987  0.8912  0.4219
   27MOL   H284 9696   3.690   7.582   6.468 -1.5127  2.9356 -1.7021
   27MOL   H285 9697   3.750   0.063   6.674 -1.9598  0.5398 -1.8303
   27MOL   H286 9698   3.592   7.725   6.647 -0.6342 -1.5129  1.5312
   27MOL   H287 9699   3.669   7.509   6.754  1.5730 -0.8822 -1.2877
   27MOL   H288 9700   3.820   7.583   6.803  0.3308  1.7447 -0.9868
   27MOL   H289 9701   3.670   7.651   6.858 -1.1777  1.6221 -1.4772
   27MOL   C290 9702   3.825   7.679   6.185 -0.2371  0.5373  0.3930
   27MOL   C291 9703   3.904   7.683   6.053  0.1543  0.5327  0.5012
   27MOL   C292 9704   3.854   7.570   5.960 -0.0128  0.7159  0.4792
   27MOL   C293 9705   3.902   7.428   5.998  0.0703  0.2214  0.6529
   27MOL   C294 9706   3.924   7.343   5.872 -0.4087  0.4632 -0.3412
   27MOL   C295 9707   3.787   7.329   5.798  0.9566 -1.1572  0.3111
   27MOL   H296 9708   3.723   7.710   6.161 -0.6872 -1.4341 -0.3018
   27MOL   H297 9709   3.823   7.581   6.231  1.1893  1.4413  2.4081
   27MOL   H298 9710   4.010   7.665   6.072  0.1908  1.8123  1.5987
   27MOL   H299 9711   3.888   7.584   5.858  0.2671  3.3724  0.9176
   27MOL   H300 9712   3.745   7.564   5.965  0.0905  0.1625  2.6558
   27MOL   H301 9713   4.003   7.442   6.037  1.2350 -0.2027 -2.0642
   27MOL   H302 9714   3.834   7.382   6.069  0.6501 -0.9298  0.4743
   27MOL   H303 9715   3.962   7.245   5.902  0.9854  0.6404 -1.4721
   27MOL   H304 9716   4.002   7.389   5.812 -0.2145 -0.5328 -0.8547
   27MOL   H305 9717   3.709   7.296   5.867 -0.9073  0.0094 -1.1610
   27MOL   H306 9718   3.781   7.264   5.710 -1.8468 -0.3425 -0.1472
   27MOL   H307 9719   3.768   7.430   5.763 -0.7619 -1.4412  0.3473
   27MOL   C308 9720   3.896   0.092   5.976  0.5156  0.1354 -0.4696
   27MOL   C309 9721   4.027   0.129   5.896  0.3713 -0.2480  0.0423
   27MOL   C310 9722   4.121   0.201   5.993  0.4056  0.0186 -0.2925
   27MOL   C311 9723   4.265   0.180   5.945  0.5316  0.4573  0.1427
   27MOL   C312 9724   4.368   0.252   6.041 -0.2863  0.1382 -0.1563
   27MOL   C313 9725   4.342   0.403   6.075  0.2863 -0.5945 -0.0656
   27MOL   H314 9726   3.808   0.082   5.914  0.9666  0.4180 -1.1619
   27MOL   H315 9727   3.867   0.170   6.047  0.5445 -0.6782  0.4499
   27MOL   H316 9728   4.067   0.031   5.868  1.0521 -0.5804  2.0860
   27MOL   H317 9729   4.105   0.171   6.096  2.4178 -0.5433 -0.1195
   27MOL   H318 9730   4.104   0.309   5.990 -0.9228 -0.1584  0.5382
   27MOL   H319 9731   4.276   0.227   5.847  2.0379  1.9404  0.9963
   27MOL   H320 9732   4.281   0.073   5.937 -0.8008  0.2618  0.0623
   27MOL   H321 9733   4.386   0.198   6.134  0.1899  0.5709  0.0068
   27MOL   H322 9734   4.460   0.246   5.984 -1.3974 -0.7396 -1.8738
   27MOL   H323 9735   4.318   0.456   5.983 -1.1124 -0.0155  0.6279
   27MOL   H324 9736   4.411   0.462   6.136  0.0748 -2.8886  2.5049
   27MOL   H325 9737   4.257   0.401   6.143  2.1931  0.4630  2.4513
   27MOL   C326 9738   3.998   0.222   5.774  0.1739 -0.2670 -0.7124
   27MOL   C327 9739   3.926   0.152   5.656 -0.3318 -0.2123  0.1688
   27MOL   C328 9740   3.843   0.243   5.571 -0.4009  0.2018 -0.1039
   27MOL   C329 9741   3.722   0.310   5.639  0.4334  0.0184  0.8433
   27MOL   C330 9742   3.657   0.426   5.552  0.3824 -0.6633 -0.1539
   27MOL   C331 9743   3.516   0.394   5.506  0.2904  0.1837 -0.1829
   27MOL   H332 9744   4.093   0.267   5.747  0.4885 -1.2189 -1.2338
   27MOL   H333 9745   3.934   0.299   5.816  0.8483  0.0293 -0.2050
   27MOL   H334 9746   3.862   0.081   5.709  1.2709 -0.8685  1.3143
   27MOL   H335 9747   3.915   0.318   5.540  2.1928 -1.5332  1.4820
   27MOL   H336 9748   3.796   0.189   5.489  1.0156  0.5580 -1.1731
   27MOL   H337 9749   3.747   0.360   5.733  0.9415  2.3680 -0.4921
   27MOL   H338 9750   3.648   0.234   5.662  0.6697 -1.5395 -3.2092
   27MOL   H339 9751   3.653   0.521   5.606  3.0063 -0.5201 -0.1612
   27MOL   H340 9752   3.724   0.449   5.470 -1.9356  2.0670 -1.3813
   27MOL   H341 9753   3.455   0.372   5.594  0.1807  0.4817 -0.1857
   27MOL   H342 9754   3.512   0.305   5.443 -0.1724  0.0660  0.0121
   27MOL   H343 9755   3.466   0.469   5.446  1.7147  1.6162  0.3881
   27MOL   C344 9756   4.023   0.058   5.579 -0.4234 -0.6050  0.1586
   27MOL   C345 9757   3.965   7.675   5.480  0.2608  0.1288  0.4810
   27MOL   C346 9758   4.067   7.604   5.387 -0.2537  0.1923 -0.0279
   27MOL   C347 9759   3.978   7.527   5.282  0.1211  0.3581 -0.1130
   27MOL   C348 9760   4.057   7.448   5.176  0.3108  0.4497  0.1242
   27MOL   C349 9761   3.970   7.394   5.073  0.3771  0.5326 -0.1919
   27MOL   H350 9762   4.087   0.123   5.519  0.9982 -1.0419  1.1910
   27MOL   H351 9763   4.096   0.010   5.644 -0.6413 -0.1138  0.7731
   27MOL   H352 9764   3.902   0.005   5.411  1.3096  0.2573 -0.3669
   27MOL   H353 9765   4.131   7.673   5.334 -0.0863  0.9724  1.1655
   27MOL   H354 9766   4.133   7.539   5.444  0.3576  0.1274 -0.8052
   27MOL   H355 9767   3.904   7.467   5.335 -0.0122 -0.4496 -1.1925
   27MOL   H356 9768   3.930   7.603   5.221  1.5720  1.0373 -0.4230
   27MOL   H357 9769   4.139   7.499   5.125 -0.8295  1.9417 -0.2319
   27MOL   H358 9770   4.102   7.364   5.229 -0.0690  0.4332  0.4239
   27MOL   H359 9771   4.019   7.328   5.002  1.3467  0.4188  0.5801
   27MOL   H360 9772   3.876   7.348   5.104  2.1017 -2.6676  0.5638
   27MOL   H361 9773   3.934   7.489   5.032 -1.6909  0.8504  2.2178
   27MOL   H362 9774   3.907   7.600   5.533 -0.1900  0.6889  0.7952
   28MOL     C1 9775   6.804   7.255   5.428 -0.4345  0.0894 -0.2491
   28MOL     C2 9776   6.671   7.300   5.495 -0.8716  0.2167 -0.4189
   28MOL     C3 9777   6.692   7.437   5.556  0.0080 -0.4263 -0.0636
   28MOL     C4 9778   6.562   7.505   5.616  0.5620 -0.4063 -0.5524
   28MOL     C5 9779   6.598   7.650   5.652  0.1613 -0.1347 -0.5641
   28MOL     C6 9780   6.479   7.713   5.719  0.0173 -0.0655  0.0242
   28MOL     H7 9781   6.832   7.334   5.360  0.7545  1.0433  1.3291
   28MOL     H8 9782   6.885   7.231   5.497  0.8912  1.6286 -1.2391
   28MOL     H9 9783   6.587   7.313   5.426 -2.4470 -3.0871  0.7647
   28MOL    H10 9784   6.742   7.502   5.484  0.3640 -1.0068 -0.3392
   28MOL    H11 9785   6.769   7.433   5.634  0.3938  0.1675 -0.4132
   28MOL    H12 9786   6.517   7.465   5.707 -2.6524  1.6296 -1.1979
   28MOL    H13 9787   6.480   7.512   5.545 -0.2759 -0.7064  0.3773
   28MOL    H14 9788   6.688   7.655   5.713 -0.5342 -1.0299  0.5561
   28MOL    H15 9789   6.620   7.710   5.564 -0.3499  1.5523  0.4420
   28MOL    H16 9790   6.395   0.000   5.650  0.9533  2.3216 -0.6900
   28MOL    H17 9791   6.501   0.086   5.756  2.9106 -1.0300  0.9797
   28MOL    H18 9792   6.453   7.656   5.808  0.1393 -0.2502 -0.0601
   28MOL    H19 9793   6.795   7.160   5.375 -0.7065 -0.8473  1.4253
   28MOL    C20 9794   6.632   7.202   5.603 -0.0777 -0.2128  0.0094
   28MOL    C21 9795   6.605   7.060   5.552 -0.0021  0.1536  0.4485
   28MOL    C22 9796   6.555   6.979   5.675 -0.3032 -0.4898 -0.2783
   28MOL    C23 9797   6.656   6.957   5.786  0.7562  0.6861  0.1087
   28MOL    C24 9798   6.608   6.840   5.887  0.1735 -0.7496 -0.4303
   28MOL    C25 9799   6.642   6.863   6.049  0.0159  0.3711  0.7072
   28MOL    H26 9800   6.539   7.242   5.643 -0.9429 -0.1883 -1.9354
   28MOL    H27 9801   6.688   7.201   5.696 -0.3100  1.8293  0.1999
   28MOL    H28 9802   6.705   7.020   5.531 -0.3897 -0.8711  0.5191
   28MOL    H29 9803   6.535   6.878   5.637 -2.8202 -0.3608  0.6032
   28MOL    H30 9804   6.461   7.019   5.713 -0.3545 -2.2384  1.5479
   28MOL    H31 9805   6.665   7.048   5.846  0.4901  0.1867  0.9141
   28MOL    H32 9806   6.747   6.940   5.728  0.1745 -1.8145 -0.1241
   28MOL    H33 9807   6.500   6.839   5.875  0.3367 -2.1939 -1.9159
   28MOL    H34 9808   6.657   6.747   5.860 -0.4218 -0.3507 -2.9645
   28MOL    H35 9809   6.596   6.795   6.121 -0.1766  0.1774  0.4075
   28MOL    H36 9810   6.751   6.859   6.047  0.0131  0.5681 -1.4544
   28MOL    H37 9811   6.620   6.964   6.083  1.2551  1.0048 -0.3311
   28MOL    C38 9812   6.494   7.054   5.437 -0.3670  0.1118 -0.0587
   28MOL    C39 9813   6.487   6.919   5.366  0.0893 -0.1501 -0.7749
   28MOL    C40 9814   6.389   6.934   5.241  0.6344  0.4611 -0.8478
   28MOL    C41 9815   6.422   7.034   5.131  0.1349 -0.0640 -0.2040
   28MOL    C42 9816   6.331   7.023   5.004 -0.0912 -0.4355  0.2318
   28MOL    C43 9817   6.402   7.095   4.890 -0.4104  0.8125  0.3002
   28MOL    H44 9818   6.511   7.138   5.370  1.5281  0.5085  0.8855
   28MOL    H45 9819   6.395   7.076   5.476 -0.4613 -0.9204  0.2896
   28MOL    H46 9820   6.438   6.850   5.435 -0.6437 -2.4428 -3.4705
   28MOL    H47 9821   6.366   6.832   5.211 -0.1566  0.4193 -0.1140
   28MOL    H48 9822   6.292   6.964   5.281  0.9897 -0.2363  0.5771
   28MOL    H49 9823   6.418   7.135   5.171  0.0567  0.6190 -1.8718
   28MOL    H50 9824   6.523   7.008   5.099 -0.3419 -2.4378  0.1354
   28MOL    H51 9825   6.305   6.919   4.984 -0.1831 -0.2845 -0.4150
   28MOL    H52 9826   6.231   7.065   5.016 -0.3097 -0.4249 -1.6078
   28MOL    H53 9827   6.334   7.110   4.807 -1.9035 -1.0399  1.1402
   28MOL    H54 9828   6.492   7.044   4.854 -0.5479  0.1009  0.9422
   28MOL    H55 9829   6.438   7.190   4.929  0.7290  0.2100  0.7633
   28MOL    C56 9830   6.624   6.851   5.328 -0.1748  0.1823 -0.4465
   28MOL    C57 9831   6.619   6.709   5.277 -0.3756  0.1625 -0.3794
   28MOL    C58 9832   6.555   6.604   5.366  0.5719 -0.1002 -0.7663
   28MOL    C59 9833   6.625   6.584   5.504  0.0330 -0.2317  0.2978
   28MOL    C60 9834   6.553   6.488   5.596  0.1905  0.0476  0.7231
   28MOL    C61 9835   6.514   6.356   5.531 -0.1061 -0.1956  0.6141
   28MOL    H62 9836   6.674   6.914   5.254  0.3568 -1.1126 -1.2096
   28MOL    H63 9837   6.679   6.850   5.422 -1.8157  1.4017  0.5596
   28MOL    H64 9838   6.562   6.717   5.185 -0.1940  0.9290 -0.4246
   28MOL    H65 9839   6.452   6.633   5.390  1.6693  3.0580  0.4642
   28MOL    H66 9840   6.565   6.507   5.317  0.6108  0.8258 -2.6423
   28MOL    H67 9841   6.639   6.675   5.563  1.7966 -0.3150  0.0305
   28MOL    H68 9842   6.722   6.535   5.496  0.1212  0.2330 -1.7204
   28MOL    H69 9843   6.617   6.463   5.680  1.5925 -3.1193 -1.1841
   28MOL    H70 9844   6.465   6.530   5.645  0.6781 -1.9839  3.4488
   28MOL    H71 9845   6.594   6.311   5.472 -0.9751  0.5494 -1.2075
   28MOL    H72 9846   6.485   6.281   5.604 -1.3403  0.2112  0.5654
   28MOL    H73 9847   6.427   6.378   5.468 -0.4205  0.2648  1.2077
   28MOL    C74 9848   6.762   6.671   5.241  0.0698 -0.2180  0.0544
   28MOL    C75 9849   6.777   6.541   5.150  0.4720 -0.2225 -0.2965
   28MOL    C76 9850   6.688   6.546   5.020 -0.2588 -0.0970 -0.2220
   28MOL    C77 9851   6.718   6.654   4.922  0.3887 -0.4552  0.0579
   28MOL    C78 9852   6.784   6.600   4.802 -0.0225 -0.2178  0.4745
   28MOL    C79 9853   6.824   6.716   4.713  0.8592  0.2135  0.4228
   28MOL    H80 9854   6.811   6.759   5.199 -2.1240  0.8190 -0.4038
   28MOL    H81 9855   6.817   6.654   5.334  1.3511  0.8535 -0.4932
   28MOL    H82 9856   6.741   6.462   5.216 -0.2715  0.8852  0.6260
   28MOL    H83 9857   6.699   6.451   4.967  0.2560 -0.4170  0.4604
   28MOL    H84 9858   6.584   6.565   5.049  0.2578  1.0128  0.9422
   28MOL    H85 9859   6.627   6.695   4.878 -0.4080 -1.6768  0.5482
   28MOL    H86 9860   6.789   6.726   4.964  1.6724  0.1071 -2.9258
   28MOL    H87 9861   6.721   6.527   4.753  1.5198 -1.0458 -0.3378
   28MOL    H88 9862   6.874   6.544   4.829  0.7665 -0.0044 -1.6040
   28MOL    H89 9863   6.891   6.681   4.635 -2.2855 -1.1040 -1.7902
   28MOL    H90 9864   6.733   6.767   4.681  1.1930  0.2155 -0.5259
   28MOL    H91 9865   6.885   6.786   4.769  3.9613 -0.6335 -1.7847
   28MOL    C92 9866   6.931   6.515   5.117 -0.0020  0.3065  0.2056
   28MOL    C93 9867   7.027   6.484   5.232 -0.1307 -0.0214 -0.9413
   28MOL    C94 9868   7.057   6.334   5.237 -0.2281 -0.8516 -0.4099
   28MOL    C95 9869   6.936   6.239   5.263 -0.8393  0.1993  0.0014
   28MOL    C96 9870   6.891   6.246   5.412 -0.3586 -0.2818  0.4275
   28MOL    C97 9871   6.810   6.124   5.459 -0.1608 -0.0087 -0.3108
   28MOL    H98 9872   6.931   6.429   5.050  3.6545  0.1998  0.2484
   28MOL    H99 9873   6.960   6.602   5.059 -1.0817  1.0230  0.7148
   28MOL   H100 9874   6.964   6.498   5.320  0.0565  0.4643 -0.8821
   28MOL   H101 9875   7.141   6.310   5.302  1.2326 -1.5139 -2.4924
   28MOL   H102 9876   7.102   6.308   5.142  1.6288  1.5661 -0.2452
   28MOL   H103 9877   6.853   6.254   5.194 -0.0801 -0.4853 -1.0802
   28MOL   H104 9878   6.979   6.140   5.247  0.4644  0.7470  0.0853
   28MOL   H105 9879   6.976   6.269   5.476 -0.6141  2.0157 -0.0091
   28MOL   H106 9880   6.831   6.333   5.436 -0.1131 -0.1202  0.4500
   28MOL   H107 9881   6.720   6.106   5.401 -0.9658  1.6593  0.4009
   28MOL   H108 9882   6.865   6.030   5.457 -1.4832 -0.7894 -1.2149
   28MOL   H109 9883   6.793   6.148   5.564  0.7010 -1.4924  0.1847
   28MOL   C110 9884   7.139   6.580   5.241  0.2978 -0.0670 -0.3145
   28MOL   C111 9885   7.255   6.581   5.136 -0.0182  0.1096 -0.3017
   28MOL   C112 9886   7.369   6.474   5.160  0.0503  0.8297 -0.1149
   28MOL   C113 9887   7.429   6.462   5.304 -0.0927 -0.3553  0.4735
   28MOL   C114 9888   7.544   6.367   5.302 -1.1825  0.2972 -0.5556
   28MOL   C115 9889   7.662   6.426   5.234  0.0811 -0.0051  0.0527
   28MOL   H116 9890   7.098   6.680   5.247  0.9692  0.1323  1.4897
   28MOL   H117 9891   7.185   6.569   5.340 -0.3196 -2.5894 -0.2505
   28MOL   H118 9892   7.209   6.560   5.040 -0.1537 -0.0470 -0.2001
   28MOL   H119 9893   7.441   6.499   5.082 -0.9901  2.7540 -0.4685
   28MOL   H120 9894   7.319   6.380   5.135 -0.3890  0.4812  1.9939
   28MOL   H121 9895   7.351   6.435   5.376  0.9564  0.5644  2.0004
   28MOL   H122 9896   7.472   6.559   5.327  1.4172 -1.2273  1.4048
   28MOL   H123 9897   7.522   6.279   5.241 -0.9577  1.0840 -1.7957
   28MOL   H124 9898   7.574   6.342   5.404  2.3022  0.7994 -1.3670
   28MOL   H125 9899   7.639   6.451   5.130 -1.8633  0.1089  0.4803
   28MOL   H126 9900   7.681   6.529   5.264 -1.4062  0.7216 -1.4022
   28MOL   H127 9901   0.022   6.362   5.245 -0.5401 -0.5815  1.8582
   28MOL   C128 9902   7.309   6.729   5.143 -0.4427  0.0613 -0.1044
   28MOL   C129 9903   7.236   6.836   5.058 -0.3798 -0.0306 -0.9076
   28MOL   C130 9904   7.279   6.835   4.916  0.3336  0.4776  0.2163
   28MOL   C131 9905   7.188   6.914   4.816 -0.1184  0.3127 -0.0412
   28MOL   C132 9906   7.263   6.972   4.697  0.4991  0.6249 -0.3491
   28MOL   C133 9907   7.165   7.023   4.595  0.2514 -0.3606  0.3215
   28MOL   H134 9908   7.411   6.729   5.103  0.0388  0.8615  1.0746
   28MOL   H135 9909   7.324   6.756   5.247  0.5873 -0.4716 -0.1039
   28MOL   H136 9910   7.133   6.800   5.056 -0.7406  0.9881 -0.7866
   28MOL   H137 9911   7.375   6.887   4.917  0.8054 -0.4036  1.4150
   28MOL   H138 9912   7.294   6.738   4.869 -0.3095  0.6845 -0.4238
   28MOL   H139 9913   7.128   6.997   4.852  0.5428  0.7605  0.0310
   28MOL   H140 9914   7.124   6.844   4.761 -1.1269  1.0764  0.1323
   28MOL   H141 9915   7.315   7.059   4.736 -0.0421  0.7522  0.1009
   28MOL   H142 9916   7.332   6.898   4.656  1.0475  1.6898 -1.3939
   28MOL   H143 9917   7.102   7.105   4.631  0.5342 -0.0381  0.0774
   28MOL   H144 9918   7.083   6.954   4.572 -0.6175  0.5339  0.6964
   28MOL   H145 9919   7.212   7.046   4.500 -0.1532 -1.7152 -0.2272
   28MOL   C146 9920   7.248   6.979   5.111  0.7947 -0.0229 -0.1579
   28MOL   C147 9921   7.159   7.008   5.237 -0.3681 -0.3849  0.5385
   28MOL   C148 9922   7.010   7.021   5.205  0.4053 -0.1925  0.3320
   28MOL   C149 9923   6.968   7.144   5.115 -0.3141 -0.2312  0.3769
   28MOL   C150 9924   6.824   7.127   5.080 -0.6000 -0.0027 -0.5457
   28MOL   C151 9925   6.771   7.239   5.000  0.1158 -0.1785  0.0595
   28MOL   H152 9926   7.352   6.984   5.142  0.7615 -2.0206  0.3733
   28MOL   H153 9927   7.235   7.052   5.031 -1.0338 -1.6512 -1.4143
   28MOL   H154 9928   7.177   6.929   5.310  2.6783  0.3567  0.6347
   28MOL   H155 9929   6.949   7.005   5.294 -0.6632  0.2135 -0.3140
   28MOL   H156 9930   6.983   6.940   5.138 -0.5330  0.3920 -0.0038
   28MOL   H157 9931   6.970   7.243   5.162  2.7015 -0.1272  0.1315
   28MOL   H158 9932   7.025   7.149   5.022  0.0802  0.8592  0.6642
   28MOL   H159 9933   6.765   7.099   5.166 -3.4925  2.2682 -1.7103
   28MOL   H160 9934   6.818   7.038   5.016 -0.6607  1.4832 -2.6803
   28MOL   H161 9935   6.844   7.271   4.926  0.8357  1.3338  1.3945
   28MOL   H162 9936   6.678   7.223   4.945 -0.7367 -0.9027  1.6712
   28MOL   H163 9937   6.762   7.317   5.076  0.0024 -0.5810  0.4628
   28MOL   C164 9938   7.200   7.135   5.313  0.2335 -0.4156 -0.5165
   28MOL   C165 9939   7.330   7.107   5.394  0.1187 -0.8131 -0.0946
   28MOL   C166 9940   7.411   7.236   5.410 -0.2563 -0.5020  0.1586
   28MOL   C167 9941   7.485   7.276   5.283  0.2253 -0.3301  0.1677
   28MOL   C168 9942   7.597   7.373   5.291  0.0550 -0.2501 -0.1101
   28MOL   C169 9943   7.547   7.498   5.358 -0.6285  0.3838 -0.4744
   28MOL   H170 9944   7.216   7.223   5.250 -1.5793  0.2804 -0.0535
   28MOL   H171 9945   7.115   7.160   5.377  1.4659 -4.5124  2.9554
   28MOL   H172 9946   7.392   7.029   5.350  2.7230  0.0832  1.8788
   28MOL   H173 9947   7.488   7.223   5.487  3.3379 -1.3647 -3.4393
   28MOL   H174 9948   7.344   7.305   5.462 -0.1905 -1.0614  1.0097
   28MOL   H175 9949   7.420   7.314   5.204 -2.2885  0.0516  2.3573
   28MOL   H176 9950   7.522   7.179   5.251  0.6026 -0.4336  0.9054
   28MOL   H177 9951   7.638   7.379   5.190  0.8318 -0.6109  0.1834
   28MOL   H178 9952   7.690   7.341   5.339 -1.1332 -0.5859  2.0250
   28MOL   H179 9953   7.517   7.476   5.461  0.1615  2.2369  0.1840
   28MOL   H180 9954   7.466   7.546   5.303 -1.5193 -1.2333 -0.6080
   28MOL   H181 9955   7.627   7.568   5.382  0.8827 -1.2063 -0.7875
   28MOL   C182 9956   7.279   7.057   5.534 -0.2312  0.5199 -0.7955
   28MOL   C183 9957   7.382   6.984   5.625 -0.1503 -0.4092 -0.2596
   28MOL   C184 9958   7.413   6.838   5.578  1.3412  0.1668  0.1101
   28MOL   C185 9959   7.529   6.775   5.651  0.0701  0.5329  0.4550
   28MOL   C186 9960   7.604   6.667   5.578 -0.2200 -0.1438  0.0211
   28MOL   C187 9961   0.010   6.627   5.649  0.7354  0.1253  0.0814
   28MOL   H188 9962   7.241   7.146   5.586  1.5451  1.0310 -0.3414
   28MOL   H189 9963   7.195   6.988   5.526 -1.4184  1.8931 -0.4309
   28MOL   H190 9964   7.478   7.031   5.603  0.0898 -0.2031  1.2079
   28MOL   H191 9965   7.318   6.787   5.598  0.6963  2.4139  3.0816
   28MOL   H192 9966   7.427   6.833   5.470  1.4878 -1.8074  0.2026
   28MOL   H193 9967   7.519   6.752   5.757  0.7182 -0.2429  0.3504
   28MOL   H194 9968   7.597   6.860   5.657  0.2732  0.5924 -2.2067
   28MOL   H195 9969   7.642   6.714   5.487 -1.9543  1.5780  0.1448
   28MOL   H196 9970   7.540   6.582   5.553 -0.0460 -0.1485 -0.4233
   28MOL   H197 9971   7.723   6.593   5.752  1.3123  2.5930  1.0228
   28MOL   H198 9972   0.063   6.722   5.651  0.6753  0.1432  1.0602
   28MOL   H199 9973   0.055   6.553   5.583  0.6053  0.3073 -0.2127
   28MOL   C200 9974   7.353   6.986   5.781  0.7104  0.8976  0.2838
   28MOL   C201 9975   7.368   7.126   5.851  1.0515  0.5995  0.3701
   28MOL   C202 9976   7.299   7.123   5.994 -0.3044 -0.2644 -0.1434
   28MOL   C203 9977   7.146   7.126   5.996 -0.4061 -0.0107 -0.2771
   28MOL   C204 9978   7.077   7.227   5.910 -0.2010  0.1790 -0.3545
   28MOL   C205 9979   6.926   7.221   5.899  0.0170  0.5133  0.1342
   28MOL   H206 9980   7.414   6.909   5.829 -1.1537 -0.1959  0.9708
   28MOL   H207 9981   7.257   6.939   5.804  0.9376  0.8340  1.1203
   28MOL   H208 9982   7.330   7.196   5.777 -1.3448  0.4446  1.4003
   28MOL   H209 9983   7.318   7.221   6.038  0.6785 -1.5710  2.4133
   28MOL   H210 9984   7.339   7.040   6.052 -0.3891 -0.8567 -0.9240
   28MOL   H211 9985   7.111   7.139   6.098 -0.2596  0.9579 -0.3480
   28MOL   H212 9986   7.105   7.029   5.967 -0.3071  0.3143 -1.5653
   28MOL   H213 9987   7.115   7.217   5.808 -2.7405 -0.1483 -1.3218
   28MOL   H214 9988   7.087   7.333   5.933 -1.4577  0.2047  0.1284
   28MOL   H215 9989   6.907   7.233   6.006  2.6186  3.2239  0.3528
   28MOL   H216 9990   6.878   7.303   5.847 -0.6039 -0.6631 -1.1536
   28MOL   H217 9991   6.904   7.127   5.848  1.2673  1.2952 -1.8837
   28MOL   C218 9992   7.523   7.153   5.866 -0.0690  1.1219  0.8735
   28MOL   C219 9993   7.564   7.292   5.908 -0.3231  0.3625  0.2457
   28MOL   C220 9994   7.519   7.407   5.813 -0.1673 -0.9863 -0.7244
   28MOL   C221 9995   7.530   7.550   5.873  0.3154  1.0671  0.7315
   28MOL   C222 9996   7.463   7.573   6.012  0.1169  0.4599 -0.1904
   28MOL   C223 9997   7.431   7.715   6.063  0.0066 -0.2781 -0.0993
   28MOL   H224 9998   7.547   7.081   5.944 -1.1850 -1.6466 -1.2366
   28MOL   H225 9999   7.579   7.127   5.776  1.7186  1.9692  1.7269
   28MOL   H22610000   7.518   7.313   6.004  0.6049  2.0586  0.3513
   28MOL   H22710001   7.414   7.394   5.787 -0.5973 -1.9259  1.4208
   28MOL   H22810002   7.567   7.397   5.716  4.2664  0.2634  1.2282
   28MOL   H22910003   7.497   7.628   5.805  0.7240 -0.1426 -0.8651
   28MOL   H23010004   7.635   7.579   5.882  0.4199  0.6442  0.9014
   28MOL   H23110005   7.367   7.523   6.021  0.6348 -0.6061 -0.5494
   28MOL   H23210006   7.543   7.525   6.069 -0.6353  1.1539  1.5024
   28MOL   H23310007   7.378   7.716   6.159  1.5026 -0.1736  0.7465
   28MOL   H23410008   7.382   0.054   5.991  0.5522  1.4896  1.1199
   28MOL   H23510009   7.528   0.028   6.090 -0.0243  0.5093 -1.1362
   28MOL   C23610010   7.722   7.314   5.919  0.2189 -0.6012 -0.0728
   28MOL   C23710011   0.068   7.194   5.983  0.2680  0.1882  0.5286
   28MOL   C23810012   0.042   7.168   6.135  0.2088 -0.3155 -1.0255
   28MOL   C23910013   0.089   7.285   6.220  0.0385  0.3360 -0.0333
   28MOL   C24010014   0.059   7.288   6.373 -0.4359  0.0319 -0.1274
   28MOL   C24110015   0.143   7.201   6.460 -0.0443  0.1487 -0.4483
   28MOL   H24210016   0.032   7.336   5.819 -1.1072  1.8979 -0.0453
   28MOL   H24310017   0.027   7.405   5.970 -2.9025  0.1812  0.5864
   28MOL   H24410018   0.038   7.104   5.930 -1.6786  2.2775 -2.1023
   28MOL   H24510019   7.662   7.169   6.152  0.4641  1.3617  0.6638
   28MOL   H24610020   0.086   7.075   6.171 -1.3988 -0.9596 -0.6747
   28MOL   H24710021   0.025   7.364   6.180 -0.1853 -0.5051 -1.3877
   28MOL   H24810022   0.195   7.306   6.213  0.1263 -0.3998 -1.0789
   28MOL   H24910023   0.067   7.392   6.402 -2.8266  0.1907  0.0580
   28MOL   H25010024   7.683   7.256   6.386 -1.1580  1.4825 -2.0489
   28MOL   H25110025   0.245   7.236   6.473  0.2310 -0.1271 -1.8185
   28MOL   H25210026   0.099   7.201   6.560 -1.2252 -2.0341 -0.9385
   28MOL   H25310027   0.151   7.097   6.430  0.2116 -0.6243  2.2171
   28MOL   C25410028   0.219   7.201   5.942 -0.3070  0.4273 -0.2243
   28MOL   C25510029   0.311   7.088   5.978  0.0841 -0.4043 -0.2091
   28MOL   C25610030   0.246   6.948   5.959  0.2047  0.0498 -0.9831
   28MOL   C25710031   0.349   6.840   5.950  0.3597 -0.2803  0.1373
   28MOL   C25810032   0.306   6.697   5.914  0.9140  0.0617  0.7347
   28MOL   C25910033   0.226   6.629   6.012  0.0114 -0.3819  0.3228
   28MOL   H26010034   0.254   7.301   5.970  0.0079  0.3165 -0.2217
   28MOL   H26110035   0.222   7.199   5.833 -2.7148 -1.5538 -0.3001
   28MOL   H26210036   0.384   7.078   5.898  0.8545  1.1302  0.2786
   28MOL   H26310037   0.185   6.908   6.040  1.8018  0.3312  0.4055
   28MOL   H26410038   0.187   6.945   5.868 -0.0307  1.0638 -0.8607
   28MOL   H26510039   0.428   6.872   5.882  0.2213  0.8642  0.5059
   28MOL   H26610040   0.407   6.840   6.042  1.0890  1.3364 -0.2982
   28MOL   H26710041   0.396   6.636   5.904 -0.1410 -1.4207  0.0604
   28MOL   H26810042   0.255   6.678   5.820 -0.5660  0.5704  1.4242
   28MOL   H26910043   0.286   6.600   6.098  0.5241  0.1875  0.1559
   28MOL   H27010044   0.190   6.542   5.958 -2.1764 -0.3031  1.5822
   28MOL   H27110045   0.138   6.678   6.056  1.5424  1.0420  1.8589
   28MOL   C27210046   0.384   7.117   6.113 -0.0112 -0.4558  0.5183
   28MOL   C27310047   0.503   7.221   6.103  0.1750 -0.1762  0.4360
   28MOL   C27410048   0.629   7.157   6.032 -0.1576 -0.5218 -0.6429
   28MOL   C27510049   0.746   7.246   5.997 -0.0889 -0.2610  0.1999
   28MOL   C27610050   0.847   7.168   5.913  0.1459  0.1899 -0.6228
   28MOL   C27710051   0.954   7.269   5.862  0.3325  0.1033 -0.1773
   28MOL   H27810052   0.317   7.141   6.195  1.3023 -0.6539  1.6698
   28MOL   H27910053   0.432   7.028   6.153  1.8021  0.1288 -0.3061
   28MOL   H28010054   0.458   7.302   6.046 -2.6331 -0.4789  2.1515
   28MOL   H28110055   0.591   7.113   5.940  1.6815  0.0075 -1.6989
   28MOL   H28210056   0.666   7.073   6.090 -0.1377 -0.1601 -0.1263
   28MOL   H28310057   0.790   7.278   6.092  1.4297  1.2540 -0.9768
   28MOL   H28410058   0.713   7.336   5.945 -0.8595 -0.1877  0.8165
   28MOL   H28510059   0.891   7.101   5.987  1.0854  2.2447  0.7368
   28MOL   H28610060   0.797   7.116   5.831 -0.8451  0.2291 -0.0478
   28MOL   H28710061   1.052   7.225   5.850  1.2808  2.4194 -1.2424
   28MOL   H28810062   0.928   7.320   5.769  0.2805 -1.9779 -1.3170
   28MOL   H28910063   0.978   7.354   5.926 -0.6164  0.7148 -0.6252
   28MOL   C29010064   0.548   7.268   6.245  0.7866 -0.5073  0.2048
   28MOL   C29110065   0.599   7.408   6.248  0.3920  0.0537 -0.7932
   28MOL   C29210066   0.483   7.506   6.263 -0.0761  0.1204 -1.2643
   28MOL   C29310067   0.406   7.530   6.393 -0.0664  0.3210 -0.2591
   28MOL   C29410068   0.285   7.622   6.371 -0.0420  0.1974 -0.3760
   28MOL   C29510069   0.221   7.662   6.500 -0.3680  0.4122  0.5421
   28MOL   H29610070   0.625   7.203   6.286  1.2716  1.2781  2.2039
   28MOL   H29710071   0.465   7.254   6.314 -0.2996  0.6179 -0.8390
   28MOL   H29810072   0.653   7.420   6.154 -0.7008  2.9625 -1.1235
   28MOL   H29910073   0.409   7.457   6.200 -1.0684  0.4366 -0.3631
   28MOL   H30010074   0.502   7.599   6.209  3.2243 -0.6214 -1.4797
   28MOL   H30110075   0.378   7.434   6.435  0.4316  0.5996  0.7282
   28MOL   H30210076   0.478   7.577   6.461  2.7118 -0.9385 -2.2089
   28MOL   H30310077   0.213   7.569   6.308  1.3612 -3.1863  0.8007
   28MOL   H30410078   0.323   7.714   6.326  0.8254  0.2133  0.3953
   28MOL   H30510079   0.281   0.008   6.555  0.0785 -0.7250  1.5846
   28MOL   H30610080   0.211   7.573   6.563 -0.8509  0.1026  0.0369
   28MOL   H30710081   0.128   7.706   6.466 -0.6520  0.3928  1.2773
   28MOL   C30810082   0.695   7.424   6.369 -0.0898  0.1273  0.5702
   28MOL   C30910083   0.763   7.559   6.381 -0.2431 -0.0936 -0.6663
   28MOL   C31010084   0.849   7.583   6.254 -0.8061  0.5128  0.2576
   28MOL   C31110085   0.965   7.490   6.246 -0.0823  0.1519 -0.5508
   28MOL   C31210086   1.047   7.527   6.126 -0.3107 -0.2218  0.2490
   28MOL   C31310087   1.173   7.444   6.109  0.3488 -0.3681  0.1485
   28MOL   H31410088   0.647   7.400   6.464  2.2497  0.2864  1.8133
   28MOL   H31510089   0.779   7.355   6.364 -0.8911 -0.7425 -1.5669
   28MOL   H31610090   0.678   7.628   6.378  0.7181  1.0663 -2.0200
   28MOL   H31710091   0.882   7.686   6.240  0.9613 -0.2454 -1.4870
   28MOL   H31810092   0.790   7.577   6.162 -0.0987 -0.6323 -0.1328
   28MOL   H31910093   0.936   7.385   6.239 -0.7864  0.0819  2.9026
   28MOL   H32010094   1.030   7.499   6.333 -0.4326 -0.9801 -0.1571
   28MOL   H32110095   0.990   7.553   6.036 -1.9720  1.0133  1.6021
   28MOL   H32210096   1.081   7.628   6.148  0.6081 -0.0044 -2.0097
   28MOL   H32310097   1.232   7.494   6.032 -2.8620 -1.3092 -3.0710
   28MOL   H32410098   1.159   7.339   6.085 -0.1307 -0.0566 -0.9670
   28MOL   H32510099   1.222   7.454   6.206  0.8374 -0.9742 -0.0334
   28MOL   C32610100   0.839   7.567   6.518  0.3186  0.5899 -0.0650
   28MOL   C32710101   0.922   7.691   6.552 -0.5553 -0.0246  0.0223
   28MOL   C32810102   0.836   0.079   6.606  0.3113  0.5129  0.0234
   28MOL   C32910103   0.903   0.223   6.619 -0.3061 -0.4490 -0.0712
   28MOL   C33010104   0.803   0.324   6.673 -0.6202  0.3389  0.3799
   28MOL   C33110105   0.862   0.461   6.662 -0.4165 -0.6790 -0.5184
   28MOL   H33210106   0.898   7.475   6.522 -0.8952 -0.1956  0.0020
   28MOL   H33310107   0.766   7.552   6.598  1.4604 -1.0426  0.6894
   28MOL   H33410108   0.972   7.723   6.461 -0.8362 -0.6386 -0.3548
   28MOL   H33510109   0.744   0.084   6.547 -0.2496 -2.3717  0.5723
   28MOL   H33610110   0.791   0.052   6.702  0.1089 -0.9321 -0.4604
   28MOL   H33710111   0.933   0.252   6.519 -1.2045  2.5780  0.4641
   28MOL   H33810112   0.994   0.224   6.679 -1.7067 -2.0462  2.1694
   28MOL   H33910113   0.721   0.321   6.601  0.6221  0.0640 -1.0559
   28MOL   H34010114   0.770   0.307   6.775  0.0732 -1.5748  0.3112
   28MOL   H34110115   0.901   0.489   6.564  0.0460  0.0525 -0.1323
   28MOL   H34210116   0.944   0.476   6.732  0.0165  0.7300 -1.3054
   28MOL   H34310117   0.793   0.535   6.703  1.0796 -0.2259  1.2697
   28MOL   C34410118   1.042   7.658   6.647  0.3433  0.0257 -0.0385
   28MOL   C34510119   1.162   7.596   6.578 -0.5831 -0.2597 -0.5934
   28MOL   C34610120   1.271   7.553   6.668  0.5509 -0.3307  0.0592
   28MOL   C34710121   1.403   7.542   6.605  0.6120  0.0957 -0.4117
   28MOL   C34810122   1.405   7.457   6.475 -0.0880  0.0314  0.1471
   28MOL   C34910123   1.541   7.440   6.411  0.3056  0.3864 -0.5854
   28MOL   H35010124   1.085   0.010   6.709  1.0368 -0.7473  0.4630
   28MOL   H35110125   1.016   7.582   6.720  0.1475  0.2160  0.0889
   28MOL   H35210126   1.206   7.660   6.502 -2.3017  2.1031  0.3343
   28MOL   H35310127   1.271   7.626   6.749 -0.0587 -0.0610 -0.1798
   28MOL   H35410128   1.239   7.458   6.711 -0.7438  0.6771  1.3479
   28MOL   H35510129   1.439   7.643   6.584  2.2116 -0.2248  0.7086
   28MOL   H35610130   1.467   7.493   6.678  3.1327 -0.0580 -2.6669
   28MOL   H35710131   1.370   7.357   6.500  1.7456 -1.0054 -1.2990
   28MOL   H35810132   1.343   7.494   6.394  2.0905  0.6507 -1.2821
   28MOL   H35910133   1.601   7.530   6.423  1.2513  0.1739 -3.4795
   28MOL   H36010134   1.603   7.367   6.464  0.4063 -0.1668 -1.4686
   28MOL   H36110135   1.540   7.414   6.306  2.3025  0.0233 -0.5313
   28MOL   H36210136   1.129   7.508   6.522 -0.7758 -0.6994  0.1837
   29MOL     C110137   6.426   5.770   1.476 -0.1206  0.4073  0.4588
   29MOL     C210138   6.499   5.729   1.608 -0.0493  0.2352 -0.2635
   29MOL     C310139   6.481   5.576   1.657  0.4916  0.6279  0.1643
   29MOL     C410140   6.339   5.527   1.668  0.2601  0.4110 -0.2554
   29MOL     C510141   6.274   5.471   1.536 -0.6683 -1.0458 -0.3102
   29MOL     C610142   6.138   5.405   1.551 -0.1893 -0.7630 -0.7210
   29MOL     H710143   6.320   5.764   1.501 -0.4650  0.3012 -0.9747
   29MOL     H810144   6.452   5.873   1.448 -0.8760  0.5137  0.1491
   29MOL     H910145   6.608   5.726   1.598 -0.0977  2.0421 -1.4710
   29MOL    H1010146   6.535   5.578   1.752 -0.7023 -1.6639  0.9460
   29MOL    H1110147   6.525   5.507   1.585 -1.2249  0.9837 -1.2652
   29MOL    H1210148   6.272   5.596   1.719  0.2426  1.3258 -1.4785
   29MOL    H1310149   6.332   5.438   1.731 -4.2260  1.1775  0.4906
   29MOL    H1410150   6.256   5.552   1.465 -2.6679  2.6744  4.1849
   29MOL    H1510151   6.338   5.397   1.489 -0.9952 -0.8390 -1.0951
   29MOL    H1610152   6.087   5.455   1.633  0.2199  0.5022 -1.2236
   29MOL    H1710153   6.140   5.300   1.580  2.3003 -0.5195  0.1331
   29MOL    H1810154   6.088   5.413   1.454 -0.1414  1.8271 -0.5734
   29MOL    H1910155   6.439   5.695   1.398 -1.7118 -0.5531  1.0950
   29MOL    C2010156   6.466   5.827   1.719  0.0361 -0.1238 -0.8274
   29MOL    C2110157   6.597   5.863   1.797 -0.2271  0.2670  0.2775
   29MOL    C2210158   6.677   5.977   1.725 -0.2220 -0.0455  0.3511
   29MOL    C2310159   6.828   5.987   1.762  0.3131  0.3598  0.5120
   29MOL    C2410160   6.915   6.035   1.650  0.2640 -0.0474 -0.1908
   29MOL    C2510161   6.950   5.922   1.546  0.2073  0.4093 -0.4227
   29MOL    H2610162   6.390   5.782   1.783  2.5284 -0.2419  2.0952
   29MOL    H2710163   6.427   5.920   1.675 -0.7194  0.6705  1.4566
   29MOL    H2810164   6.662   5.777   1.810  0.6027  0.3667 -2.8089
   29MOL    H2910165   6.641   6.079   1.740  0.9767  0.3489  0.6032
   29MOL    H3010166   6.663   5.956   1.619 -0.3861 -0.9221  0.5425
   29MOL    H3110167   6.869   5.896   1.804 -0.5328  0.0103  0.5776
   29MOL    H3210168   6.839   6.051   1.850 -0.3951  1.0238  0.1282
   29MOL    H3310169   6.873   6.114   1.589 -0.8852  0.0203  0.6649
   29MOL    H3410170   7.014   6.064   1.687  0.7304 -0.5049 -1.0681
   29MOL    H3510171   6.860   5.881   1.499 -0.3608 -0.2954  1.2258
   29MOL    H3610172   7.016   5.968   1.472  0.9287  0.9556  0.5568
   29MOL    H3710173   6.998   5.844   1.605 -1.8336  1.5478  2.8982
   29MOL    C3810174   6.564   5.906   1.941 -0.6690  0.1032  0.0149
   29MOL    C3910175   6.522   5.799   2.038  0.6678 -0.3848  0.1489
   29MOL    C4010176   6.635   5.693   2.070 -0.3393  0.6275  0.7181
   29MOL    C4110177   6.588   5.571   2.141  1.3646  0.2689  0.2978
   29MOL    C4210178   6.704   5.481   2.171 -0.1129 -0.4429 -0.0278
   29MOL    C4310179   6.652   5.351   2.222  0.5223 -0.3593  0.2440
   29MOL    H4410180   6.500   5.994   1.942  0.7906  1.2018 -0.8589
   29MOL    H4510181   6.659   5.948   1.974  1.3205 -3.8353 -0.4132
   29MOL    H4610182   6.436   5.739   2.007 -0.4934  1.2904  0.0621
   29MOL    H4710183   6.679   5.659   1.976  0.3538 -1.0924  1.6310
   29MOL    H4810184   6.707   5.738   2.139 -1.7208  1.0304  1.9235
   29MOL    H4910185   6.540   5.596   2.236 -0.3426 -0.7664 -0.2704
   29MOL    H5010186   6.513   5.519   2.081  3.1579 -0.9295 -0.9222
   29MOL    H5110187   6.762   5.462   2.081 -0.5994  1.0103 -0.6611
   29MOL    H5210188   6.773   5.529   2.241 -0.1273 -0.0138 -0.3046
   29MOL    H5310189   6.727   5.298   2.281  0.4291 -2.4571 -1.4494
   29MOL    H5410190   6.609   5.293   2.140 -0.6369  0.9238 -0.0640
   29MOL    H5510191   6.576   5.366   2.298  0.4056 -0.4784  0.1495
   29MOL    C5610192   6.476   5.875   2.166 -0.0549  0.2368  0.2115
   29MOL    C5710193   6.327   5.925   2.173 -0.6383 -0.4106  0.9396
   29MOL    C5810194   6.319   6.032   2.279 -0.5870  0.1336 -0.6497
   29MOL    C5910195   6.355   6.175   2.221  0.3323  0.1501 -0.0393
   29MOL    C6010196   6.353   6.279   2.332 -0.5903 -0.4013 -0.1985
   29MOL    C6110197   6.404   6.420   2.287  0.2434 -0.0329  0.1696
   29MOL    H6210198   6.510   5.817   2.253  0.3787  0.4819  0.2059
   29MOL    H6310199   6.538   5.964   2.170 -0.2345  0.3953 -0.5296
   29MOL    H6410200   6.305   5.965   2.074  0.4684 -1.2877  0.3248
   29MOL    H6510201   6.225   6.026   2.333 -0.5110  2.5144 -0.1830
   29MOL    H6610202   6.395   6.008   2.353 -0.5582 -0.5723 -0.9037
   29MOL    H6710203   6.285   6.209   2.146 -1.2305 -2.1523  0.2922
   29MOL    H6810204   6.453   6.174   2.174  0.0451  0.8792 -0.6598
   29MOL    H6910205   6.255   6.283   2.380 -1.0948 -1.3410 -1.1356
   29MOL    H7010206   6.421   6.253   2.413 -0.6960 -0.4252 -0.1176
   29MOL    H7110207   6.506   6.411   2.251 -0.0452  0.2779 -0.7292
   29MOL    H7210208   6.348   6.480   2.216 -2.1574 -0.2531  1.8073
   29MOL    H7310209   6.421   6.484   2.374 -2.4267  0.5807  0.2948
   29MOL    C7410210   6.232   5.804   2.203 -0.1487  0.2902 -0.4582
   29MOL    C7510211   6.082   5.843   2.167  0.7405 -0.4887 -0.2428
   29MOL    C7610212   6.060   5.897   2.022  0.5586  0.7444  0.0731
   29MOL    C7710213   6.048   5.798   1.899 -0.3376 -0.0135  0.5391
   29MOL    C7810214   6.001   5.875   1.777 -0.7854 -0.3892 -0.4553
   29MOL    C7910215   6.018   5.801   1.647 -0.4066  0.1022 -0.4880
   29MOL    H8010216   6.257   5.714   2.148  2.2339  0.2096  0.7177
   29MOL    H8110217   6.239   5.772   2.307  0.9295  1.8078 -0.0422
   29MOL    H8210218   6.065   5.929   2.232  0.7382  1.2517 -2.4636
   29MOL    H8310219   5.962   5.944   2.031 -0.0203  0.2930 -3.3135
   29MOL    H8410220   6.122   5.982   1.997 -0.1023  1.5956  1.2923
   29MOL    H8510221   6.140   5.740   1.885 -1.0544 -0.4620 -2.4582
   29MOL    H8610222   5.986   5.710   1.913 -1.2542  0.7657  1.5046
   29MOL    H8710223   6.053   5.970   1.770 -0.8882 -0.0695  2.4107
   29MOL    H8810224   5.895   5.891   1.796 -0.6670 -0.3349  0.1631
   29MOL    H8910225   5.963   5.707   1.652 -2.9945  1.5149 -1.3184
   29MOL    H9010226   5.975   5.848   1.559 -0.1375 -1.7750 -1.6450
   29MOL    H9110227   6.120   5.766   1.634 -0.8361 -1.7073  0.7714
   29MOL    C9210228   5.981   5.730   2.202 -0.3183  0.0116 -0.6362
   29MOL    C9310229   5.946   5.706   2.351 -0.2356 -0.1769 -0.4982
   29MOL    C9410230   5.881   5.832   2.418  0.7199 -0.0329 -0.1603
   29MOL    C9510231   5.841   5.830   2.572  0.3920  0.1294  0.1320
   29MOL    C9610232   5.756   5.943   2.623 -0.3834  0.3378 -0.4083
   29MOL    C9710233   5.835   6.078   2.627  0.0640  0.3215  0.5901
   29MOL    H9810234   5.887   5.759   2.154 -1.2295 -1.4021  0.2623
   29MOL    H9910235   6.019   5.637   2.159  0.3463 -0.3145  0.6448
   29MOL   H10010236   6.044   5.693   2.396  1.2995  0.3391 -3.5229
   29MOL   H10110237   5.800   5.871   2.357 -1.2263  0.2254  2.4903
   29MOL   H10210238   5.961   5.906   2.420 -0.6946  1.5892 -1.7944
   29MOL   H10310239   5.767   5.751   2.579  0.1346  0.2839 -0.8095
   29MOL   H10410240   5.924   5.808   2.639  1.0535  2.9007  0.3200
   29MOL   H10510241   5.662   5.951   2.569 -0.5277 -1.0073 -0.3933
   29MOL   H10610242   5.728   5.914   2.725  0.8450 -0.6199 -0.3377
   29MOL   H10710243   5.777   6.149   2.686 -0.9152  0.6548 -0.7522
   29MOL   H10810244   5.933   6.054   2.669  0.2391 -1.4489 -0.7687
   29MOL   H10910245   5.851   6.101   2.522 -1.2609 -2.5366 -0.2836
   29MOL   C11010246   5.869   5.571   2.369 -1.0816 -0.4888 -0.3149
   29MOL   C11110247   5.730   5.562   2.297 -0.5710  0.1453  0.4246
   29MOL   C11210248   5.626   5.487   2.380 -0.6802 -0.4975  0.6895
   29MOL   C11310249   5.571   5.561   2.505 -0.2607 -0.1122 -0.1925
   29MOL   C11410250   5.444   5.492   2.549 -0.1059  0.5642  0.3881
   29MOL   C11510251   5.394   5.540   2.691 -0.6575  0.2367  0.1808
   29MOL   H11610252   5.931   5.487   2.337  0.7393  0.5199  0.5272
   29MOL   H11710253   5.860   5.549   2.475  0.0334  1.0830  0.1191
   29MOL   H11810254   5.691   5.664   2.288  2.3957  1.2021 -1.1702
   29MOL   H11910255   5.672   5.398   2.423  1.6281  1.6033  2.7045
   29MOL   H12010256   5.535   5.463   2.324 -1.2590 -0.3211  1.5548
   29MOL   H12110257   5.548   5.667   2.492  0.8166 -0.0529 -1.7667
   29MOL   H12210258   5.650   5.552   2.580  0.5459 -2.2483 -1.2358
   29MOL   H12310259   5.474   5.387   2.559  2.0870  0.8304 -2.7780
   29MOL   H12410260   5.363   5.503   2.478 -1.3693 -2.9367  1.1791
   29MOL   H12510261   5.304   5.484   2.714 -0.3015  0.1341  1.3416
   29MOL   H12610262   5.468   5.516   2.767  0.4324 -0.9892 -1.2391
   29MOL   H12710263   5.370   5.646   2.698 -1.3544  0.1777 -1.1539
   29MOL   C12810264   5.738   5.497   2.155  0.2380 -0.1524  0.0615
   29MOL   C12910265   5.627   5.532   2.058 -0.7512  0.5742  0.7707
   29MOL   C13010266   5.597   5.423   1.951  0.1093 -0.0014 -0.0976
   29MOL   C13110267   5.716   5.382   1.866 -0.2161  0.0285 -0.0686
   29MOL   C13210268   5.689   5.297   1.736 -0.0719  0.3229 -0.4872
   29MOL   C13310269   5.815   5.316   1.656 -0.0431 -0.3965 -0.0353
   29MOL   H13410270   5.721   5.391   2.179 -1.0787  0.0153 -0.0719
   29MOL   H13510271   5.835   5.506   2.107 -1.1286  1.7299 -2.4380
   29MOL   H13610272   5.537   5.540   2.120 -2.1658 -1.8922 -0.8607
   29MOL   H13710273   5.569   5.332   2.004  0.8238  0.5571  1.2362
   29MOL   H13810274   5.504   5.440   1.898  0.9079 -3.0542 -2.6436
   29MOL   H13910275   5.799   5.350   1.928  1.0083  2.2089 -0.5115
   29MOL   H14010276   5.750   5.479   1.829 -1.4171  0.0099 -1.2868
   29MOL   H14110277   5.661   5.193   1.752 -1.0358  0.3903 -1.6708
   29MOL   H14210278   5.611   5.350   1.681  0.7139  0.4737 -1.4660
   29MOL   H14310279   5.897   5.274   1.716 -0.2888 -1.0950 -0.1789
   29MOL   H14410280   5.848   5.419   1.641 -1.9185  0.4101  1.2445
   29MOL   H14510281   5.809   5.269   1.558  0.6077 -1.6787  0.5167
   29MOL   C14610282   5.644   5.671   1.997  0.3285  0.3598 -0.1490
   29MOL   C14710283   5.523   5.734   1.924 -0.0726  0.2678  0.1126
   29MOL   C14810284   5.559   5.812   1.787  0.1343  0.2181 -0.1200
   29MOL   C14910285   5.604   5.713   1.680  0.0208  0.3089  0.3616
   29MOL   C15010286   5.635   5.772   1.537  0.1780  0.0476 -0.0549
   29MOL   C15110287   5.678   5.671   1.431  0.0980 -0.3792  0.3380
   29MOL   H15210288   5.672   5.739   2.078  2.6703 -1.1494  0.3557
   29MOL   H15310289   5.728   5.665   1.928  0.1582 -0.8152 -0.2613
   29MOL   H15410290   5.450   5.654   1.911  2.7027 -2.0463 -1.7854
   29MOL   H15510291   5.641   5.882   1.798  0.3850 -0.2075  0.8056
   29MOL   H15610292   5.468   5.864   1.756 -0.4286 -1.2931 -1.0440
   29MOL   H15710293   5.694   5.664   1.716  0.1747 -0.0051 -0.4331
   29MOL   H15810294   5.524   5.642   1.657 -0.9675  1.9404 -1.4325
   29MOL   H15910295   5.717   5.840   1.563  0.9402 -1.2306  0.9121
   29MOL   H16010296   5.551   5.824   1.491 -0.1741 -1.0337 -0.6353
   29MOL   H16110297   5.645   5.684   1.328  1.1398  1.8497  0.2605
   29MOL   H16210298   5.786   5.660   1.441  0.2273 -0.0420 -0.6254
   29MOL   H16310299   5.630   5.574   1.444 -1.2413  0.3769  1.1749
   29MOL   C16410300   5.463   5.847   2.017  0.1088  0.0394 -0.2843
   29MOL   C16510301   5.317   5.883   1.992 -0.3402 -0.4408  1.2515
   29MOL   C16610302   5.215   5.821   2.095 -0.2218  1.0734 -0.3054
   29MOL   C16710303   5.233   5.674   2.128 -0.7707 -0.5625  0.6630
   29MOL   C16810304   5.125   5.612   2.215  0.2003 -0.7560  0.0168
   29MOL   C16910305   5.152   5.466   2.238  0.4347  0.0966  0.4566
   29MOL   H17010306   5.477   5.839   2.125  0.5433  0.2147 -0.3255
   29MOL   H17110307   5.526   5.936   2.004  0.5973 -0.4147 -1.0268
   29MOL   H17210308   5.288   5.841   1.896 -1.8040  2.1735  0.5119
   29MOL   H17310309   5.117   5.842   2.052  0.5323  1.3170 -1.9225
   29MOL   H17410310   5.231   5.877   2.188  0.8741  0.2519  0.0125
   29MOL   H17510311   5.336   5.656   2.161 -0.2764  0.3391 -0.3481
   29MOL   H17610312   5.213   5.614   2.039 -1.7815  0.6678  0.0504
   29MOL   H17710313   5.029   5.619   2.164  0.5973 -1.0448 -0.7763
   29MOL   H17810314   5.109   5.664   2.310  0.4516 -0.9554  0.1679
   29MOL   H17910315   5.070   5.414   2.287  1.1706 -0.0322  1.5730
   29MOL   H18010316   5.243   5.466   2.299 -0.0941  0.7172  1.2548
   29MOL   H18110317   5.158   5.413   2.144  0.7632 -0.6454  0.8915
   29MOL   C18210318   5.296   6.032   1.983 -0.4148  0.2889  0.5025
   29MOL   C18310319   5.156   6.096   1.961 -0.1565  0.3467 -0.2414
   29MOL   C18410320   5.110   6.071   1.818  0.2806  0.0635 -0.2342
   29MOL   C18510321   5.211   6.109   1.713 -0.1870 -0.2774 -0.4118
   29MOL   C18610322   5.155   6.112   1.571  0.2461 -0.0311  0.0124
   29MOL   C18710323   5.268   6.133   1.467 -0.1561 -0.3134 -0.6985
   29MOL   H18810324   5.336   6.076   2.074  0.3902  1.9083 -0.6065
   29MOL   H18910325   5.367   6.090   1.923 -1.4438  2.3277  1.2276
   29MOL   H19010326   5.089   6.041   2.027  0.0275 -0.0918 -0.4167
   29MOL   H19110327   5.089   5.964   1.806  0.4908  0.1080 -0.9988
   29MOL   H19210328   5.016   6.119   1.789  1.4057  2.4615 -0.0199
   29MOL   H19310329   5.292   6.036   1.719  0.5770  0.5610 -0.5729
   29MOL   H19410330   5.252   6.208   1.729 -0.0054 -0.3055 -0.6920
   29MOL   H19510331   5.072   6.182   1.566  1.1066  1.0120  0.1601
   29MOL   H19610332   5.108   6.016   1.548  0.8767 -0.5846  0.9782
   29MOL   H19710333   5.226   6.156   1.369 -1.0290  0.2653 -0.1916
   29MOL   H19810334   5.333   6.046   1.463 -0.3247 -0.4448 -0.5349
   29MOL   H19910335   5.319   6.219   1.512 -1.1888 -0.5495  0.9415
   29MOL   C20010336   5.145   6.244   2.002  0.1713  0.1938 -0.4233
   29MOL   C20110337   5.210   6.291   2.137 -0.3077  0.2968  0.1077
   29MOL   C20210338   5.350   6.360   2.107  0.1541 -0.4797  0.3969
   29MOL   C20310339   5.451   6.372   2.218  0.1966  0.2599  0.7257
   29MOL   C20410340   5.526   6.247   2.236  0.4061 -0.6763 -0.3144
   29MOL   C20510341   5.632   6.254   2.355 -0.0860  0.0332 -0.3694
   29MOL   H20610342   5.038   6.262   2.014 -0.0173 -0.6931 -0.7687
   29MOL   H20710343   5.179   6.311   1.923 -0.5052  2.3542  1.0746
   29MOL   H20810344   5.219   6.214   2.213 -2.7088  1.2742  1.4436
   29MOL   H20910345   5.342   6.453   2.050  1.2916 -1.1770 -0.9487
   29MOL   H21010346   5.402   6.309   2.026  2.5973  1.6868  0.5278
   29MOL   H21110347   5.403   6.404   2.311 -1.2468 -0.9918  0.4131
   29MOL   H21210348   5.534   6.443   2.210  1.3963 -1.2944 -1.1283
   29MOL   H21310349   5.584   6.223   2.147  1.1064 -1.9291  0.4587
   29MOL   H21410350   5.457   6.163   2.247 -2.0955  1.4781  1.2301
   29MOL   H21510351   5.587   6.275   2.452 -1.7836  0.7851 -1.3116
   29MOL   H21610352   5.670   6.153   2.367  0.2976  0.4006  1.6041
   29MOL   H21710353   5.717   6.323   2.349  0.4637 -0.4295  1.7022
   29MOL   C21810354   5.121   6.389   2.219  0.3443  0.2365  0.1850
   29MOL   C21910355   5.011   6.326   2.319  0.0521  0.3916  0.2318
   29MOL   C22010356   4.874   6.359   2.252  0.2025  0.2795  0.5138
   29MOL   C22110357   4.741   6.299   2.300  0.2873 -0.3941  0.2985
   29MOL   C22210358   4.607   6.374   2.253  0.2738 -0.1715 -0.0511
   29MOL   C22310359   4.473   6.291   2.242  0.2074 -0.0772  0.0904
   29MOL   H22410360   5.178   6.457   2.282 -0.0605  0.8502 -0.1051
   29MOL   H22510361   5.080   6.464   2.152 -1.5383 -0.4992  0.4929
   29MOL   H22610362   5.028   6.218   2.308 -1.9958  0.1053 -0.3189
   29MOL   H22710363   4.880   6.340   2.144  2.4386 -0.0633  0.6686
   29MOL   H22810364   4.872   6.467   2.269  0.7669  0.0796  1.8520
   29MOL   H22910365   4.741   6.289   2.408  1.5893  1.5255  0.5063
   29MOL   H23010366   4.734   6.196   2.267  0.0487  0.7435 -3.4572
   29MOL   H23110367   4.594   6.464   2.313  0.9953 -0.0783 -0.0297
   29MOL   H23210368   4.621   6.406   2.150  1.3966  1.2320  0.5169
   29MOL   H23310369   4.460   6.242   2.339 -0.3455 -2.7935 -1.2960
   29MOL   H23410370   4.474   6.217   2.162  1.7401 -0.1771  0.1843
   29MOL   H23510371   4.391   6.359   2.223  0.0558 -0.4691 -0.6793
   29MOL   C23610372   5.024   6.386   2.461 -0.0938  0.3100 -0.5186
   29MOL   C23710373   5.153   6.341   2.531  0.2275  0.0825 -0.3731
   29MOL   C23810374   5.159   6.188   2.556 -0.7356 -0.1508 -0.2902
   29MOL   C23910375   5.297   6.133   2.600 -0.2010 -0.0134 -0.1150
   29MOL   C24010376   5.284   5.985   2.651 -0.0504 -0.1485  0.5727
   29MOL   C24110377   5.283   5.885   2.531  0.2036  0.1934 -0.4863
   29MOL   H24210378   5.040   6.494   2.460 -2.1663  0.6456 -1.1935
   29MOL   H24310379   4.930   6.356   2.509 -1.0685  0.2453 -2.4050
   29MOL   H24410380   5.235   6.369   2.466  0.6351  0.9144  0.4837
   29MOL   H24510381   5.086   6.155   2.631  0.5992 -1.8814  0.2913
   29MOL   H24610382   5.138   6.126   2.469  2.0471  0.4886 -1.4634
   29MOL   H24710383   5.330   6.183   2.691  3.8220 -0.3747 -1.3074
   29MOL   H24810384   5.366   6.134   2.516  0.4250 -3.2383  0.3133
   29MOL   H24910385   5.377   5.974   2.707 -1.4217 -3.5257  2.3382
   29MOL   H25010386   5.195   5.969   2.712 -1.0772  1.3401 -0.5077
   29MOL   H25110387   5.256   5.784   2.564  3.8804 -0.2034  1.5356
   29MOL   H25210388   5.209   5.908   2.455  0.1634  1.1681 -0.1490
   29MOL   H25310389   5.384   5.884   2.490 -0.3838 -1.8629 -1.9951
   29MOL   C25410390   5.187   6.429   2.658  0.2625 -0.7402 -0.0679
   29MOL   C25510391   5.125   6.412   2.792 -0.5314 -0.3866 -0.6842
   29MOL   C25610392   4.980   6.458   2.788  0.4124  0.4179  0.0159
   29MOL   C25710393   4.903   6.418   2.916  0.3330 -0.4195 -0.0492
   29MOL   C25810394   4.749   6.447   2.910 -0.2221  0.2194  0.0115
   29MOL   C25910395   4.675   6.337   2.835  0.2208 -0.3558 -0.4728
   29MOL   H26010396   5.176   6.532   2.625  1.7171  0.8024  3.9849
   29MOL   H26110397   5.295   6.414   2.665  0.2642  0.1879  2.1513
   29MOL   H26210398   5.126   6.306   2.819  1.5057  0.2501  1.8425
   29MOL   H26310399   4.976   6.565   2.771 -0.2610  0.3967  0.0289
   29MOL   H26410400   4.932   6.418   2.699  2.0109 -1.4529 -0.0531
   29MOL   H26510401   4.919   6.310   2.918 -1.5400 -0.7157 -0.4756
   29MOL   H26610402   4.941   6.470   3.004  0.6606 -0.8260  0.0475
   29MOL   H26710403   4.724   6.547   2.874  1.4802  0.8448  0.5251
   29MOL   H26810404   4.709   6.441   3.012  0.7696 -4.2650  0.2406
   29MOL   H26910405   4.680   6.239   2.881  0.2548 -1.2474 -2.3329
   29MOL   H27010406   4.724   6.335   2.737 -0.2044  0.4463 -0.7119
   29MOL   H27110407   4.574   6.372   2.817 -0.2177 -2.0252 -1.3662
   29MOL   C27210408   5.202   6.491   2.906 -0.1885 -0.0342  0.2187
   29MOL   C27310409   5.313   6.403   2.976 -0.5714  0.4657  0.1559
   29MOL   C27410410   5.264   6.304   3.091 -0.2816 -0.7351 -0.1053
   29MOL   C27510411   5.183   6.178   3.057  0.0379  0.7375  0.1714
   29MOL   C27610412   5.124   6.132   3.184  0.4096  0.7761  0.2029
   29MOL   C27710413   4.990   6.204   3.223  0.0919 -0.4231 -0.4478
   29MOL   H27810414   5.245   6.574   2.850 -0.8296  2.3377  3.1145
   29MOL   H27910415   5.141   6.547   2.976  0.0996 -0.7260  1.0328
   29MOL   H28010416   5.357   6.339   2.899 -0.8556  1.5470 -0.9183
   29MOL   H28110417   5.191   6.367   3.141  1.0337  0.6397  0.1146
   29MOL   H28210418   5.336   6.288   3.172 -3.4604  0.8008  3.1474
   29MOL   H28310419   5.256   6.112   3.011 -0.5034  2.2185 -2.9236
   29MOL   H28410420   5.100   6.182   2.986 -1.5904  0.1868  1.9713
   29MOL   H28510421   5.111   6.024   3.173 -1.4159  1.2340 -2.6151
   29MOL   H28610422   5.189   6.135   3.271 -1.5482 -0.2549  1.7544
   29MOL   H28710423   4.994   6.313   3.217  0.0943 -0.3460  0.9154
   29MOL   H28810424   4.909   6.164   3.162  0.0704 -1.0899  0.0097
   29MOL   H28910425   4.955   6.187   3.325  0.4945 -1.6769 -0.5042
   29MOL   C29010426   5.436   6.495   3.017 -0.2347 -0.2992  0.2059
   29MOL   C29110427   5.421   6.593   3.140 -0.1131 -0.0390 -0.0729
   29MOL   C29210428   5.552   6.586   3.219 -0.5430  0.3802 -0.8612
   29MOL   C29310429   5.566   6.461   3.311  0.3857 -0.7149  0.1047
   29MOL   C29410430   5.707   6.472   3.379  0.2483 -0.2084  0.1030
   29MOL   C29510431   5.717   6.585   3.481 -0.6976  0.6877 -0.2681
   29MOL   H29610432   5.476   6.550   2.932  0.8742  0.0849  0.9530
   29MOL   H29710433   5.508   6.419   3.047 -0.3398 -0.6049 -0.3273
   29MOL   H29810434   5.345   6.556   3.208  2.0907 -0.3455  2.3206
   29MOL   H29910435   5.561   6.670   3.288  1.3713 -1.9590  1.8102
   29MOL   H30010436   5.639   6.600   3.155  0.2751  0.0391  0.1608
   29MOL   H30110437   5.493   6.465   3.391  2.0681 -2.8667  1.8068
   29MOL   H30210438   5.546   6.371   3.252 -1.6118 -1.5138  1.9422
   29MOL   H30310439   5.788   6.497   3.310 -1.1143  0.1643 -1.4084
   29MOL   H30410440   5.728   6.377   3.427  0.0362 -1.4936 -2.2482
   29MOL   H30510441   5.748   6.676   3.430 -2.3477 -0.8586 -4.1733
   29MOL   H30610442   5.791   6.574   3.561  0.7739  2.6866 -1.3023
   29MOL   H30710443   5.631   6.594   3.547 -1.3307 -0.6830 -0.8912
   29MOL   C30810444   5.379   6.738   3.106 -0.1338  0.4030 -0.3127
   29MOL   C30910445   5.279   6.802   3.205  0.1875  0.3213 -0.1095
   29MOL   C31010446   5.140   6.763   3.163  0.3919  0.1016  0.5479
   29MOL   C31110447   5.041   6.810   3.275  0.5167  0.0118 -0.3007
   29MOL   C31210448   4.898   6.749   3.264  0.0368 -0.1575 -0.6459
   29MOL   C31310449   4.814   6.771   3.394  0.0660 -0.2606 -0.0714
   29MOL   H31410450   5.468   6.800   3.094 -1.1790  2.3196  1.4814
   29MOL   H31510451   5.341   6.749   3.005  0.5204  2.5549 -0.3598
   29MOL   H31610452   5.305   6.763   3.304  1.6411  0.4065 -0.4479
   29MOL   H31710453   5.129   6.655   3.157  1.6938  0.0631 -1.9311
   29MOL   H31810454   5.113   6.791   3.061 -2.2737 -1.0366  0.9024
   29MOL   H31910455   5.034   6.918   3.280  0.0725  0.0038 -0.7554
   29MOL   H32010456   5.090   6.780   3.368 -2.2531 -2.0204  0.5766
   29MOL   H32110457   4.844   6.790   3.178 -0.5913 -0.8115 -0.5738
   29MOL   H32210458   4.910   6.641   3.260  1.3370 -0.0447 -0.0717
   29MOL   H32310459   4.854   6.729   3.487 -0.6920  0.1071  0.4259
   29MOL   H32410460   4.711   6.736   3.401  0.1835 -0.7193 -0.6334
   29MOL   H32510461   4.805   6.875   3.427 -0.2180  0.1235 -1.3421
   29MOL   C32610462   5.304   6.956   3.216  0.3658  0.1728 -0.3300
   29MOL   C32710463   5.440   7.015   3.260 -0.4945 -0.1901 -0.8568
   29MOL   C32810464   5.436   7.171   3.252 -1.0650  0.1482 -0.1973
   29MOL   C32910465   5.490   7.233   3.122  0.2060  0.2920  0.9874
   29MOL   C33010466   5.450   7.377   3.116 -0.1865 -0.1167  0.0992
   29MOL   C33110467   5.495   7.449   2.990 -0.6168  0.1434 -0.3959
   29MOL   H33210468   5.230   6.996   3.285 -0.8563 -0.0402 -1.5123
   29MOL   H33310469   5.274   6.995   3.119  0.2087 -1.3167 -0.8885
   29MOL   H33410470   5.523   6.976   3.201  2.2255  2.8385  0.7676
   29MOL   H33510471   5.329   7.187   3.262 -1.0396 -0.1144  0.5088
   29MOL   H33610472   5.485   7.226   3.332  0.9617 -3.3274  1.1022
   29MOL   H33710473   5.449   7.170   3.043  0.2030  0.8470  0.5509
   29MOL   H33810474   5.598   7.231   3.107 -0.4256 -1.3867 -4.5527
   29MOL   H33910475   5.342   7.388   3.120 -0.2884 -0.7192 -1.1512
   29MOL   H34010476   5.496   7.426   3.203  1.4063 -0.9217 -0.2775
   29MOL   H34110477   5.464   7.553   2.995  0.6706  0.4429  1.6358
   29MOL   H34210478   5.446   7.399   2.906  0.6285  0.0752 -1.0819
   29MOL   H34310479   5.604   7.453   2.988 -0.6722  2.5575 -0.4657
   29MOL   C34410480   5.478   6.962   3.401 -0.2252  0.4365  0.3650
   29MOL   C34510481   5.615   6.989   3.450 -0.4637 -0.1767 -0.2155
   29MOL   C34610482   5.635   6.950   3.599  0.6944 -0.2105 -0.9759
   29MOL   C34710483   5.750   7.035   3.665  0.6118 -0.2458  0.5839
   29MOL   C34810484   5.886   6.998   3.604  0.5097 -0.1235 -0.0242
   29MOL   C34910485   6.009   7.037   3.684 -0.2026  0.5021  0.7779
   29MOL   H35010486   5.403   7.004   3.468 -1.5529 -1.1718 -0.0791
   29MOL   H35110487   5.469   6.854   3.399  1.0088  0.2919  1.6755
   29MOL   H35210488   5.652   7.091   3.445 -0.4778  0.0008  2.4465
   29MOL   H35310489   5.544   6.986   3.647  1.8318  3.9686 -1.8120
   29MOL   H35410490   5.646   6.843   3.617  0.4110 -0.0324  0.3471
   29MOL   H35510491   5.724   7.141   3.659  2.8653  0.3150  0.0625
   29MOL   H35610492   5.739   6.999   3.767 -1.2543  0.1357  0.5336
   29MOL   H35710493   5.885   6.889   3.593 -0.5707  0.0161 -1.5691
   29MOL   H35810494   5.894   7.034   3.501  1.9235  1.2450  0.5511
   29MOL   H35910495   6.012   7.146   3.688 -4.1802  0.7567 -0.9044
   29MOL   H36010496   6.013   6.994   3.784 -0.2482 -0.8553  0.2169
   29MOL   H36110497   6.103   7.015   3.632 -1.2435  0.8493 -1.2843
   29MOL   H36210498   5.682   6.931   3.387 -0.5113 -0.0211 -0.4108
   30MOL     C110499   0.275   2.989   4.453  1.1709 -0.2593 -0.7389
   30MOL     C210500   0.359   2.865   4.464 -0.1199  0.1375 -0.4227
   30MOL     C310501   0.263   2.747   4.502  0.8102  0.4083 -0.6731
   30MOL     C410502   0.334   2.604   4.527 -0.1694 -0.3752  0.6589
   30MOL     C510503   0.235   2.488   4.511  0.3675  0.6057  0.4465
   30MOL     C610504   0.205   2.463   4.360  0.3596  0.1371  0.1299
   30MOL     H710505   0.218   3.005   4.545  0.3147  1.4006 -1.5316
   30MOL     H810506   0.330   3.083   4.444  1.5965 -0.2997  1.2129
   30MOL     H910507   0.406   2.829   4.372  2.6418 -1.0562  1.3959
   30MOL    H1010508   0.185   2.728   4.428  1.7015  2.1648 -2.1140
   30MOL    H1110509   0.208   2.773   4.593  1.3849  0.2799 -0.2905
   30MOL    H1210510   0.379   2.610   4.626  1.6689  0.2460 -0.1806
   30MOL    H1310511   0.412   2.602   4.450  1.1007 -1.5909  1.9558
   30MOL    H1410512   0.279   2.402   4.561 -0.2502  0.1013  0.1228
   30MOL    H1510513   0.144   2.522   4.561  0.0358 -0.3465  0.5026
   30MOL    H1610514   0.296   2.436   4.307  1.8375 -0.3192  2.8335
   30MOL    H1710515   0.170   2.557   4.318  1.1170  0.8013  0.9688
   30MOL    H1810516   0.124   2.393   4.337  1.9638 -2.0810  1.0005
   30MOL    H1910517   0.214   2.980   4.363  2.0001  0.0333 -1.3278
   30MOL    C2010518   0.477   2.888   4.568  0.8338 -0.3744  0.2172
   30MOL    C2110519   0.584   2.988   4.512  0.1122  0.4380 -0.5391
   30MOL    C2210520   0.598   3.104   4.614  0.4552 -0.0316  0.3698
   30MOL    C2310521   0.672   3.234   4.560  0.3107  0.2480  0.2673
   30MOL    C2410522   0.587   3.313   4.457 -0.0576  0.3766 -0.0756
   30MOL    C2510523   0.642   3.455   4.426 -0.2026  0.1340 -0.0423
   30MOL    H2610524   0.512   2.797   4.617  1.0910  1.1042  2.8526
   30MOL    H2710525   0.428   2.924   4.658  1.3630 -1.2194  0.8463
   30MOL    H2810526   0.546   3.036   4.422 -0.7882 -0.1791 -0.4832
   30MOL    H2910527   0.651   3.083   4.707  2.4878  0.3444 -0.6899
   30MOL    H3010528   0.496   3.138   4.634  0.8098  2.0838 -1.2954
   30MOL    H3110529   0.769   3.203   4.521  0.5467  0.4818  0.6639
   30MOL    H3210530   0.694   3.308   4.637 -1.9609  0.1239  1.0620
   30MOL    H3310531   0.566   3.271   4.358 -0.5266 -0.2135  0.2697
   30MOL    H3410532   0.484   3.324   4.489 -0.4116 -0.6352 -0.8309
   30MOL    H3510533   0.676   3.513   4.512  2.0736 -1.7141  0.3596
   30MOL    H3610534   0.724   3.445   4.355 -2.3885  0.9572 -2.7667
   30MOL    H3710535   0.568   3.512   4.370 -0.2170 -1.1458 -1.3489
   30MOL    C3810536   0.724   2.925   4.491  0.7249 -0.2953 -0.3148
   30MOL    C3910537   0.717   2.787   4.417 -0.7504 -0.4157  0.6024
   30MOL    C4010538   0.685   2.821   4.261 -0.0590 -0.0926  0.4831
   30MOL    C4110539   0.634   2.705   4.185 -0.6799 -0.3184  0.2710
   30MOL    C4210540   0.551   2.730   4.059 -0.0717  0.1110 -0.0823
   30MOL    C4310541   0.415   2.791   4.087 -0.2277  0.0602  0.0506
   30MOL    H4410542   0.783   2.914   4.581 -0.3803 -1.0096  0.3324
   30MOL    H4510543   0.781   3.001   4.437 -1.6131  0.0718 -2.3751
   30MOL    H4610544   0.633   2.733   4.461 -0.6128 -1.8748 -0.8576
   30MOL    H4710545   0.609   2.899   4.252 -2.3965 -2.4084 -0.5487
   30MOL    H4810546   0.778   2.850   4.213  0.1333 -0.8007  0.4170
   30MOL    H4910547   0.719   2.649   4.146 -0.8427 -1.7415  1.9132
   30MOL    H5010548   0.580   2.636   4.250 -2.7590  0.4603 -0.5733
   30MOL    H5110549   0.609   2.767   3.975  3.1040 -1.3093  1.3897
   30MOL    H5210550   0.522   2.632   4.019  1.4985  0.1951 -1.4829
   30MOL    H5310551   0.361   2.827   3.999 -0.5663 -1.3581 -0.3398
   30MOL    H5410552   0.426   2.885   4.141 -0.2305  0.2272 -0.2354
   30MOL    H5510553   0.355   2.726   4.151 -0.0513 -1.5093 -1.3461
   30MOL    C5610554   0.841   2.698   4.432 -1.1371 -0.0030 -0.6834
   30MOL    C5710555   0.842   2.591   4.550  0.0250  0.6339 -0.1473
   30MOL    C5810556   0.748   2.470   4.516  0.1788  0.0837 -0.1671
   30MOL    C5910557   0.788   2.343   4.589  0.0727 -0.5319 -0.0679
   30MOL    C6010558   0.710   2.218   4.539 -0.5518  0.3355 -0.0446
   30MOL    C6110559   0.556   2.220   4.542  0.1273  0.3213  0.6394
   30MOL    H6210560   0.873   2.643   4.344 -0.8774  1.4625 -1.5304
   30MOL    H6310561   0.928   2.763   4.441  1.7559 -3.9038  0.7755
   30MOL    H6410562   0.942   2.548   4.540 -0.8986 -1.4114 -0.7888
   30MOL    H6510563   0.647   2.502   4.540  0.1631  0.1926 -0.3762
   30MOL    H6610564   0.747   2.454   4.408 -2.2968  2.1619 -0.4913
   30MOL    H6710565   0.773   2.361   4.696  1.5666  2.6954 -0.3224
   30MOL    H6810566   0.894   2.319   4.588  0.2210  0.0901  0.0271
   30MOL    H6910567   0.734   2.199   4.434  0.0082  0.6812  0.0197
   30MOL    H7010568   0.754   2.131   4.587 -3.3567 -1.6519 -0.9430
   30MOL    H7110569   0.511   2.127   4.506 -2.2729  1.1443  1.4188
   30MOL    H7210570   0.508   2.234   4.639  0.8146 -0.2197  1.0608
   30MOL    H7310571   0.506   2.304   4.493  0.0819 -1.0948 -1.7979
   30MOL    C7410572   0.841   2.657   4.693  0.2407  0.6420  0.1728
   30MOL    C7510573   0.978   2.720   4.744 -0.1843  0.1965  0.5652
   30MOL    C7610574   0.949   2.791   4.875 -0.0879  0.4330  0.2745
   30MOL    C7710575   0.873   2.923   4.849 -0.0330 -0.6843  0.4100
   30MOL    C7810576   0.858   3.027   4.961  0.1248 -0.6339  0.2666
   30MOL    C7910577   0.987   3.084   5.030  0.8396  0.1312  0.7239
   30MOL    H8010578   0.753   2.721   4.704 -0.5749 -0.7872  2.2438
   30MOL    H8110579   0.810   2.583   4.767  1.7285 -1.2967 -1.1155
   30MOL    H8210580   1.007   2.781   4.658  0.9362 -1.5146 -0.2828
   30MOL    H8310581   0.886   2.732   4.943 -1.0375 -0.8259 -1.6397
   30MOL    H8410582   1.043   2.817   4.923 -1.4703 -0.1186  3.4470
   30MOL    H8510583   0.918   2.977   4.766 -1.5316 -0.9679 -0.6227
   30MOL    H8610584   0.770   2.903   4.819 -0.3759  0.1514  0.9889
   30MOL    H8710585   0.809   2.977   5.044 -0.6062 -2.8000 -1.4353
   30MOL    H8810586   0.796   3.109   4.924 -2.5544 -2.0122  1.5732
   30MOL    H8910587   0.972   3.157   5.110  1.8635  0.9830  0.1561
   30MOL    H9010588   1.042   3.002   5.076  0.7474 -1.0893 -1.2990
   30MOL    H9110589   1.051   3.132   4.955 -1.6140  1.6349 -0.4565
   30MOL    C9210590   1.097   2.616   4.764  0.2072  0.3028 -0.0440
   30MOL    C9310591   1.242   2.675   4.771 -0.5395  0.0738 -0.3501
   30MOL    C9410592   1.339   2.588   4.859 -0.2283 -0.9453 -0.1603
   30MOL    C9510593   1.302   2.582   5.008 -0.1443  0.9823 -0.3020
   30MOL    C9610594   1.419   2.536   5.093 -0.0795  0.6531 -0.3243
   30MOL    C9710595   1.371   2.526   5.240 -1.1318  0.0609 -0.1816
   30MOL    H9810596   1.077   2.579   4.865  0.0175 -1.6053 -0.7645
   30MOL    H9910597   1.085   2.528   4.701 -3.6039  0.2783  0.6027
   30MOL   H10010598   1.233   2.769   4.824  1.6800  0.3662 -0.4514
   30MOL   H10110599   1.430   2.648   4.863 -1.0333  0.2355  0.9684
   30MOL   H10210600   1.355   2.487   4.820 -2.3801 -0.2104 -3.1738
   30MOL   H10310601   1.283   2.686   5.033 -1.2518  1.0996 -1.5877
   30MOL   H10410602   1.211   2.524   5.025 -1.2171  1.8977 -2.6842
   30MOL   H10510603   1.460   2.440   5.061  1.4013  0.5933  1.7038
   30MOL   H10610604   1.503   2.603   5.074 -0.0137  0.3066 -1.3053
   30MOL   H10710605   1.361   2.621   5.293  1.5195  0.0350  0.4676
   30MOL   H10810606   1.284   2.462   5.245 -2.2332  1.5703  0.2381
   30MOL   H10910607   1.444   2.477   5.305 -0.5606  1.0619 -0.0607
   30MOL   C11010608   1.305   2.706   4.628  0.4026  0.9063  0.8685
   30MOL   C11110609   1.429   2.796   4.615 -0.1400 -0.2969 -0.1921
   30MOL   C11210610   1.390   2.938   4.642  0.1132 -0.1090  0.3781
   30MOL   C11310611   1.284   3.008   4.551  0.0979  0.5985  0.8655
   30MOL   C11410612   1.230   3.140   4.607 -0.9758 -0.4201  0.3457
   30MOL   C11510613   1.128   3.194   4.505 -0.0668  0.1365  0.1114
   30MOL   H11610614   1.309   2.612   4.574  0.4437  1.7699 -0.6527
   30MOL   H11710615   1.225   2.760   4.576 -1.7020 -1.8755  1.1223
   30MOL   H11810616   1.493   2.769   4.699 -0.2106 -0.0143 -0.0477
   30MOL   H11910617   1.481   2.998   4.648  0.8649 -1.2982  1.0627
   30MOL   H12010618   1.372   2.930   4.749  1.0434 -1.9949  0.4149
   30MOL   H12110619   1.193   2.951   4.533  1.3726 -0.9689 -0.7424
   30MOL   H12210620   1.322   3.014   4.449  2.4580 -0.6932  1.6361
   30MOL   H12310621   1.303   3.219   4.625 -2.9818  0.8819  3.0782
   30MOL   H12410622   1.175   3.131   4.701 -0.8095  0.7754  0.5660
   30MOL   H12510623   1.033   3.141   4.510  0.9068 -1.7523 -0.9715
   30MOL   H12610624   1.118   3.298   4.537 -0.5394 -0.4984  2.1359
   30MOL   H12710625   1.157   3.213   4.402  3.8554  0.7324  1.2039
   30MOL   C12810626   1.502   2.774   4.481  0.0552  0.1472  0.3308
   30MOL   C12910627   1.629   2.684   4.485  0.1939  0.3499 -0.1132
   30MOL   C13010628   1.714   2.687   4.359 -0.4458 -0.5001  0.2156
   30MOL   C13110629   1.777   2.818   4.319 -0.3997  0.0826  0.3288
   30MOL   C13210630   1.856   2.799   4.184 -0.4650 -0.3247 -0.0094
   30MOL   C13310631   1.875   2.925   4.107 -0.1494  0.0623  0.6823
   30MOL   H13410632   1.526   2.876   4.451 -0.9487  0.4169  0.4346
   30MOL   H13510633   1.431   2.741   4.406  0.2896 -0.1777  0.2480
   30MOL   H13610634   1.677   2.736   4.568  1.9219 -0.2844 -0.6789
   30MOL   H13710635   1.793   2.611   4.362  1.0038  0.9636  0.3392
   30MOL   H13810636   1.645   2.651   4.283 -0.3436  0.7828 -0.4956
   30MOL   H13910637   1.842   2.857   4.397 -2.5779  1.9964  1.2282
   30MOL   H14010638   1.690   2.881   4.302 -0.8308 -0.6665 -0.2994
   30MOL   H14110639   1.955   2.759   4.208  0.2914  1.8978  0.7160
   30MOL   H14210640   1.797   2.735   4.119  0.3629 -0.1893 -0.9082
   30MOL   H14310641   1.939   2.906   4.021  0.5186 -1.4897  1.4870
   30MOL   H14410642   1.924   3.004   4.163 -0.2337  1.4500 -1.1395
   30MOL   H14510643   1.780   2.970   4.076 -0.0563  0.4357  0.9397
   30MOL   C14610644   1.600   2.535   4.522  0.0101 -0.0714  0.0328
   30MOL   C14710645   1.720   2.457   4.584 -0.1860  0.2904  0.0022
   30MOL   C14810646   1.697   2.304   4.575 -0.1338  0.2474  0.0214
   30MOL   C14910647   1.578   2.251   4.661 -0.2006 -0.0485  0.0889
   30MOL   C15010648   1.526   2.115   4.604  0.1120  0.0556 -0.4555
   30MOL   C15110649   1.408   2.052   4.686 -0.3671 -0.6167 -0.7344
   30MOL   H15210650   1.505   2.520   4.573 -1.9395 -0.1799 -3.4230
   30MOL   H15310651   1.577   2.479   4.431 -0.5905  0.3574 -0.0829
   30MOL   H15410652   1.809   2.481   4.525 -1.6166  1.2128 -1.8702
   30MOL   H15510653   1.784   2.253   4.616  0.6566  3.0068  1.9325
   30MOL   H15610654   1.685   2.280   4.469 -2.4320 -2.8412  0.9146
   30MOL   H15710655   1.606   2.237   4.765  2.2082  1.2814 -0.3482
   30MOL   H15810656   1.499   2.326   4.652  2.5208  2.9443  0.3072
   30MOL   H15910657   1.608   2.044   4.615 -0.2040 -0.0971  0.9020
   30MOL   H16010658   1.483   2.137   4.506 -0.0965 -0.5214 -0.4919
   30MOL   H16110659   1.369   1.961   4.640 -1.5590 -0.2348 -0.5081
   30MOL   H16210660   1.437   2.030   4.789  0.3672 -1.4664 -1.1149
   30MOL   H16310661   1.328   2.126   4.690 -0.0980 -0.2366 -2.1077
   30MOL   C16410662   1.734   2.503   4.729  0.0899  0.1139 -0.2409
   30MOL   C16510663   1.865   2.460   4.802 -0.3241 -0.0978  0.0150
   30MOL   C16610664   1.990   2.520   4.736  1.1842 -0.1633  0.1797
   30MOL   C16710665   2.113   2.437   4.734 -0.4192 -0.1643 -0.6826
   30MOL   C16810666   2.239   2.506   4.655  0.0432 -0.0528 -0.0879
   30MOL   C16910667   2.361   2.408   4.653 -0.0075 -0.3446 -0.0046
   30MOL   H17010668   1.738   2.611   4.744 -0.8266  0.1343 -0.1627
   30MOL   H17110669   1.644   2.468   4.778  1.0691  0.5265  1.8981
   30MOL   H17210670   1.863   2.354   4.778 -0.1637  0.2015 -1.3685
   30MOL   H17310671   2.029   2.604   4.794 -0.1376  0.9713 -0.5419
   30MOL   H17410672   1.974   2.564   4.638  1.8269 -1.2030 -0.3946
   30MOL   H17510673   2.098   2.339   4.690 -1.0742 -0.7130  0.7293
   30MOL   H17610674   2.144   2.421   4.837  1.2346  1.5318 -0.8972
   30MOL   H17710675   2.283   2.586   4.713  0.1338 -0.3197  0.2112
   30MOL   H17810676   2.202   2.542   4.559 -1.0532  0.5628  0.5498
   30MOL   H17910677   2.368   2.352   4.746  0.7371 -2.9209 -1.5603
   30MOL   H18010678   2.453   2.452   4.615  0.1273  1.4286  2.2515
   30MOL   H18110679   2.342   2.330   4.579 -2.0936 -0.0622  0.1849
   30MOL   C18210680   1.845   2.477   4.951 -0.0975  0.6957 -0.2852
   30MOL   C18310681   1.948   2.404   5.044 -0.8092  0.3279 -0.0407
   30MOL   C18410682   1.968   2.246   5.021 -0.3737  0.1355  0.5470
   30MOL   C18510683   1.835   2.170   5.013  0.4094  0.2134 -0.0602
   30MOL   C18610684   1.856   2.022   5.001 -0.5236  0.2606  0.3122
   30MOL   C18710685   1.748   1.930   4.934 -0.8807 -0.0140 -0.1606
   30MOL   H18810686   1.847   2.584   4.972 -0.7178  1.1469 -2.4396
   30MOL   H18910687   1.746   2.452   4.989  0.2704  1.1026  0.9820
   30MOL   H19010688   2.046   2.448   5.023  0.2840 -2.5397 -1.2302
   30MOL   H19110689   2.025   2.236   4.928  0.6488  0.6619  1.1075
   30MOL   H19210690   2.038   2.203   5.093 -1.7891 -0.0040  1.8649
   30MOL   H19310691   1.783   2.199   4.922  0.2016  0.0279  0.0011
   30MOL   H19410692   1.764   2.179   5.095  0.1401  1.4125 -0.4180
   30MOL   H19510693   1.864   1.974   5.099  0.3891 -0.5921 -0.1755
   30MOL   H19610694   1.947   2.012   4.941  0.0700  1.9045  0.9160
   30MOL   H19710695   1.785   1.830   4.910 -1.6159  0.1623 -2.0576
   30MOL   H19810696   1.708   1.969   4.841 -0.2726  1.5452  0.2211
   30MOL   H19910697   1.663   1.927   5.003  1.0554  1.6982  2.4047
   30MOL   C20010698   1.914   2.423   5.190 -0.4675 -0.8796  0.1021
   30MOL   C20110699   1.894   2.559   5.266  0.1049 -0.1776 -0.0525
   30MOL   C20210700   1.858   2.549   5.416 -0.4587 -0.6246 -0.7861
   30MOL   C20310701   1.723   2.484   5.448  0.4887  0.6967 -0.4329
   30MOL   C20410702   1.708   2.477   5.603  0.0044  0.2563  0.2666
   30MOL   C20510703   1.567   2.444   5.640  0.1659 -0.0623  1.0986
   30MOL   H20610704   2.003   2.380   5.237 -0.5281 -0.7860  0.3012
   30MOL   H20710705   1.838   2.350   5.218 -0.4237  0.2228  3.2161
   30MOL   H20810706   1.809   2.599   5.211 -0.0652 -1.2550 -0.5878
   30MOL   H20910707   1.857   2.650   5.457  0.8608 -0.1597 -1.8475
   30MOL   H21010708   1.942   2.495   5.460  0.1467 -0.6508 -1.9491
   30MOL   H21110709   1.703   2.383   5.415  0.2928  0.0100  1.6725
   30MOL   H21210710   1.657   2.556   5.400 -1.3504 -0.0249  0.9605
   30MOL   H21310711   1.761   2.554   5.660  0.7799  0.0630 -0.1890
   30MOL   H21410712   1.762   2.386   5.630 -0.5451 -0.6245 -1.5069
   30MOL   H21510713   1.502   2.413   5.558  1.1113 -0.4780  0.4978
   30MOL   H21610714   1.553   2.363   5.711 -0.8239 -2.3260 -1.5597
   30MOL   H21710715   1.527   2.536   5.682 -2.3755 -0.4210 -0.3751
   30MOL   C21810716   2.019   2.651   5.244  0.3902 -0.2537  0.4494
   30MOL   C21910717   2.006   2.800   5.270 -0.0642  0.7503  0.3254
   30MOL   C22010718   1.926   2.870   5.161  0.3103 -0.0929  0.9131
   30MOL   C22110719   1.976   2.866   5.013 -0.2867 -0.3205 -0.0486
   30MOL   C22210720   1.861   2.917   4.919 -0.0253 -0.6152  0.1349
   30MOL   C22310721   1.895   2.895   4.772 -0.3753 -0.0308 -0.0444
   30MOL   H22410722   2.097   2.602   5.302 -0.9638 -2.8089  0.1747
   30MOL   H22510723   2.062   2.641   5.145  0.4969  0.3221  0.4369
   30MOL   H22610724   1.947   2.816   5.360 -0.5092  1.3009 -0.0638
   30MOL   H22710725   1.924   2.975   5.189  1.7788  0.2711 -0.2804
   30MOL   H22810726   1.820   2.846   5.166  0.2187 -0.5953 -2.4217
   30MOL   H22910727   2.007   2.765   4.990 -2.0437 -0.8824 -0.0219
   30MOL   H23010728   2.067   2.925   5.003 -0.6293  0.8044  2.7276
   30MOL   H23110729   1.768   2.861   4.927 -1.1648  1.3421  1.1145
   30MOL   H23210730   1.836   3.020   4.944  0.9514 -0.8361  2.1603
   30MOL   H23310731   1.995   2.924   4.742 -0.3555  0.1718  0.2157
   30MOL   H23410732   1.828   2.958   4.714  1.0324 -0.1112 -1.7729
   30MOL   H23510733   1.877   2.794   4.734  0.9722 -0.4042  0.2861
   30MOL   C23610734   2.143   2.876   5.300 -0.2763 -0.7935  0.7881
   30MOL   C23710735   2.149   2.953   5.432  0.9688 -0.1890 -0.2073
   30MOL   C23810736   2.144   2.855   5.554  0.3646  0.0227 -0.3210
   30MOL   C23910737   2.133   2.918   5.702  0.0429 -0.2632  0.2888
   30MOL   C24010738   2.145   2.814   5.810  0.3697  0.4207  0.0119
   30MOL   C24110739   2.121   2.897   5.936  0.2459  0.6041 -0.1230
   30MOL   H24210740   2.231   2.811   5.302  1.8610  1.8595 -2.0497
   30MOL   H24310741   2.170   2.943   5.219 -3.2653 -1.8192 -1.1410
   30MOL   H24410742   2.250   2.994   5.441  1.0183 -0.4834  0.7016
   30MOL   H24510743   2.060   2.789   5.531  0.0312  0.1830  0.4111
   30MOL   H24610744   2.228   2.787   5.545 -0.8245 -1.4830 -0.3036
   30MOL   H24710745   2.041   2.975   5.714 -0.6705 -1.0495 -1.4148
   30MOL   H24810746   2.214   2.990   5.716 -1.0195  0.6135  2.1751
   30MOL   H24910747   2.068   2.740   5.787  0.1025  0.5381  0.5317
   30MOL   H25010748   2.247   2.773   5.805  0.5825  1.2376 -3.0788
   30MOL   H25110749   2.033   2.961   5.929  0.5793  1.3734  2.2188
   30MOL   H25210750   2.093   2.834   6.020 -2.1702  0.9745 -0.6214
   30MOL   H25310751   2.209   2.955   5.964 -0.0777 -0.1516  2.5486
   30MOL   C25410752   2.044   3.064   5.442  0.1146 -0.6299  0.3230
   30MOL   C25510753   2.067   3.179   5.337 -0.4458  0.2443  0.3241
   30MOL   C25610754   2.199   3.250   5.337  0.2382  0.7001 -0.1940
   30MOL   C25710755   2.302   3.224   5.224  0.6391  0.4496 -0.5514
   30MOL   C25810756   2.424   3.310   5.223 -0.3221  0.2797 -1.0401
   30MOL   C25910757   2.385   3.448   5.163  0.0767 -0.0082  0.7402
   30MOL   H26010758   2.048   3.118   5.537  0.9876  2.2133 -1.2596
   30MOL   H26110759   1.946   3.022   5.424 -0.3174 -0.2687  1.7490
   30MOL   H26210760   2.056   3.133   5.239  1.4851 -0.0492  0.2297
   30MOL   H26310761   2.173   3.352   5.367 -1.8089 -0.1890  1.1450
   30MOL   H26410762   2.241   3.216   5.432 -0.6410 -1.3531 -0.5087
   30MOL   H26510763   2.333   3.120   5.226  0.1195  0.3110  1.1645
   30MOL   H26610764   2.245   3.229   5.131  0.7100  0.8200 -0.5760
   30MOL   H26710765   2.504   3.270   5.160 -0.9091 -0.0994 -1.5536
   30MOL   H26810766   2.473   3.327   5.319 -0.6043  1.7099 -1.1341
   30MOL   H26910767   2.463   3.523   5.173  1.0744 -1.0513  0.8725
   30MOL   H27010768   2.309   3.494   5.227 -1.1515  0.6639 -1.1270
   30MOL   H27110769   2.352   3.450   5.059 -0.1633  1.2321  0.8235
   30MOL   C27210770   1.954   3.284   5.336  0.3622  0.1333 -0.0119
   30MOL   C27310771   1.955   3.382   5.211  0.7181 -0.4120 -0.2474
   30MOL   C27410772   1.935   3.532   5.249  0.3631 -0.0456  0.0239
   30MOL   C27510773   1.794   3.572   5.282  0.1712  0.4498 -0.2396
   30MOL   C27610774   1.773   3.723   5.270 -0.0541 -0.3998  0.4556
   30MOL   C27710775   1.874   3.816   5.338 -0.1798 -0.1134  0.2938
   30MOL   H27810776   1.856   3.235   5.333  0.8858 -0.9475  0.3096
   30MOL   H27910777   1.967   3.336   5.431 -0.6952  1.2389 -0.4529
   30MOL   H28010778   2.062   3.388   5.192  1.2799  2.2418  3.1072
   30MOL   H28110779   1.972   3.595   5.169  0.9210  0.5684  0.7517
   30MOL   H28210780   1.997   3.563   5.333  0.4103  0.8852 -0.3576
   30MOL   H28310781   1.766   3.526   5.377  1.1774 -0.9233 -0.5831
   30MOL   H28410782   1.729   3.523   5.210 -1.3022  1.5530  0.3265
   30MOL   H28510783   1.770   3.745   5.163 -1.4581  0.0392  0.5760
   30MOL   H28610784   1.674   3.748   5.305 -0.8429 -0.9657 -1.2966
   30MOL   H28710785   1.973   3.800   5.294 -1.0704  0.2504 -1.9059
   30MOL   H28810786   1.842   3.920   5.335  1.1472  0.3100  0.4846
   30MOL   H28910787   1.887   3.800   5.445 -1.9260  2.2077  0.9050
   30MOL   C29010788   1.875   3.314   5.094  0.0279  0.0228  0.3335
   30MOL   C29110789   1.890   3.400   4.966  0.9134  0.4257 -0.2188
   30MOL   C29210790   2.036   3.396   4.910  0.3989  0.4025  0.1981
   30MOL   C29310791   2.075   3.258   4.839 -0.0862 -0.5996  0.6352
   30MOL   C29410792   2.220   3.266   4.776  0.4871 -0.0666  0.1534
   30MOL   C29510793   2.247   3.125   4.717  0.0281 -0.3109  0.1416
   30MOL   H29610794   1.773   3.302   5.129 -0.5105  1.5079 -0.6473
   30MOL   H29710795   1.901   3.215   5.056 -1.4652 -0.6363  1.0151
   30MOL   H29810796   1.871   3.501   5.001  3.2409  0.6914  0.3950
   30MOL   H29910797   2.099   3.406   4.999  1.8032  2.5335 -1.0111
   30MOL   H30010798   2.070   3.481   4.851  0.2249 -0.8572 -1.7599
   30MOL   H30110799   2.079   3.182   4.918 -0.4990 -0.7693  0.4931
   30MOL   H30210800   2.001   3.221   4.769  2.1201 -3.1907 -0.4497
   30MOL   H30310801   2.295   3.299   4.848  0.5142  1.2890 -0.4831
   30MOL   H30410802   2.220   3.331   4.688 -3.5660  0.1642  0.2399
   30MOL   H30510803   2.188   3.123   4.625 -0.2100  2.0030  0.2191
   30MOL   H30610804   2.194   3.058   4.784 -0.7474  1.3055  1.1750
   30MOL   H30710805   2.349   3.099   4.689 -1.0009 -1.1876 -3.1534
   30MOL   C30810806   1.774   3.367   4.862  0.4331  0.7216 -0.1270
   30MOL   C30910807   1.774   3.466   4.747 -0.1993 -0.5954  0.6682
   30MOL   C31010808   1.695   3.597   4.782  0.0657 -0.7972 -0.1647
   30MOL   C31110809   1.537   3.594   4.806 -0.9408 -0.9467  0.0615
   30MOL   C31210810   1.472   3.722   4.866  0.0492  0.2502  0.0690
   30MOL   C31310811   1.334   3.694   4.930  1.1714 -0.2653  0.5572
   30MOL   H31410812   1.772   3.268   4.817  0.2244  0.8395 -0.3755
   30MOL   H31510813   1.677   3.372   4.911 -0.4497 -0.7758 -1.6587
   30MOL   H31610814   1.876   3.496   4.724  1.1686 -4.2043  1.6125
   30MOL   H31710815   1.711   3.675   4.708 -1.4050 -0.7785 -0.4876
   30MOL   H31810816   1.748   3.631   4.871  0.8525 -0.5512 -0.7243
   30MOL   H31910817   1.526   3.519   4.885 -1.3847 -0.4393  0.4857
   30MOL   H32010818   1.481   3.571   4.716 -1.7727 -0.8435  0.5503
   30MOL   H32110819   1.532   3.762   4.947 -0.6194  5.4176 -1.8300
   30MOL   H32210820   1.459   3.798   4.789  0.2045 -1.7975 -2.0240
   30MOL   H32310821   1.334   3.636   5.023 -0.1224  1.0565  1.4059
   30MOL   H32410822   1.271   3.653   4.851  2.4845  0.5466 -0.9285
   30MOL   H32510823   1.295   3.792   4.958  0.3931 -0.6019  0.6789
   30MOL   C32610824   1.715   3.405   4.615  0.5863  0.3990 -0.4042
   30MOL   C32710825   1.804   3.298   4.541 -0.1072 -0.2190 -0.0808
   30MOL   C32810826   1.724   3.203   4.454  0.3124 -0.0228 -0.1274
   30MOL   C32910827   1.660   3.277   4.339 -0.1345 -0.2237  0.3563
   30MOL   C33010828   1.601   3.171   4.244  0.0085 -0.3898 -0.2889
   30MOL   C33110829   1.465   3.205   4.182 -0.2005 -0.4433  0.4145
   30MOL   H33210830   1.707   3.488   4.544 -0.3694  1.3547  0.8021
   30MOL   H33310831   1.614   3.368   4.630  1.0605 -0.1497  1.5604
   30MOL   H33410832   1.825   3.225   4.619 -0.6913  0.2735  0.5532
   30MOL   H33510833   1.784   3.118   4.421 -0.3210  0.4889 -2.6880
   30MOL   H33610834   1.647   3.154   4.513 -0.2089 -0.2908 -1.0273
   30MOL   H33710835   1.736   3.326   4.278 -1.3676  2.1010  0.6461
   30MOL   H33810836   1.589   3.352   4.370  0.0239  0.7261 -1.5275
   30MOL   H33910837   1.660   3.154   4.154  1.3914 -0.1149  0.5497
   30MOL   H34010838   1.589   3.073   4.289 -3.7804 -0.2392 -0.7822
   30MOL   H34110839   1.436   3.119   4.123  3.3228 -0.8780 -0.7861
   30MOL   H34210840   1.478   3.293   4.119 -1.0689 -0.6052  0.0053
   30MOL   H34310841   1.391   3.232   4.258 -1.8474 -1.2533 -0.8807
   30MOL   C34410842   1.933   3.359   4.476  0.0731  0.7973 -0.7882
   30MOL   C34510843   2.017   3.273   4.382  0.5909  0.7282  0.0862
   30MOL   C34610844   2.139   3.345   4.322 -0.7528  0.0159  0.0499
   30MOL   C34710845   2.218   3.264   4.219 -0.0091 -0.6713 -1.2825
   30MOL   C34810846   2.360   3.316   4.189 -0.0179 -0.3316 -0.4404
   30MOL   C34910847   2.427   3.220   4.092 -0.2558 -0.6230 -0.6319
   30MOL   H35010848   1.905   3.451   4.426  1.8410  0.7658 -1.8803
   30MOL   H35110849   1.998   3.398   4.555  2.4003  1.6418 -3.0450
   30MOL   H35210850   1.955   3.227   4.306 -1.6750  1.2313  1.5699
   30MOL   H35310851   2.109   3.440   4.277  1.2791  0.1986 -0.9832
   30MOL   H35410852   2.210   3.358   4.404  0.4712  1.4246 -1.1764
   30MOL   H35510853   2.229   3.166   4.265  0.0418 -0.5619 -1.0615
   30MOL   H35610854   2.152   3.253   4.133 -0.2169 -1.3442 -1.0353
   30MOL   H35710855   2.351   3.420   4.157 -1.4970 -0.2106  0.3035
   30MOL   H35810856   2.417   3.319   4.282  1.3049  0.0911 -1.2549
   30MOL   H35910857   2.518   3.270   4.060 -0.2927 -1.5017 -2.1522
   30MOL   H36010858   2.438   3.117   4.128  0.0621 -0.0266  1.0458
   30MOL   H36110859   2.365   3.221   4.003 -1.0614  1.0915 -0.0669
   30MOL   H36210860   2.052   3.185   4.436  0.8095  0.4507 -0.5033
   31MOL     C110861   6.793   1.045   0.502 -0.3502  0.1856 -0.2442
   31MOL     C210862   6.880   0.944   0.424 -0.1545 -0.5143  0.4985
   31MOL     C310863   6.894   0.815   0.510  0.6311 -0.1100  0.2498
   31MOL     C410864   6.771   0.730   0.518  0.4843 -0.1066  0.5993
   31MOL     C510865   6.787   0.623   0.631 -0.3645  0.5021  0.1412
   31MOL     C610866   6.682   0.514   0.631 -0.1878  0.9520  0.6053
   31MOL     H710867   6.842   1.066   0.597 -0.6613 -1.4476  0.2985
   31MOL     H810868   6.777   1.138   0.448  1.7564  0.3996 -0.5469
   31MOL     H910869   6.834   0.909   0.332 -0.3390  3.5222 -1.0241
   31MOL    H1010870   6.930   0.845   0.609 -0.1659 -1.8111  1.0634
   31MOL    H1110871   6.963   0.742   0.469 -1.0189 -1.4326 -0.1980
   31MOL    H1210872   6.753   0.675   0.426  0.5442  1.0156 -0.0924
   31MOL    H1310873   6.685   0.793   0.541 -0.1066 -0.0805 -1.5765
   31MOL    H1410874   6.880   0.569   0.614 -1.7098 -1.8756  0.1287
   31MOL    H1510875   6.795   0.661   0.733  0.2959  0.4007  0.1294
   31MOL    H1610876   6.660   0.466   0.536 -0.6179  0.5382  0.9145
   31MOL    H1710877   6.582   0.547   0.661 -0.3112  0.9322  0.2274
   31MOL    H1810878   6.710   0.430   0.694 -1.1143  0.5629  0.5072
   31MOL    H1910879   6.695   0.999   0.514  0.0407 -0.2920  1.1875
   31MOL    C2010880   7.019   0.997   0.395  0.3913  0.5408 -0.4635
   31MOL    C2110881   7.014   1.120   0.299  0.3766  0.5750 -0.9967
   31MOL    C2210882   7.147   1.188   0.300  0.2263 -0.4926 -0.5946
   31MOL    C2310883   7.269   1.137   0.229  0.0229 -0.2845  0.0013
   31MOL    C2410884   7.408   1.199   0.262 -0.3480  0.0300 -0.5288
   31MOL    C2510885   7.511   1.136   0.172  0.0207 -0.3700  0.2790
   31MOL    H2610886   7.072   0.912   0.353  1.9118  0.6679  1.1305
   31MOL    H2710887   7.066   1.023   0.490  1.1724  1.8195 -1.1761
   31MOL    H2810888   6.952   1.194   0.350 -0.4771  0.5434 -1.9694
   31MOL    H2910889   7.180   1.202   0.403  0.4719  0.8869 -0.8577
   31MOL    H3010890   7.143   1.287   0.254 -0.7470 -0.1700  0.1785
   31MOL    H3110891   7.255   1.129   0.121  0.4912  0.4178 -0.1174
   31MOL    H3210892   7.280   1.030   0.249  1.0470 -0.0128  0.9537
   31MOL    H3310893   7.400   1.305   0.235 -0.3425 -0.1284 -1.1565
   31MOL    H3410894   7.438   1.196   0.367  1.3522  1.5873 -0.9385
   31MOL    H3510895   7.494   1.167   0.069 -2.1376  1.3266  1.1313
   31MOL    H3610896   7.611   1.164   0.206 -0.4326  0.2177  1.1421
   31MOL    H3710897   7.496   1.028   0.184  1.2959 -0.9032 -2.4877
   31MOL    C3810898   6.968   1.094   0.158  0.2589  0.5217 -0.1372
   31MOL    C3910899   6.942   1.211   0.058  0.2252  0.0274 -0.0901
   31MOL    C4010900   6.933   1.166   7.635 -1.1263 -0.1212 -0.1850
   31MOL    C4110901   6.965   1.269   7.522  0.5103 -0.1035  0.0215
   31MOL    C4210902   6.944   1.199   7.394 -0.5503  0.3044  0.0888
   31MOL    C4310903   6.959   1.300   7.278  0.3026  0.3710 -0.9336
   31MOL    H4410904   6.874   1.038   0.160  0.1523  0.7008 -0.0513
   31MOL    H4510905   7.046   1.028   0.120  1.6015  0.4206  2.6751
   31MOL    H4610906   7.030   1.274   0.062  1.0277 -1.0484 -0.5710
   31MOL    H4710907   7.003   1.084   7.626 -0.2540  0.6735 -0.6556
   31MOL    H4810908   6.839   1.113   7.620 -0.8166  0.3182 -3.9221
   31MOL    H4910909   6.895   1.351   7.535 -1.1468 -1.4661 -0.1473
   31MOL    H5010910   7.065   1.310   7.533  0.6897 -0.3717 -0.6204
   31MOL    H5110911   7.016   1.118   7.391 -2.0599 -1.1435  1.6914
   31MOL    H5210912   6.845   1.153   7.394  0.3618 -1.8185 -3.7946
   31MOL    H5310913   6.976   1.249   7.183 -1.0678 -0.5167 -0.7094
   31MOL    H5410914   7.036   1.374   7.301 -1.3162  1.8024  0.0318
   31MOL    H5510915   6.868   1.356   7.257  1.1087  1.7823 -0.7610
   31MOL    C5610916   6.824   1.313   0.095 -0.3856 -1.1131 -0.1384
   31MOL    C5710917   6.680   1.285   0.046  0.0310 -0.6146 -0.8078
   31MOL    C5810918   6.595   1.411   0.052  0.4627 -0.0895  0.2939
   31MOL    C5910919   6.596   1.504   7.656  0.2027 -0.6697  0.3245
   31MOL    C6010920   6.505   1.620   7.677 -0.4891 -0.4719 -0.7517
   31MOL    C6110921   6.564   1.736   0.039 -0.5215  0.1955 -1.1800
   31MOL    H6210922   6.826   1.332   0.202  1.5355  3.0843 -0.8366
   31MOL    H6310923   6.841   1.413   0.056 -1.3285 -0.4576  1.1122
   31MOL    H6410924   6.682   1.264   7.667  1.4465 -1.4734 -0.6208
   31MOL    H6510925   6.489   1.395   0.070  0.0738  0.7372 -1.1371
   31MOL    H6610926   6.637   1.469   0.134  0.3510  0.6590 -0.1742
   31MOL    H6710927   6.566   1.456   7.563 -0.6763 -0.7152  0.6312
   31MOL    H6810928   6.692   1.551   7.635 -0.5575  1.0577  0.6427
   31MOL    H6910929   6.489   1.666   7.580  2.0377 -1.1821 -1.5424
   31MOL    H7010930   6.408   1.593   7.720  0.3693 -2.1059  0.2068
   31MOL    H7110931   6.494   1.813   0.072  0.7876  0.9342 -0.0714
   31MOL    H7210932   6.615   1.698   0.127  0.7034  3.4517 -0.3987
   31MOL    H7310933   6.639   1.795   7.712  0.6028  1.3316  1.5474
   31MOL    C7410934   6.627   1.156   0.126  0.2710  0.7982  0.6859
   31MOL    C7510935   6.485   1.110   0.094  0.6402  0.0151  0.3849
   31MOL    C7610936   6.443   1.131   7.667  0.4073  0.0272 -0.1586
   31MOL    C7710937   6.512   1.031   7.573  0.4587 -0.8161 -0.3366
   31MOL    C7810938   6.451   1.051   7.428  0.5241 -0.5670  0.1955
   31MOL    C7910939   6.304   1.019   7.406 -0.0977 -0.1289 -0.4675
   31MOL    H8010940   6.686   1.066   0.109 -1.2411 -0.1925  0.5933
   31MOL    H8110941   6.640   1.159   0.234  1.5056  1.4413  0.5340
   31MOL    H8210942   6.424   1.183   0.147 -0.5502 -1.0020  0.4526
   31MOL    H8310943   6.335   1.113   7.660  0.4283  0.4488 -1.6144
   31MOL    H8410944   6.455   1.234   7.635 -3.2763  0.2154 -1.2297
   31MOL    H8510945   6.620   1.045   7.565  0.6095 -2.3754 -1.2985
   31MOL    H8610946   6.495   0.931   7.614  1.5379 -1.7881 -2.1764
   31MOL    H8710947   6.508   0.986   7.361 -1.3534  1.5952 -3.6859
   31MOL    H8810948   6.472   1.155   7.402 -1.9986  0.5479  2.4916
   31MOL    H8910949   6.253   1.107   7.445 -1.0439 -0.0729 -1.7795
   31MOL    H9010950   6.272   0.979   7.309  0.9124  1.4399 -1.4815
   31MOL    H9110951   6.285   0.932   7.468  1.9726 -0.1055  0.2336
   31MOL    C9210952   6.455   0.967   0.157 -0.0960 -0.0913 -0.0253
   31MOL    C9310953   6.306   0.931   0.185 -0.4263 -0.1104 -0.2192
   31MOL    C9410954   6.253   0.835   0.074 -0.1422 -0.1726  0.1570
   31MOL    C9510955   6.317   0.692   0.060 -0.4891 -0.7868 -0.1664
   31MOL    C9610956   6.260   0.615   7.668  0.2856 -0.0612  0.3646
   31MOL    C9710957   6.336   0.480   7.647  0.4281  0.3312  0.9234
   31MOL    H9810958   6.501   0.883   0.105  0.9146 -0.1855  0.9938
   31MOL    H9910959   6.511   0.964   0.251 -0.4578 -1.4145  0.1441
   31MOL   H10010960   6.242   1.017   0.166  0.1835  0.2526 -0.6743
   31MOL   H10110961   6.281   0.887   7.710 -1.0517 -0.2963 -0.1953
   31MOL   H10210962   6.145   0.845   0.072  0.0093  1.3134 -1.7630
   31MOL   H10310963   6.426   0.692   0.050 -0.4105 -2.8079  0.5449
   31MOL   H10410964   6.289   0.645   0.154 -0.1906  1.2282  0.9476
   31MOL   H10510965   6.162   0.586   7.705  1.1374 -2.2276  1.0091
   31MOL   H10610966   6.248   0.677   7.579  1.0476  2.9601  2.3148
   31MOL   H10710967   6.441   0.507   7.662  0.7001  0.1648 -0.5691
   31MOL   H10810968   6.306   0.401   7.716 -1.1256 -1.1227 -1.3531
   31MOL   H10910969   6.324   0.447   7.544 -0.1313  1.3030  0.6641
   31MOL   C11010970   6.293   0.873   0.324 -0.5698  0.3737 -0.0647
   31MOL   C11110971   6.319   0.960   0.451  0.7320  0.0309  0.0065
   31MOL   C11210972   6.337   0.870   0.574 -0.3736  0.0585  0.3472
   31MOL   C11310973   6.402   0.944   0.697  0.0007  0.6405 -0.1041
   31MOL   C11410974   6.438   0.851   0.817 -0.2684 -0.0115 -0.2366
   31MOL   C11510975   6.342   0.733   0.845 -0.4777 -0.4495  0.0947
   31MOL   H11610976   6.197   0.823   0.332 -0.5685  0.8359  3.7210
   31MOL   H11710977   6.372   0.798   0.333 -1.3842 -0.3351  1.3818
   31MOL   H11810978   6.414   1.014   0.441 -0.6057  3.1543  3.0518
   31MOL   H11910979   6.407   0.790   0.552  0.1017  0.2633  1.0811
   31MOL   H12010980   6.239   0.823   0.590 -0.7551  0.7062 -0.0666
   31MOL   H12110981   6.327   1.012   0.737  0.1376  0.9497 -0.3686
   31MOL   H12210982   6.487   1.005   0.665  0.6043  0.7864  1.7104
   31MOL   H12310983   6.463   0.902   0.910 -0.8742 -2.8115  1.4985
   31MOL   H12410984   6.532   0.808   0.783 -0.0229  1.3507 -1.3240
   31MOL   H12510985   6.358   0.667   0.759 -0.0011 -1.0644  0.6513
   31MOL   H12610986   6.349   0.669   0.933  0.8823 -2.2768 -1.2719
   31MOL   H12710987   6.238   0.762   0.834 -0.6314 -0.9410  0.2208
   31MOL   C12810988   6.199   1.050   0.480 -0.8084 -0.1316 -0.2291
   31MOL   C12910989   6.205   1.191   0.426  0.3116 -0.6248  0.1686
   31MOL   C13010990   6.325   1.267   0.489 -0.7145  0.0935  0.2772
   31MOL   C13110991   6.408   1.341   0.385  0.7979  0.0981 -0.0085
   31MOL   C13210992   6.503   1.452   0.448  0.4442  0.1355  0.4143
   31MOL   C13310993   6.417   1.578   0.480 -0.2285  0.3629  0.0518
   31MOL   H13410994   6.179   1.054   0.587 -0.4255 -1.2502 -0.1044
   31MOL   H13510995   6.107   1.010   0.437 -1.2050  2.3139 -1.8155
   31MOL   H13610996   6.211   1.174   0.318 -0.2134  1.0291 -0.1366
   31MOL   H13710997   6.284   1.331   0.567 -0.4163 -1.1894  1.5083
   31MOL   H13810998   6.387   1.196   0.545 -0.9471 -0.5107 -0.2329
   31MOL   H13910999   6.350   1.382   0.302  1.2524 -0.3875 -0.5680
   31MOL   H14011000   6.478   1.270   0.341  1.1752 -1.3758  2.8665
   31MOL   H14111001   6.548   1.412   0.538 -0.3792 -0.9498  0.3498
   31MOL   H14211002   6.581   1.488   0.381  0.1401  0.2725  0.1297
   31MOL   H14311003   6.474   1.663   0.517  1.4533 -2.5006  4.4599
   31MOL   H14411004   6.345   1.569   0.561 -0.9063 -0.1213 -0.5929
   31MOL   H14511005   6.355   1.615   0.398  0.5980  2.7681  0.4763
   31MOL   C14611006   6.069   1.264   0.453 -0.2373  0.1103  0.1348
   31MOL   C14711007   6.040   1.397   0.371 -0.3785 -0.5487  0.4340
   31MOL   C14811008   5.939   1.489   0.445 -0.1642  0.4330 -0.0044
   31MOL   C14911009   6.007   1.557   0.567 -0.2962 -0.4361 -0.1188
   31MOL   C15011010   5.918   1.672   0.613  0.1799  0.4993 -0.8171
   31MOL   C15111011   5.963   1.730   0.745 -0.0223 -0.8222  0.0676
   31MOL   H15211012   5.994   1.193   0.418  0.3471 -0.3526 -0.1936
   31MOL   H15311013   6.067   1.287   0.559  1.2060  0.4725  0.0954
   31MOL   H15411014   6.133   1.454   0.364  0.5143 -2.0914 -0.4745
   31MOL   H15511015   5.851   1.433   0.477 -1.1496  0.4067 -2.6257
   31MOL   H15611016   5.898   1.564   0.378 -0.1876  0.3852 -0.0433
   31MOL   H15711017   6.026   1.482   0.644 -0.8781 -0.0064  0.4467
   31MOL   H15811018   6.110   1.588   0.546  0.3308 -2.3477 -0.0175
   31MOL   H15911019   5.812   1.647   0.616  0.2561  0.2886  1.9140
   31MOL   H16011020   5.923   1.754   0.541  0.5135 -0.3544 -1.7760
   31MOL   H16111021   5.956   1.662   0.830  1.1204 -0.3626  0.5485
   31MOL   H16211022   6.067   1.762   0.733 -0.6809  1.1615 -0.5365
   31MOL   H16311023   5.911   1.819   0.780  1.0938  0.5094 -1.5794
   31MOL   C16411024   5.982   1.358   0.231  0.1008  0.2334 -0.2788
   31MOL   C16511025   5.977   1.476   0.130  0.0493  0.4011 -0.4605
   31MOL   C16611026   6.109   1.559   0.114  0.2488  0.1148 -0.1798
   31MOL   C16711027   6.105   1.686   0.202 -0.5803  0.6857  0.0038
   31MOL   C16811028   6.223   1.783   0.169  0.2946 -0.3519 -0.0202
   31MOL   C16911029   6.209   1.919   0.231  0.4564 -1.1371  0.8858
   31MOL   H17011030   6.044   1.279   0.190  0.1640  0.8768 -1.4459
   31MOL   H17111031   5.884   1.312   0.247  0.6759 -1.3461 -1.2235
   31MOL   H17211032   5.900   1.539   0.174  0.9309  0.4652  1.0153
   31MOL   H17311033   6.115   1.582   0.008 -1.6290  2.4895  0.1619
   31MOL   H17411034   6.201   1.506   0.139 -0.2342 -0.0896  1.1996
   31MOL   H17511035   6.121   1.669   0.309  0.8874  1.5251 -0.0725
   31MOL   H17611036   6.013   1.742   0.185 -1.8587 -1.8450 -1.6547
   31MOL   H17711037   6.234   1.792   0.061 -0.2574 -2.6370 -0.2963
   31MOL   H17811038   6.311   1.732   0.208  1.0543  0.8345 -0.1704
   31MOL   H17911039   6.138   1.912   0.314 -0.1106  2.7756  0.7892
   31MOL   H18011040   6.167   1.994   0.164  0.3543 -1.9292  0.0487
   31MOL   H18111041   6.302   1.958   0.271 -1.2726  3.3463  0.8485
   31MOL   C18211042   5.914   1.430   7.724 -0.4331  0.3977  0.2992
   31MOL   C18311043   5.777   1.494   7.678  0.3323  0.5870 -0.3097
   31MOL   C18411044   5.794   1.644   7.641 -0.1620  0.3191 -0.2721
   31MOL   C18511045   5.882   1.686   7.522  0.4894  0.0272  0.0310
   31MOL   C18611046   5.873   1.840   7.505  0.4108 -0.3780  0.7175
   31MOL   C18711047   5.945   1.891   7.379 -0.3331 -0.4552 -0.0946
   31MOL   H18811048   5.985   1.437   7.641 -2.6879 -1.3801 -1.8372
   31MOL   H18911049   5.898   1.322   0.006  2.0531  0.0553  1.0301
   31MOL   H19011050   5.754   1.442   7.585 -0.9310  0.1788  0.2097
   31MOL   H19111051   5.700   1.698   7.629 -0.8569 -0.7078  0.5254
   31MOL   H19211052   5.829   1.685   0.009  0.1857 -2.5997  0.9169
   31MOL   H19311053   5.861   1.625   7.435  0.6300  0.4933 -0.3279
   31MOL   H19411054   5.984   1.671   7.556  0.5400  3.4112  1.6134
   31MOL   H19511055   5.905   1.897   7.592 -3.5140  1.4141  1.0806
   31MOL   H19611056   5.768   1.868   7.493 -0.3679 -3.5717 -0.5025
   31MOL   H19711057   6.052   1.869   7.376  0.0350  1.3620 -0.7455
   31MOL   H19811058   5.935   1.999   7.372  2.4046 -0.1757 -0.5175
   31MOL   H19911059   5.903   1.847   7.288  0.4833  0.1400 -0.7776
   31MOL   C20011060   5.662   1.471   0.057 -0.4972  0.5662 -0.5133
   31MOL   C20111061   5.628   1.330   0.096 -0.2589  0.4812  0.3622
   31MOL   C20211062   5.540   1.318   0.224  0.0033 -0.0850 -0.6221
   31MOL   C20311063   5.599   1.377   0.355 -0.1390 -0.1707 -0.5725
   31MOL   C20411064   5.503   1.381   0.481 -0.2343 -0.0327 -0.4887
   31MOL   C20511065   5.556   1.448   0.606  0.2117 -0.3766 -0.1777
   31MOL   H20611066   5.564   1.509   0.025 -0.3621  1.1757 -0.2186
   31MOL   H20711067   5.687   1.530   0.146 -0.7287 -0.1507  0.0247
   31MOL   H20811068   5.722   1.282   0.123  0.2633  0.4852 -1.3831
   31MOL   H20911069   5.514   1.212   0.230 -2.3947  0.5065  0.2253
   31MOL   H21011070   5.443   1.367   0.209  0.9691  1.8982 -0.5508
   31MOL   H21111071   5.633   1.479   0.335 -2.7159  0.5878 -1.3321
   31MOL   H21211072   5.686   1.315   0.377  1.3366  1.3462 -1.9694
   31MOL   H21311073   5.492   1.277   0.512 -1.8760  0.7226  1.5895
   31MOL   H21411074   5.408   1.424   0.450 -0.5823  1.0333  1.9229
   31MOL   H21511075   5.630   1.523   0.577 -0.4307  0.0741 -0.6539
   31MOL   H21611076   5.483   1.497   0.670  1.2617  2.4854 -1.0720
   31MOL   H21711077   5.606   1.371   0.665  0.3290 -0.1380  0.0336
   31MOL   C21811078   5.559   1.251   7.711 -0.8344 -0.8077 -0.3368
   31MOL   C21911079   5.573   1.100   7.705 -1.0441  0.5508  0.2620
   31MOL   C22011080   5.717   1.050   7.696 -0.5726 -0.2646  0.2139
   31MOL   C22111081   5.794   1.072   7.565 -0.2484 -0.0646 -0.5893
   31MOL   C22211082   5.922   0.996   7.555 -0.3284  0.1663  0.0564
   31MOL   C22311083   5.899   0.842   7.549 -0.4489  0.6341 -0.4646
   31MOL   H22411084   5.453   1.276   7.717 -0.4226  0.7341  0.8516
   31MOL   H22511085   5.604   1.286   7.618  2.3888 -0.5436  1.2277
   31MOL   H22611086   5.533   1.059   0.071  2.2218 -0.0579  1.4856
   31MOL   H22711087   5.714   0.942   7.716 -1.6290 -0.1256  0.8387
   31MOL   H22811088   5.770   1.092   0.054  0.9360 -0.8890 -0.4022
   31MOL   H22911089   5.815   1.178   7.551 -1.2005 -0.0379 -1.9171
   31MOL   H23011090   5.726   1.037   7.488  0.0471 -1.5064 -0.2213
   31MOL   H23111091   5.972   1.025   7.463 -1.4856  3.2954  0.3275
   31MOL   H23211092   5.985   1.036   7.635 -1.5269  1.2263  0.4886
   31MOL   H23311093   5.833   0.831   7.463 -2.2784 -0.2751  1.0359
   31MOL   H23411094   5.841   0.793   7.627  0.2013 -1.1962 -1.1049
   31MOL   H23511095   5.989   0.781   7.544 -2.0093 -1.6918 -0.5520
   31MOL   C23611096   5.488   1.040   7.590  0.0360 -0.1118 -0.1490
   31MOL   C23711097   5.335   1.031   7.625  1.0775  0.2261 -0.1413
   31MOL   C23811098   5.317   0.913   7.724  0.1161 -0.7164  0.5068
   31MOL   C23911099   5.168   0.874   0.039 -0.1302 -0.3786  0.5246
   31MOL   C24011100   5.151   0.761   0.145  0.0245 -0.0933 -0.5059
   31MOL   C24111101   5.191   0.624   0.094 -0.4734  0.4671 -0.1079
   31MOL   H24211102   5.501   1.101   7.501  1.0925  0.2674  0.2537
   31MOL   H24311103   5.528   0.942   7.564 -0.7314 -0.3124 -0.5804
   31MOL   H24411104   5.314   1.129   7.668 -0.7943 -0.5424  0.7514
   31MOL   H24511105   5.366   0.830   7.673  0.4121 -0.1027 -0.2152
   31MOL   H24611106   5.376   0.927   0.087  0.9180  1.3097 -0.3110
   31MOL   H24711107   5.109   0.842   7.681 -2.0625 -1.1475  2.1123
   31MOL   H24811108   5.118   0.965   0.072  3.4160  1.0880  2.1781
   31MOL   H24911109   5.208   0.792   0.233  2.4506  0.4655 -2.2143
   31MOL   H25011110   5.050   0.759   0.185 -0.3036 -1.7794 -1.3794
   31MOL   H25111111   5.300   0.631   0.091 -0.5911  2.6031 -0.0566
   31MOL   H25211112   5.167   0.541   0.161 -1.4677  1.5806  0.9429
   31MOL   H25311113   5.156   0.599   7.721 -0.5460  1.3166 -0.3040
   31MOL   C25411114   5.244   1.032   7.506  0.2521  0.1254 -0.2439
   31MOL   C25511115   5.210   1.172   7.453  0.1279 -0.8146  0.7453
   31MOL   C25611116   5.060   1.187   7.434  0.7079 -0.0108 -0.0719
   31MOL   C25711117   4.984   1.229   7.554  0.5251 -0.4491  0.7269
   31MOL   C25811118   4.834   1.242   7.535 -0.0167  0.2220 -0.0606
   31MOL   C25911119   4.759   1.219   7.667  0.1348 -0.3691 -0.0513
   31MOL   H26011120   5.150   0.986   7.533  0.5878 -0.1514  0.4674
   31MOL   H26111121   5.266   0.961   7.426 -1.3054 -1.3655  0.6329
   31MOL   H26211122   5.242   1.243   7.529 -1.9862  0.4706  0.4591
   31MOL   H26311123   5.043   1.270   7.365 -0.9112  1.2721  1.7972
   31MOL   H26411124   5.008   1.098   7.399  2.0309 -1.2896  1.1800
   31MOL   H26511125   4.993   1.148   7.626  2.2727 -1.6627 -0.8297
   31MOL   H26611126   5.020   1.326   7.590 -0.9221  0.7202 -0.8806
   31MOL   H26711127   4.794   1.171   7.463 -0.3375  0.1108  0.2264
   31MOL   H26811128   4.813   1.339   7.490 -2.2329 -0.2919 -0.1894
   31MOL   H26911129   4.653   1.207   7.645  0.1830 -2.5348  0.7700
   31MOL   H27011130   4.760   1.308   0.002  0.1910 -0.9365  0.7767
   31MOL   H27111131   4.801   1.137   7.725 -0.6295 -0.1048  0.8840
   31MOL   C27211132   5.280   1.203   7.317  0.3831  0.3504 -0.0977
   31MOL   C27311133   5.307   1.348   7.279  0.3282 -0.9279  0.5175
   31MOL   C27411134   5.323   1.371   7.125  0.7952 -0.5481  0.8137
   31MOL   C27511135   5.187   1.350   7.048  0.5801  0.0127 -0.2381
   31MOL   C27611136   5.205   1.369   6.899 -0.3788  0.4229 -0.4246
   31MOL   C27711137   5.078   1.327   6.823  0.5167  0.1313 -0.0949
   31MOL   H27811138   5.370   1.143   7.304 -0.4222 -0.5548 -1.6565
   31MOL   H27911139   5.229   1.157   7.232  0.9632 -2.2564  0.9041
   31MOL   H28011140   5.221   1.408   7.310  0.1886 -1.5356  1.3239
   31MOL   H28111141   5.396   1.309   7.074  1.0789  0.4122  0.0273
   31MOL   H28211142   5.333   1.478   7.104 -0.7622 -0.5782 -0.2111
   31MOL   H28311143   5.118   1.429   7.079  0.5757 -0.2179  0.3549
   31MOL   H28411144   5.125   1.263   7.074 -0.6503  0.6444 -1.0014
   31MOL   H28511145   5.223   1.473   6.871  0.5613  0.5780  0.7324
   31MOL   H28611146   5.295   1.313   6.874  0.7858  2.5714 -1.2448
   31MOL   H28711147   5.080   1.362   6.720  0.9863  1.9049  0.4965
   31MOL   H28811148   5.065   1.219   6.820  0.5492  0.1196  0.1359
   31MOL   H28911149   4.988   1.371   6.865  1.3572  2.3426 -0.5537
   31MOL   C29011150   5.423   1.406   7.364  0.8394 -0.8004 -0.2148
   31MOL   C29111151   5.428   1.571   7.373  0.1437  0.5135  0.1490
   31MOL   C29211152   5.384   1.640   7.505  0.2030 -0.1265  0.0529
   31MOL   C29311153   5.240   1.602   7.534  0.0021  0.5093  0.9295
   31MOL   C29411154   5.198   1.641   7.675 -0.6749  0.1404  0.8278
   31MOL   C29511155   5.222   1.793   7.700  0.5915 -0.3779 -0.3485
   31MOL   H29611156   5.517   1.369   7.323  1.9202 -0.1422  1.5984
   31MOL   H29711157   5.408   1.377   7.468  0.1840  1.5094  0.3571
   31MOL   H29811158   5.369   1.633   7.305 -0.8147 -0.3840  0.1541
   31MOL   H29911159   5.387   1.748   7.488 -0.4178  0.1797  1.7207
   31MOL   H30011160   5.456   1.620   7.585 -0.6602 -0.8474  0.6492
   31MOL   H30111161   5.173   1.651   7.464  0.3425 -0.1138  0.1640
   31MOL   H30211162   5.211   1.497   7.522  0.3367  0.8039 -2.7959
   31MOL   H30311163   5.241   1.572   0.020 -0.4380 -1.1732 -0.5658
   31MOL   H30411164   5.091   1.629   7.685 -0.7400  1.3922  1.8515
   31MOL   H30511165   5.330   1.811   7.702  0.5760 -0.3207  0.1397
   31MOL   H30611166   5.177   1.833   0.064 -1.0155  0.0552 -1.3191
   31MOL   H30711167   5.194   1.868   7.627  2.8451  0.5390 -0.3251
   31MOL   C30811168   5.578   1.604   7.349 -1.0175  0.2746  0.2146
   31MOL   C30911169   5.618   1.582   7.199  0.7093 -0.4228  0.8991
   31MOL   C31011170   5.771   1.540   7.175  0.0364  0.1622 -0.4167
   31MOL   C31111171   5.822   1.421   7.255 -0.2054 -0.4822 -0.2160
   31MOL   C31211172   5.976   1.402   7.253 -0.0316 -0.3645 -0.2389
   31MOL   C31311173   6.021   1.271   7.313 -0.8739 -0.0758 -0.5545
   31MOL   H31411174   5.608   1.704   7.379 -0.2390  0.0624  0.1502
   31MOL   H31511175   5.632   1.537   7.416 -2.3317  3.0795  4.3587
   31MOL   H31611176   5.569   1.492   7.163  0.4695  0.4168 -0.9317
   31MOL   H31711177   5.827   1.625   7.216 -0.1848  0.2856 -0.3662
   31MOL   H31811178   5.793   1.527   7.069 -2.1560 -0.3583 -0.8473
   31MOL   H31911179   5.769   1.329   7.231  0.1558 -0.3925 -1.4038
   31MOL   H32011180   5.805   1.440   7.361 -1.5091  2.1730 -0.8729
   31MOL   H32111181   6.010   1.417   7.151 -1.0578 -0.0155 -0.5441
   31MOL   H32211182   6.030   1.472   7.317 -1.0649 -1.7130  2.1926
   31MOL   H32311183   6.113   1.222   7.284 -1.9612 -1.6629 -1.3855
   31MOL   H32411184   5.952   1.196   7.275  1.1619 -2.6376  0.7157
   31MOL   H32511185   6.018   1.266   7.422 -1.5538  0.4585 -0.5388
   31MOL   C32611186   5.577   1.706   7.113 -0.1038  0.0515  0.7675
   31MOL   C32711187   5.615   1.706   6.966  0.5498  0.3370 -0.5521
   31MOL   C32811188   5.543   1.587   6.890 -0.1966  0.4858 -0.3514
   31MOL   C32911189   5.577   1.574   6.748  0.5760 -0.0714 -0.3867
   31MOL   C33011190   5.500   1.471   6.666 -0.4061  0.3126 -0.1059
   31MOL   C33111191   5.534   1.491   6.518  0.0452  0.6510 -0.2359
   31MOL   H33211192   5.612   1.796   7.164 -0.5780 -0.5975  2.2598
   31MOL   H33311193   5.471   1.723   7.131  0.0197  1.2738  0.3779
   31MOL   H33411194   5.722   1.689   6.952  0.9663  0.5216  2.1436
   31MOL   H33511195   5.560   1.492   6.940  0.9477  0.8344 -0.0680
   31MOL   H33611196   5.436   1.607   6.894 -0.4150 -0.7339 -0.0838
   31MOL   H33711197   5.685   1.568   6.734  0.2067 -2.8679 -2.2882
   31MOL   H33811198   5.553   1.665   6.692  4.0699  0.1007 -1.7772
   31MOL   H33911199   5.530   1.369   6.690  2.4293  1.1577  0.0775
   31MOL   H34011200   5.391   1.473   6.677 -0.3143 -1.9295  1.5160
   31MOL   H34111201   5.477   1.422   6.455 -1.3065  1.7449 -0.2504
   31MOL   H34211202   5.640   1.486   6.496  0.0280  2.5476 -0.7863
   31MOL   H34311203   5.490   1.587   6.492 -2.1574  0.0139  0.9593
   31MOL   C34411204   5.565   1.850   6.897  0.8527  0.1006  0.5130
   31MOL   C34511205   5.610   1.974   6.961  0.0508 -0.6575  0.1392
   31MOL   C34611206   5.581   2.106   6.885 -0.6792 -0.7688 -0.4298
   31MOL   C34711207   5.434   2.121   6.828 -0.3189 -0.3848 -0.7805
   31MOL   C34811208   5.431   2.262   6.761  0.4923  0.1819  0.0829
   31MOL   C34911209   5.283   2.301   6.737  0.3362 -0.2114 -0.0383
   31MOL   H35011210   5.619   1.845   6.803 -0.4949  0.6261 -0.2923
   31MOL   H35111211   5.459   1.857   6.874  0.8622  1.5794  0.8559
   31MOL   H35211212   5.718   1.976   6.970  0.0315  0.3188  0.1884
   31MOL   H35311213   5.602   2.194   6.947 -0.2471  0.9395 -2.9416
   31MOL   H35411214   5.637   2.100   6.792  1.5234  0.6764  0.7766
   31MOL   H35511215   5.422   2.051   6.746  0.2762  0.7071 -1.8233
   31MOL   H35611216   5.359   2.114   6.907  1.4195 -0.5586  0.8811
   31MOL   H35711217   5.463   2.339   6.831 -0.8130  1.4845 -0.7375
   31MOL   H35811218   5.483   2.268   6.666  0.5059 -2.0863 -0.0923
   31MOL   H35911219   5.224   2.239   6.669  1.2820 -0.5490 -0.5607
   31MOL   H36011220   5.227   2.289   6.830 -0.8025 -1.9703 -0.9164
   31MOL   H36111221   5.276   2.409   6.725 -0.8710 -0.5418 -2.7302
   31MOL   H36211222   5.560   1.973   7.058  0.6035 -0.5091  0.4253
   32MOL     C111223   7.167   6.164   6.312 -0.1394  0.4528 -0.2907
   32MOL     C211224   7.145   6.287   6.232 -0.6335 -0.2809 -0.1940
   32MOL     C311225   6.998   6.320   6.222  0.0297 -0.1237  0.0079
   32MOL     C411226   6.922   6.233   6.116 -0.0049  0.3391  0.0752
   32MOL     C511227   6.771   6.257   6.135  0.4941  0.2386  0.3097
   32MOL     C611228   6.698   6.149   6.039  0.4304 -0.4850  0.1737
   32MOL     H711229   7.122   6.170   6.411  1.1545 -1.1099  0.4031
   32MOL     H811230   7.123   6.076   6.264  1.1718 -1.1254  1.3376
   32MOL     H911231   7.171   6.376   6.290 -1.5945  0.2054 -0.4974
   32MOL    H1011232   6.989   6.424   6.189  0.9006 -0.3012 -0.8094
   32MOL    H1111233   6.958   6.311   6.323  0.4651  1.5639  0.3431
   32MOL    H1211234   6.952   6.130   6.135 -0.4783  0.4842  1.6883
   32MOL    H1311235   6.965   6.252   6.018 -0.1565  1.8918  0.2870
   32MOL    H1411236   6.737   6.244   6.237  0.6699  1.6794  0.5622
   32MOL    H1511237   6.739   6.357   6.105 -1.4736 -1.1929 -2.6533
   32MOL    H1611238   6.750   6.157   5.943 -2.5895  4.2477 -1.2486
   32MOL    H1711239   6.593   6.173   6.023  0.3091  1.1218  2.9500
   32MOL    H1811240   6.700   6.048   6.080  2.6681 -0.4013  0.3480
   32MOL    H1911241   7.271   6.140   6.331 -0.4973 -0.7770  0.1486
   32MOL    C2011242   7.223   6.296   6.096 -0.7766  0.0488  0.7221
   32MOL    C2111243   7.255   6.440   6.037  0.1588 -1.2084 -0.1355
   32MOL    C2211244   7.345   6.527   6.131 -0.2420  0.6410 -0.2097
   32MOL    C2311245   7.405   6.654   6.081 -0.3353 -0.4042  0.5176
   32MOL    C2411246   7.468   6.729   6.209  0.3185  0.1888 -0.8634
   32MOL    C2511247   7.542   6.859   6.166 -0.4421  0.2060 -0.2369
   32MOL    H2611248   7.180   6.226   6.026 -0.0645 -0.3410  0.6778
   32MOL    H2711249   7.319   6.255   6.126 -0.2731 -0.2087 -1.1799
   32MOL    H2811250   7.166   6.503   6.042  0.4734 -0.6837 -1.0114
   32MOL    H2911251   7.421   6.449   6.139 -0.6571  0.4185  1.8879
   32MOL    H3011252   7.286   6.543   6.221 -2.5109 -0.4183 -1.4668
   32MOL    H3111253   7.328   6.722   6.043 -0.7815 -1.6591 -0.8365
   32MOL    H3211254   7.473   6.648   5.997 -2.6554  1.4535 -1.5837
   32MOL    H3311255   7.389   6.746   6.283  0.5770 -1.2300 -0.2356
   32MOL    H3411256   7.538   6.658   6.253  0.0723 -0.1117 -0.9536
   32MOL    H3511257   7.578   6.855   6.063  2.0875 -2.3970  0.6496
   32MOL    H3611258   7.465   6.936   6.164 -0.0344  0.6119 -2.9693
   32MOL    H3711259   7.625   6.878   6.235  1.2492 -1.6770 -1.6609
   32MOL    C3811260   7.301   6.441   5.891 -0.3081 -0.3262 -0.4233
   32MOL    C3911261   7.208   6.380   5.785  0.1517  0.0824  0.0595
   32MOL    C4011262   7.090   6.477   5.740  0.8294 -0.1381  0.8642
   32MOL    C4111263   7.118   6.600   5.649 -0.4998 -0.0106 -0.2548
   32MOL    C4211264   6.979   6.659   5.598  0.1434  0.4889 -0.3302
   32MOL    C4311265   6.983   6.814   5.572  0.4272  0.2849  0.7965
   32MOL    H4411266   7.400   6.397   5.886  0.5320  1.6350 -1.9375
   32MOL    H4511267   7.318   6.543   5.855  0.8791  0.6310  2.7025
   32MOL    H4611268   7.172   6.291   5.837  1.8062  0.2432  1.5003
   32MOL    H4711269   7.025   6.423   5.671 -2.2066  3.4293  0.7988
   32MOL    H4811270   7.034   6.507   5.828 -3.1892  0.0629 -1.6249
   32MOL    H4911271   7.178   6.672   5.705  1.6079  0.2752 -2.7746
   32MOL    H5011272   7.176   6.573   5.560 -1.4251 -1.3802 -0.4545
   32MOL    H5111273   6.950   6.612   5.503  1.3481 -1.2120  0.1058
   32MOL    H5211274   6.895   6.625   5.659  1.2392 -1.8838 -0.0642
   32MOL    H5311275   7.073   6.831   5.514  0.2282 -1.8778 -0.1846
   32MOL    H5411276   6.971   6.886   5.653  2.4507  0.0106  1.3585
   32MOL    H5511277   6.903   6.845   5.505  2.7439  0.8707 -1.7983
   32MOL    C5611278   7.284   6.318   5.662 -0.5049  0.1392 -0.2618
   32MOL    C5711279   7.313   6.163   5.665  0.7095  0.0353  0.1202
   32MOL    C5811280   7.181   6.075   5.660 -0.4635 -0.0104 -0.2135
   32MOL    C5911281   7.205   5.928   5.622  0.4639 -0.1272 -0.8100
   32MOL    C6011282   7.078   5.870   5.558  0.1776  0.6572  0.3078
   32MOL    C6111283   7.088   5.879   5.406  0.0510 -0.3180  0.4483
   32MOL    H6211284   7.218   6.328   5.575  0.2492 -1.6293 -1.0677
   32MOL    H6311285   7.369   6.379   5.631 -0.6614  0.9322  0.8229
   32MOL    H6411286   7.369   6.128   5.579  0.2953  1.4565 -0.7444
   32MOL    H6511287   7.123   6.078   5.753 -1.4811  0.8644 -0.8564
   32MOL    H6611288   7.121   6.122   5.582 -0.1932 -0.0202 -0.4265
   32MOL    H6711289   7.212   5.874   5.717 -0.0002 -0.3956 -0.9247
   32MOL    H6811290   7.295   5.908   5.564  1.7594  1.1799  0.6976
   32MOL    H6911291   7.074   5.762   5.573 -1.0340  0.3908 -1.7290
   32MOL    H7011292   6.986   5.913   5.598  0.2759  0.3060  0.9192
   32MOL    H7111293   7.162   5.817   5.355 -1.2080 -1.4941  0.0387
   32MOL    H7211294   6.999   5.853   5.349 -0.8494  1.3349  1.0721
   32MOL    H7311295   7.093   5.986   5.385 -1.0037 -0.0901  1.2917
   32MOL    C7411296   7.416   6.115   5.771  0.1506  0.2985 -0.2800
   32MOL    C7511297   7.571   6.142   5.733  0.3500 -0.4302 -0.3872
   32MOL    C7611298   7.644   6.241   5.832 -0.2030 -0.6458  0.2961
   32MOL    C7711299   7.646   6.193   5.978  0.1293  0.2026 -0.3054
   32MOL    C7811300   7.718   6.296   6.067 -0.0873  0.2310  0.6131
   32MOL    C7911301   7.690   6.246   6.211  0.4516 -0.3245  0.0850
   32MOL    H8011302   7.399   6.156   5.871  0.3847  1.0028 -0.5273
   32MOL    H8111303   7.396   6.008   5.782  1.7513  0.0707  0.4512
   32MOL    H8211304   7.570   6.200   5.641 -0.1640  0.5863  0.2374
   32MOL    H8311305   0.014   6.265   5.789 -0.2131 -2.6239 -0.9336
   32MOL    H8411306   7.596   6.338   5.820 -2.9412 -1.8811  0.8298
   32MOL    H8511307   7.545   6.167   6.010 -0.4168  0.8658 -1.4707
   32MOL    H8611308   7.710   6.105   5.981 -2.3894 -1.6054  1.6505
   32MOL    H8711309   7.678   6.397   6.056 -0.4936  0.2681  2.1820
   32MOL    H8811310   0.097   6.305   6.043 -0.0952  0.1669  0.5538
   32MOL    H8911311   0.027   6.306   6.276 -1.1988  0.8925  0.6201
   32MOL    H9011312   7.589   6.255   6.251  0.0312 -2.6469 -0.3578
   32MOL    H9111313   7.721   6.143   6.229  1.1391  0.2284  2.2171
   32MOL    C9211314   7.655   6.012   5.716  0.0234 -0.4144 -0.0089
   32MOL    C9311315   7.625   5.916   5.595  0.6113 -0.3914 -0.1730
   32MOL    C9411316   7.654   5.984   5.461  0.8074 -0.3408  0.1836
   32MOL    C9511317   7.600   5.906   5.337  1.0731  0.6553 -0.4662
   32MOL    C9611318   7.578   5.991   5.209 -0.0827  0.3611 -0.5144
   32MOL    C9711319   7.710   6.062   5.163  0.1441  0.3376  0.1845
   32MOL    H9811320   0.034   6.033   5.707 -0.0052  0.2739  1.1638
   32MOL    H9911321   7.666   5.950   5.804  1.8103 -0.3580 -0.1706
   32MOL   H10011322   7.517   5.900   5.591  0.5132  0.3667 -0.6809
   32MOL   H10111323   0.031   6.015   5.451  0.4788  1.3648  1.6435
   32MOL   H10211324   7.588   6.071   5.463 -1.8584 -2.3195  2.5871
   32MOL   H10311325   7.673   5.830   5.312  1.2991  0.9337 -0.6530
   32MOL   H10411326   7.510   5.853   5.368 -0.4292  3.5447  0.4087
   32MOL   H10511327   7.546   5.927   5.127  0.3364  0.2081 -0.5628
   32MOL   H10611328   7.498   6.063   5.226  0.1421  0.5005 -0.0415
   32MOL   H10711329   7.693   6.108   5.065 -0.2464 -2.4817 -1.1298
   32MOL   H10811330   0.001   6.143   5.233 -1.9542  0.7422  0.2864
   32MOL   H10911331   0.072   6.000   5.152 -0.4962 -0.4852 -0.4157
   32MOL   C11011332   7.697   5.783   5.620 -0.3275 -0.4105  0.4523
   32MOL   C11111333   7.608   5.681   5.706  0.3572  0.0125  0.6719
   32MOL   C11211334   7.708   5.582   5.774 -0.2036 -0.3915 -0.3972
   32MOL   C11311335   0.025   5.639   5.912 -0.7516  0.3736 -0.1162
   32MOL   C11411336   0.109   5.540   5.991  0.4779  0.1093 -0.1438
   32MOL   C11511337   0.034   5.440   6.081 -0.4270 -0.4210 -0.2247
   32MOL   H11611338   0.007   5.735   5.530 -0.7703  1.5798 -0.8344
   32MOL   H11711339   0.064   5.803   5.671 -0.0750 -0.0569 -0.1351
   32MOL   H11811340   7.543   5.730   5.778  2.4294  2.2170  1.0974
   32MOL   H11911341   0.069   5.553   5.717 -1.0254 -3.2473 -0.2572
   32MOL   H12011342   7.663   5.485   5.792 -0.8518  0.4928  2.9949
   32MOL   H12111343   7.662   5.657   5.971 -0.5973 -0.8609  0.5156
   32MOL   H12211344   0.080   5.732   5.901  0.8705 -0.7180 -1.5331
   32MOL   H12311345   0.171   5.607   6.051  0.6923 -0.3877  0.1942
   32MOL   H12411346   0.176   5.480   5.930  1.5678  0.9345  0.2290
   32MOL   H12511347   7.687   5.385   6.024  0.9467 -3.0587  0.4718
   32MOL   H12611348   0.090   5.384   6.156 -0.9309 -0.0846  0.4143
   32MOL   H12711349   7.692   5.484   6.154  0.1010  1.4165 -0.8140
   32MOL   C12811350   7.517   5.596   5.610 -0.7967 -0.0010 -0.2572
   32MOL   C12911351   7.406   5.501   5.664  0.2345 -0.4558  0.2928
   32MOL   C13011352   7.305   5.449   5.553 -0.0892 -0.7216  0.0688
   32MOL   C13111353   7.366   5.350   5.458  0.1129  0.5529 -0.5959
   32MOL   C13211354   7.273   5.331   5.339  0.2530  0.0658 -0.7096
   32MOL   C13311355   7.307   5.214   5.245 -0.7844 -0.2813 -0.7842
   32MOL   H13411356   7.581   5.547   5.537 -1.4619 -1.4812  0.1297
   32MOL   H13511357   7.470   5.679   5.556 -1.1385 -1.3384 -2.0629
   32MOL   H13611358   7.460   5.412   5.694  0.6670 -0.3738 -0.2424
   32MOL   H13711359   7.220   5.397   5.597 -0.7063 -0.8979 -1.3149
   32MOL   H13811360   7.256   5.525   5.494  1.5107  0.9696  0.8730
   32MOL   H13911361   7.371   5.253   5.508 -0.1112  0.8631  0.0265
   32MOL   H14011362   7.466   5.383   5.429  0.4462 -0.4532 -0.6225
   32MOL   H14111363   7.173   5.330   5.384  0.3349 -0.6776 -0.5382
   32MOL   H14211364   7.272   5.421   5.277  0.9986  0.3734 -0.2825
   32MOL   H14311365   7.335   5.127   5.305  1.6170  0.6125 -0.5249
   32MOL   H14411366   7.385   5.242   5.174  0.1497  0.2240  0.4187
   32MOL   H14511367   7.225   5.189   5.179 -1.9889 -0.0127  0.5832
   32MOL   C14611368   7.334   5.556   5.788 -0.3582 -0.6641 -0.9709
   32MOL   C14711369   7.249   5.467   5.865 -0.4171  0.6015 -0.3461
   32MOL   C14811370   7.167   5.540   5.970  0.3735 -0.3948 -0.2127
   32MOL   C14911371   7.048   5.630   5.909 -0.5872  0.0010  0.4464
   32MOL   C15011372   7.026   5.751   6.001  0.3503  0.1785  0.6628
   32MOL   C15111373   6.915   5.849   5.947 -0.3234 -0.5347 -0.0225
   32MOL   H15211374   7.398   5.609   5.859  0.1951 -2.0690 -0.3946
   32MOL   H15311375   7.278   5.644   5.756  0.7500  0.5558  0.3372
   32MOL   H15411376   7.173   5.418   5.805  0.4027 -0.6010 -0.4182
   32MOL   H15511377   7.233   5.604   6.029  0.2163 -0.1163 -0.3414
   32MOL   H15611378   7.126   5.467   6.040  1.6001 -0.2574  0.6769
   32MOL   H15711379   7.068   5.668   5.809  0.6483 -0.6748  0.4273
   32MOL   H15811380   6.955   5.573   5.910 -0.6609 -0.0093 -2.2090
   32MOL   H15911381   7.114   5.810   6.025  2.0483 -2.1799  0.4518
   32MOL   H16011382   6.989   5.719   6.099  2.6526  2.4499  2.3504
   32MOL   H16111383   6.934   5.880   5.844  0.5358 -2.0917 -0.3551
   32MOL   H16211384   6.814   5.806   5.941 -1.1075  1.3138 -0.3049
   32MOL   H16311385   6.905   5.938   6.009 -0.2768 -0.1295 -0.5961
   32MOL   C16411386   7.332   5.357   5.935  0.7612 -0.6448  0.5281
   32MOL   C16511387   7.350   5.233   5.855  0.4019 -0.2378 -0.0952
   32MOL   C16611388   7.492   5.181   5.855 -0.3311  0.5873  0.1418
   32MOL   C16711389   7.549   5.138   5.995 -0.3875 -0.0894  0.6364
   32MOL   C16811390   7.682   5.072   5.988  0.3580  0.6446  0.7610
   32MOL   C16911391   0.021   5.008   6.116 -0.1108 -0.3129 -0.2723
   32MOL   H17011392   7.431   5.398   5.957  0.9034 -0.2630 -0.7375
   32MOL   H17111393   7.281   5.328   6.026  0.9047  0.8332  1.0870
   32MOL   H17211394   7.325   5.256   5.751 -0.0457  0.6206  0.1992
   32MOL   H17311395   7.558   5.260   5.819  0.4355 -0.9281 -1.8956
   32MOL   H17411396   7.518   5.093   5.796 -0.0328 -0.2004  1.4323
   32MOL   H17511397   7.477   5.072   6.043  2.5719 -1.7357  3.0073
   32MOL   H17611398   7.570   5.226   6.055  2.0890 -0.1473 -0.0821
   32MOL   H17711399   0.029   5.137   5.940  0.4981  0.5025  0.7825
   32MOL   H17811400   7.685   4.994   5.911  2.7221  0.1346  1.3179
   32MOL   H17911401   0.053   5.087   6.184 -0.1778 -0.0147 -0.5805
   32MOL   H18011402   0.109   4.947   6.096  0.3264  0.7144 -1.5813
   32MOL   H18111403   7.667   4.956   6.167  0.5003 -1.2042 -0.1955
   32MOL   C18211404   7.251   5.113   5.894 -0.3908 -1.1305 -0.7303
   32MOL   C18311405   7.111   5.124   5.836  0.1677  0.0271  0.2014
   32MOL   C18411406   7.016   5.018   5.906  0.2591 -0.7151 -0.2922
   32MOL   C18511407   6.994   5.021   6.053 -0.8233 -0.3778  0.5352
   32MOL   C18611408   6.922   4.889   6.102  0.1933  0.2061  0.5513
   32MOL   C18711409   6.871   4.911   6.248 -1.0169 -0.0008 -0.3359
   32MOL   H18811410   7.286   5.017   5.857 -0.6877 -1.8020  0.7098
   32MOL   H18911411   7.244   5.110   6.003  1.3949  0.4535 -0.5283
   32MOL   H19011412   7.070   5.222   5.861 -2.7858 -0.7782 -1.2505
   32MOL   H19111413   6.920   5.029   5.857  0.3964 -0.1585 -0.4411
   32MOL   H19211414   7.057   4.920   5.880  2.2735  0.6120 -2.3149
   32MOL   H19311415   6.926   5.104   6.070 -0.8429  0.0861 -1.7109
   32MOL   H19411416   7.081   5.045   6.114  0.0459 -0.2131 -0.7453
   32MOL   H19511417   6.992   4.806   6.096 -0.6166 -0.4693  0.2640
   32MOL   H19611418   6.830   4.873   6.045  1.7541  0.3501 -2.0726
   32MOL   H19711419   6.948   4.907   6.325 -0.8133  3.0467 -0.3106
   32MOL   H19811420   6.802   4.833   6.281  0.9793 -1.2430  1.0041
   32MOL   H19911421   6.828   5.011   6.255 -0.8376  0.0918 -0.5850
   32MOL   C20011422   7.094   5.100   5.683  1.0489 -0.3388  0.7620
   32MOL   C20111423   6.963   5.142   5.612 -0.1269  0.7172  0.2307
   32MOL   C20211424   6.947   5.297   5.623  0.1081 -0.2381  0.0332
   32MOL   C20311425   6.813   5.349   5.608 -0.2302  0.5489 -0.2728
   32MOL   C20411426   6.827   5.501   5.625 -0.1816  0.1824 -0.1104
   32MOL   C20511427   6.694   5.575   5.631 -0.6261  0.0109  0.4975
   32MOL   H20611428   7.125   4.997   5.663  1.8677  0.3583 -1.6599
   32MOL   H20711429   7.165   5.163   5.630 -0.4867 -2.1055 -3.6082
   32MOL   H20811430   6.886   5.089   5.668 -0.9826  0.9170 -0.7421
   32MOL   H20911431   7.013   5.345   5.551  2.3230  3.5392  4.3250
   32MOL   H21011432   6.981   5.327   5.722  1.0292 -0.4357 -0.2182
   32MOL   H21111433   6.746   5.311   5.685 -1.6261  1.7281 -0.8640
   32MOL   H21211434   6.762   5.327   5.514 -0.0946  1.5591 -0.5902
   32MOL   H21311435   6.895   5.539   5.549 -1.5539 -1.0308 -1.9967
   32MOL   H21411436   6.879   5.518   5.720 -0.7085 -1.4912  0.4998
   32MOL   H21511437   6.640   5.557   5.538  0.8772 -0.8425 -0.2156
   32MOL   H21611438   6.633   5.546   5.717  0.8808 -1.1169  1.1899
   32MOL   H21711439   6.714   5.680   5.654  3.9050 -0.7047  0.1995
   32MOL   C21811440   6.953   5.100   5.460 -0.2972 -0.1606 -0.0691
   32MOL   C21911441   6.931   4.950   5.442  0.0358  0.6008  0.0312
   32MOL   C22011442   6.960   4.922   5.290 -0.2105  0.1898 -0.3641
   32MOL   C22111443   7.096   4.873   5.257 -0.4002  0.1895 -0.0332
   32MOL   C22211444   7.115   4.834   5.103  0.1290 -0.4856 -0.1677
   32MOL   C22311445   7.263   4.819   5.071  0.0660  0.1467 -0.1832
   32MOL   H22411446   6.869   5.157   5.420 -0.7833  1.2837  2.8568
   32MOL   H22511447   7.045   5.131   5.411 -0.0339 -0.2494  0.3646
   32MOL   H22611448   7.000   4.893   5.504 -0.4585  0.3994  0.3939
   32MOL   H22711449   6.936   5.007   5.226 -1.7835  0.2436  0.2626
   32MOL   H22811450   6.890   4.845   5.255  0.9413 -0.6202 -0.9400
   32MOL   H22911451   7.137   4.804   5.330 -0.4530  0.5087  0.2994
   32MOL   H23011452   7.168   4.953   5.273 -0.2314  0.4958 -2.1926
   32MOL   H23111453   7.064   4.740   5.085  1.0403 -0.8054 -1.1280
   32MOL   H23211454   7.076   4.910   5.035  0.8238 -0.9291 -1.0780
   32MOL   H23311455   7.273   4.798   4.964 -0.8292 -1.3059  0.0188
   32MOL   H23411456   7.310   4.733   5.118 -0.0336 -0.2019 -0.7182
   32MOL   H23511457   7.296   4.921   5.091 -1.7530  0.5357  0.8513
   32MOL   C23611458   6.782   4.914   5.477 -0.7252 -0.0768  0.5617
   32MOL   C23711459   6.767   4.762   5.499 -0.1480  1.0112 -0.3393
   32MOL   C23811460   6.640   4.698   5.421  0.3332 -0.0585  0.1710
   32MOL   C23911461   6.497   4.762   5.434 -0.4228  0.0291 -0.7680
   32MOL   C24011462   6.400   4.712   5.330  0.4449  0.1434 -0.6842
   32MOL   C24111463   6.262   4.771   5.369 -0.1162 -0.8124  0.2195
   32MOL   H24211464   6.744   4.974   5.560  1.2490 -1.1663  2.2950
   32MOL   H24311465   6.719   4.932   5.390  2.6528 -0.4070 -2.0120
   32MOL   H24411466   6.855   4.712   5.459  0.7250  1.4278  1.0309
   32MOL   H24511467   6.662   4.708   5.314  2.5446 -0.8450  0.5267
   32MOL   H24611468   6.623   4.592   5.439 -1.6674  0.0656 -0.8097
   32MOL   H24711469   6.500   4.871   5.423 -0.5234 -0.0278 -1.4239
   32MOL   H24811470   6.454   4.734   5.529  1.1498 -0.7905 -0.2816
   32MOL   H24911471   6.432   4.757   5.236  2.4673  3.6046  1.5519
   32MOL   H25011472   6.393   4.603   5.336 -1.1490  0.3362  1.5035
   32MOL   H25111473   6.233   4.751   5.472 -0.8824  0.8926  0.3583
   32MOL   H25211474   6.257   4.880   5.367 -3.5056 -0.9333 -0.8835
   32MOL   H25311475   6.186   4.738   5.298  0.6755  1.4379 -1.7311
   32MOL   C25411476   6.767   4.726   5.650 -0.4865  0.3964 -0.3718
   32MOL   C25511477   6.823   4.587   5.697 -0.3874  0.3351  0.6346
   32MOL   C25611478   6.801   4.573   5.848 -0.0848 -0.0807  0.2728
   32MOL   C25711479   6.655   4.561   5.886  0.3134 -0.3377 -0.2772
   32MOL   C25811480   6.627   4.530   6.038  0.1092  0.3959 -0.5257
   32MOL   C25911481   6.598   4.657   6.120 -0.0799 -0.2240 -0.3989
   32MOL   H26011482   6.665   4.735   5.686  0.5648  1.0103  2.5597
   32MOL   H26111483   6.813   4.812   5.700  0.2651 -0.0513 -0.2787
   32MOL   H26211484   6.749   4.527   5.644 -1.0737 -0.1723  2.1201
   32MOL   H26311485   6.846   4.482   5.886  1.4314  0.1729 -0.8321
   32MOL   H26411486   6.848   4.659   5.895  0.3572 -0.0242 -0.2634
   32MOL   H26511487   6.599   4.651   5.859  3.3584  1.8727  0.5002
   32MOL   H26611488   6.607   4.483   5.827  0.8514 -0.8873  0.0067
   32MOL   H26711489   6.702   4.470   6.090 -1.8461 -1.5984  0.0645
   32MOL   H26811490   6.535   4.472   6.039  0.0065  0.5594 -0.3653
   32MOL   H26911491   6.572   4.625   6.221  1.1577  1.0503  0.3386
   32MOL   H27011492   6.521   4.717   6.071 -1.2687 -1.3148  0.1035
   32MOL   H27111493   6.678   4.731   6.126 -0.8943  0.6372 -0.0397
   32MOL   C27211494   6.957   4.532   5.657  0.9104  0.0262 -0.4532
   32MOL   C27311495   6.979   4.431   5.548  0.2510  0.4368 -0.0411
   32MOL   C27411496   6.915   4.294   5.570  0.1370  0.4980  0.1799
   32MOL   C27511497   6.875   4.201   5.453  0.4964  0.5499  0.4745
   32MOL   C27611498   6.730   4.233   5.402  0.4959 -0.1799 -0.0141
   32MOL   C27711499   6.611   4.196   5.490  0.5533 -0.3976 -0.1782
   32MOL   H27811500   7.021   4.619   5.645  0.9786 -0.1419 -1.3590
   32MOL   H27911501   6.999   4.485   5.746  0.2874 -0.4883 -0.4302
   32MOL   H28011502   6.917   4.474   5.470 -1.9463 -0.2005  1.3258
   32MOL   H28111503   6.831   4.300   5.639  0.9158 -0.2863  1.2160
   32MOL   H28211504   6.990   4.235   5.624 -1.3277 -1.5958 -0.0057
   32MOL   H28311505   6.887   4.095   5.474  0.7519  0.4754 -0.0556
   32MOL   H28411506   6.932   4.214   5.361  3.0172 -2.1251  1.5865
   32MOL   H28511507   6.725   4.335   5.364  0.6248 -0.5937 -1.1649
   32MOL   H28611508   6.708   4.178   5.310  4.4045 -0.4966 -0.8462
   32MOL   H28711509   6.600   4.090   5.510 -0.4286 -0.6015 -1.6803
   32MOL   H28811510   6.619   4.249   5.585  0.7474 -0.0904 -0.3613
   32MOL   H28911511   6.517   4.234   5.449  1.2913  0.7210 -0.8819
   32MOL   C29011512   7.130   4.414   5.498  0.2394  0.6325  0.0914
   32MOL   C29111513   7.167   4.329   5.376 -0.3156 -0.1422  0.7236
   32MOL   C29211514   7.136   4.399   5.239  0.6804  0.0641  0.8944
   32MOL   C29311515   7.148   4.309   5.116 -0.0128 -0.4380 -0.0380
   32MOL   C29411516   7.154   4.393   4.987 -0.7905  0.0833 -0.3926
   32MOL   C29511517   7.284   4.465   4.953 -1.0860 -0.0324 -1.1522
   32MOL   H29611518   7.169   4.380   5.594  0.1664 -1.4856 -0.6030
   32MOL   H29711519   7.159   4.517   5.479 -2.0734  1.3007  0.0434
   32MOL   H29811520   7.126   4.228   5.384  0.1970 -0.2288  2.4112
   32MOL   H29911521   7.203   4.485   5.233 -0.7887  1.2056  0.4951
   32MOL   H30011522   7.036   4.443   5.238 -0.4731 -2.3170  3.8034
   32MOL   H30111523   7.230   4.237   5.116  0.7102  0.3831 -0.1865
   32MOL   H30211524   7.052   4.258   5.113 -0.3064  0.1451 -0.4875
   32MOL   H30311525   7.068   4.459   4.984  0.9131  2.3187 -1.8606
   32MOL   H30411526   7.138   4.322   4.907  1.0171 -1.1320  0.2858
   32MOL   H30511527   7.310   4.534   5.033  1.5699 -0.5186 -1.5745
   32MOL   H30611528   7.285   4.511   4.854  1.8372  1.5586 -0.4137
   32MOL   H30711529   7.365   4.393   4.953 -0.5448  0.5752 -1.1421
   32MOL   C30811530   7.318   4.303   5.391 -0.7507 -0.0043 -0.5586
   32MOL   C30911531   7.353   4.197   5.502 -0.4972  0.6716  0.1554
   32MOL   C31011532   7.435   4.252   5.622  0.9419  0.0317 -0.1757
   32MOL   C31111533   7.576   4.276   5.588  0.6991 -0.0274 -0.9634
   32MOL   C31211534   7.654   4.365   5.690 -0.2943  0.7834  0.1632
   32MOL   C31311535   7.672   4.290   5.833  0.2227 -0.3343  0.3008
   32MOL   H31411536   7.356   4.273   5.293  1.3533 -0.6544  0.4369
   32MOL   H31511537   7.370   4.396   5.414  3.1874 -2.5720  1.2929
   32MOL   H31611538   7.258   4.163   5.542  0.8225  0.3143  3.0486
   32MOL   H31711539   7.428   4.172   5.695  0.2974 -1.6409 -2.0335
   32MOL   H31811540   7.397   4.345   5.665 -0.5065 -0.6117 -0.0545
   32MOL   H31911541   7.575   4.325   5.491 -1.2577  2.6019  0.3172
   32MOL   H32011542   7.620   4.176   5.578  0.3063 -0.0342 -2.8490
   32MOL   H32111543   0.024   4.379   5.642  0.0849  0.6355  0.8746
   32MOL   H32211544   7.611   4.464   5.696  0.7973  1.2000  1.4012
   32MOL   H32311545   0.030   4.337   5.882  0.8335 -0.1134 -0.9421
   32MOL   H32411546   7.700   4.187   5.811 -0.4444 -0.3374 -0.5958
   32MOL   H32511547   7.584   4.286   5.897 -1.1892 -0.1081 -1.5796
   32MOL   C32611548   7.408   4.067   5.440  0.2216  0.3666 -0.0102
   32MOL   C32711549   7.301   3.974   5.377  0.2629  0.1179  0.2378
   32MOL   C32811550   7.381   3.890   5.279 -0.4873  0.1127 -0.6041
   32MOL   C32911551   7.493   3.801   5.331  0.0889  0.4530 -0.7857
   32MOL   C33011552   7.550   3.714   5.223  0.2833 -0.4173  0.3012
   32MOL   C33111553   7.665   3.626   5.265 -0.3439 -0.3795 -1.0039
   32MOL   H33211554   7.458   4.008   5.517  0.6233 -1.0561 -1.3388
   32MOL   H33311555   7.477   4.096   5.361  0.4522  1.8162  0.7053
   32MOL   H33411556   7.236   4.034   5.314  1.1485 -0.5632 -1.3571
   32MOL   H33511557   7.314   3.836   5.213 -2.6987  0.6902  1.1174
   32MOL   H33611558   7.419   3.966   5.211 -0.2179 -0.2145 -0.8183
   32MOL   H33711559   7.448   3.734   5.405  0.3410  2.6934  1.4481
   32MOL   H33811560   7.562   3.863   5.388  1.4938  0.8595 -2.8752
   32MOL   H33911561   7.464   3.654   5.195 -0.4438  0.1388  1.3238
   32MOL   H34011562   7.579   3.772   5.135 -3.1608  0.9091 -0.0432
   32MOL   H34111563   7.680   3.547   5.191 -0.9625 -0.5149 -0.9840
   32MOL   H34211564   7.647   3.576   5.360  1.0432 -1.0926 -1.1037
   32MOL   H34311565   0.020   3.696   5.277 -1.2847  0.6341 -0.3753
   32MOL   C34411566   7.215   3.900   5.487 -0.0500 -0.0771  0.3028
   32MOL   C34511567   7.085   3.835   5.438 -0.8236  0.2482  0.5027
   32MOL   C34611568   7.060   3.685   5.481  0.0108 -0.4834 -0.0049
   32MOL   C34711569   7.163   3.575   5.437  0.4030 -0.0627  0.5266
   32MOL   C34811570   7.127   3.429   5.458 -0.0825  0.3296  0.3774
   32MOL   C34911571   7.082   3.395   5.606  0.1928 -0.2150  0.1445
   32MOL   H35011572   7.283   3.828   5.532  0.9873  0.3549 -0.5325
   32MOL   H35111573   7.178   3.959   5.570  0.5905 -1.2554  1.4519
   32MOL   H35211574   7.081   3.824   5.330  1.9962  1.2137  0.2547
   32MOL   H35311575   7.052   3.700   5.589  2.3997 -0.6711  0.2235
   32MOL   H35411576   6.963   3.665   5.435  0.2779  0.7541 -1.1438
   32MOL   H35511577   7.197   3.591   5.334  0.5427  2.4583  0.9246
   32MOL   H35611578   7.250   3.598   5.499  0.2737  0.2482  0.5932
   32MOL   H35711579   7.050   3.405   5.384 -0.6042  2.2618  0.2512
   32MOL   H35811580   7.220   3.377   5.436 -0.1735 -0.2664  1.3613
   32MOL   H35911581   7.078   3.287   5.614  3.1369 -0.2682  1.6945
   32MOL   H36011582   7.163   3.428   5.671 -1.3525  3.2997  0.4077
   32MOL   H36111583   6.990   3.445   5.634  1.0875  0.7300  1.4462
   32MOL   H36211584   7.000   3.900   5.457  0.1549  2.1706 -1.5600
   33MOL     C111585   4.266   1.632   2.196 -0.0458  0.0779  1.1279
   33MOL     C211586   4.245   1.687   2.340 -0.4197 -0.7351  0.0979
   33MOL     C311587   4.237   1.577   2.448  0.1114  0.0590  0.1383
   33MOL     C411588   4.367   1.489   2.468 -0.5241  0.2691  0.4761
   33MOL     C511589   4.365   1.352   2.394 -0.1674 -0.4392  0.4842
   33MOL     C611590   4.279   1.249   2.463 -0.2249 -0.5442 -0.2619
   33MOL     H711591   4.322   1.538   2.205 -0.4455 -0.0671  2.1249
   33MOL     H811592   4.175   1.604   2.144 -0.8348 -0.0855  2.5679
   33MOL     H911593   4.328   1.750   2.371 -2.4508  3.1776 -2.0148
   33MOL    H1011594   4.153   1.511   2.426 -0.0014 -0.1880  1.3137
   33MOL    H1111595   4.209   1.624   2.542  1.7450 -1.1171  1.2275
   33MOL    H1211596   4.374   1.472   2.576  1.2140  0.8367  0.4755
   33MOL    H1311597   4.452   1.549   2.435 -1.3417  0.8935 -0.4954
   33MOL    H1411598   4.326   1.365   2.293 -2.7147 -0.4204  1.4360
   33MOL    H1511599   4.464   1.310   2.378 -1.5522 -2.5898 -3.0946
   33MOL    H1611600   4.172   1.267   2.450  0.0219  0.3720 -1.1166
   33MOL    H1711601   4.295   1.244   2.570 -0.1149  0.5676 -0.2197
   33MOL    H1811602   4.299   1.150   2.423 -1.1703 -0.9340  0.2037
   33MOL    H1911603   4.330   1.698   2.138 -0.4216  0.7148  1.4464
   33MOL    C2011604   4.125   1.778   2.342  0.4024  0.0367  0.5333
   33MOL    C2111605   4.093   1.879   2.457  0.0678 -0.4211 -0.0023
   33MOL    C2211606   4.202   1.987   2.467  0.3477 -0.0114 -0.3140
   33MOL    C2311607   4.220   2.071   2.345 -0.6989 -0.2097  0.2753
   33MOL    C2411608   4.343   2.161   2.357 -0.4719 -0.4408 -0.3715
   33MOL    C2511609   4.353   2.253   2.237  0.2648  0.0687 -0.1398
   33MOL    H2611610   4.042   1.712   2.318 -0.7399  0.7678  2.3750
   33MOL    H2711611   4.143   1.840   2.255 -1.6239  0.7891  0.6327
   33MOL    H2811612   4.101   1.821   2.549 -2.5424 -0.4330  0.2548
   33MOL    H2911613   4.299   1.938   2.476 -1.0837 -3.0137 -0.6909
   33MOL    H3011614   4.190   2.055   2.551 -2.1068  0.3016 -0.8866
   33MOL    H3111615   4.129   2.127   2.324 -0.1944  0.2131 -0.8493
   33MOL    H3211616   4.226   2.014   2.252  0.1605  1.9840 -1.0568
   33MOL    H3311617   4.323   2.232   2.437  0.7780  1.3912 -1.6500
   33MOL    H3411618   4.441   2.121   2.382  0.1377 -0.1376 -2.1873
   33MOL    H3511619   4.418   2.335   2.268  0.4976 -0.6824  1.4552
   33MOL    H3611620   4.397   2.208   2.149 -0.0930  1.1745 -0.8961
   33MOL    H3711621   4.260   2.308   2.226  1.1666  1.2947 -1.7522
   33MOL    C3811622   3.951   1.943   2.432  0.3236  0.3095  0.3851
   33MOL    C3911623   3.836   1.850   2.473  0.0526  0.9634  0.1407
   33MOL    C4011624   3.825   1.832   2.624 -0.3301  0.1014 -0.1130
   33MOL    C4111625   3.775   1.698   2.666  0.4589 -0.1833  0.5545
   33MOL    C4211626   3.720   1.711   2.805  0.1179  0.1367  0.0840
   33MOL    C4311627   3.831   1.714   2.912 -0.0018 -0.2830  0.4875
   33MOL    H4411628   3.945   1.983   2.331 -0.8400  0.7494  0.6114
   33MOL    H4511629   3.919   2.025   2.497  2.4480 -0.4381  2.4369
   33MOL    H4611630   3.855   1.754   2.423 -1.8890  0.2249  0.7802
   33MOL    H4711631   3.929   1.840   2.654 -0.5417 -0.5874  0.8134
   33MOL    H4811632   3.782   1.924   2.664 -1.6056 -0.5298  0.0115
   33MOL    H4911633   3.698   1.665   2.595  1.3734  0.9339 -1.0027
   33MOL    H5011634   3.858   1.627   2.664  0.9234  0.3674 -0.6442
   33MOL    H5111635   3.648   1.792   2.812  2.0769  2.0195 -0.9385
   33MOL    H5211636   3.659   1.625   2.832  1.4762 -0.2322  2.1355
   33MOL    H5311637   3.779   1.721   3.008  1.1763 -2.4346  1.3117
   33MOL    H5411638   3.894   1.802   2.895  0.7751 -0.7869  0.7654
   33MOL    H5511639   3.898   1.629   2.917  0.3998  0.0792  1.5563
   33MOL    C5611640   3.706   1.889   2.404  0.7477  0.2943 -0.8475
   33MOL    C5711641   3.691   1.894   2.250 -0.6013 -0.0462 -0.2612
   33MOL    C5811642   3.540   1.900   2.225 -1.0899  0.1662  0.0707
   33MOL    C5911643   3.474   2.028   2.266 -0.0832 -0.4352  0.2448
   33MOL    C6011644   3.351   2.060   2.189 -0.4804  0.3682  0.0214
   33MOL    C6111645   3.295   2.199   2.206 -0.2891  0.0312  0.1301
   33MOL    H6211646   3.633   1.812   2.428  0.4876  0.7413 -0.1817
   33MOL    H6311647   3.673   1.984   2.447 -1.9097 -0.6986 -0.5737
   33MOL    H6411648   3.728   1.992   2.218 -0.0608  0.0740  0.7247
   33MOL    H6511649   3.531   1.905   2.117  4.3386  0.1013 -0.5075
   33MOL    H6611650   3.485   1.817   2.270  2.2795 -2.0232  0.3035
   33MOL    H6711651   3.548   2.106   2.254 -0.5173 -0.3436 -2.2946
   33MOL    H6811652   3.443   2.034   2.370  1.7841 -0.5851  0.8232
   33MOL    H6911653   3.374   2.036   2.085  0.5517  1.1112  0.0744
   33MOL    H7011654   3.269   1.994   2.218 -0.7682  1.4850  1.8517
   33MOL    H7111655   3.290   2.229   2.310 -3.1539 -1.8738  0.5660
   33MOL    H7211656   3.370   2.261   2.155 -1.1449 -0.9400 -2.3675
   33MOL    H7311657   3.200   2.206   2.154  0.4972  1.2390 -1.1854
   33MOL    C7411658   3.748   1.776   2.171  0.3830  1.0843  0.3024
   33MOL    C7511659   3.751   1.779   2.016 -0.4470  1.2482 -0.0471
   33MOL    C7611660   3.884   1.833   1.966  0.6545  0.5476  0.1970
   33MOL    C7711661   3.903   1.989   1.983 -0.4265  0.1653 -0.6786
   33MOL    C7811662   4.048   2.033   1.936 -0.3169  0.7492 -0.8223
   33MOL    C7911663   4.076   2.181   1.979 -0.4431 -0.4231 -0.9263
   33MOL    H8011664   3.851   1.762   2.206  0.8762  3.4194 -0.0916
   33MOL    H8111665   3.701   1.684   2.205  3.4176  0.1277  2.1282
   33MOL    H8211666   3.683   1.856   1.980  1.7895  2.1449 -2.5579
   33MOL    H8311667   3.971   1.783   2.010  0.0051  0.2537  1.1663
   33MOL    H8411668   3.889   1.803   1.862 -0.6905 -2.4885  0.9434
   33MOL    H8511669   3.826   2.038   1.924  0.8486  1.1201 -1.5700
   33MOL    H8611670   3.893   2.011   2.089  2.3317 -0.5763 -0.2194
   33MOL    H8711671   4.047   2.030   1.827 -1.2876  0.0242 -0.8017
   33MOL    H8811672   4.118   1.956   1.967 -0.7819  0.0595 -1.4437
   33MOL    H8911673   4.158   2.224   1.922  1.1572 -2.1262  0.0100
   33MOL    H9011674   3.990   2.244   1.961 -0.4369 -0.1728 -0.0909
   33MOL    H9111675   4.115   2.199   2.079  1.3174  0.0053 -1.6690
   33MOL    C9211676   3.715   1.635   1.964  0.0696  0.7522  0.6090
   33MOL    C9311677   3.663   1.618   1.815 -0.2617 -0.2189  0.1211
   33MOL    C9411678   3.637   1.470   1.797  0.5910  1.7838  0.2536
   33MOL    C9511679   3.754   1.376   1.796 -0.0283  0.2214  0.0127
   33MOL    C9611680   3.724   1.231   1.781 -0.2605 -0.0485 -0.4431
   33MOL    C9711681   3.838   1.130   1.830 -0.0018  0.3778 -0.3682
   33MOL    H9811682   3.808   1.580   1.978 -0.8423 -0.7251  0.9497
   33MOL    H9911683   3.633   1.591   2.020 -0.0119 -1.8265 -1.4516
   33MOL   H10011684   3.747   1.646   1.752  0.2889  1.4963  1.5613
   33MOL   H10111685   3.583   1.455   1.703 -0.2246 -4.3441  1.4980
   33MOL   H10211686   3.562   1.434   1.867 -1.1670  0.7943 -2.0611
   33MOL   H10311687   3.822   1.428   1.729  1.3476 -0.1615  1.0813
   33MOL   H10411688   3.801   1.372   1.894  0.0797  0.6335 -0.0251
   33MOL   H10511689   3.627   1.202   1.820 -0.4530 -0.0412 -0.9185
   33MOL   H10611690   3.713   1.210   1.675 -1.1932 -1.5274 -0.0590
   33MOL   H10711691   3.825   1.022   1.833  3.7638 -0.0821  1.8483
   33MOL   H10811692   3.931   1.148   1.776  0.4024 -1.5488 -0.3404
   33MOL   H10911693   3.870   1.146   1.933 -0.7219  0.7503 -0.1978
   33MOL   C11011694   3.539   1.704   1.786  0.2139  0.4974 -0.3557
   33MOL   C11111695   3.580   1.823   1.701 -0.5718 -0.8033  0.1733
   33MOL   C11211696   3.462   1.922   1.704 -0.3638  0.2127 -0.4346
   33MOL   C11311697   3.471   2.027   1.811  0.5629 -0.1897  0.3320
   33MOL   C11411698   3.563   2.150   1.764 -0.3399  0.0800 -0.0682
   33MOL   C11511699   3.598   2.241   1.887  0.5960 -0.0716  0.3926
   33MOL   H11611700   3.457   1.649   1.742  0.9480 -0.5264 -0.4615
   33MOL   H11711701   3.495   1.737   1.880  1.1124 -3.8865  1.7439
   33MOL   H11811702   3.672   1.865   1.742  0.5167  0.0236 -3.0066
   33MOL   H11911703   3.372   1.863   1.726 -0.0644 -1.3361 -3.2549
   33MOL   H12011704   3.439   1.966   1.607 -1.7834  1.1933  0.3064
   33MOL   H12111705   3.519   1.971   1.892  1.6209  1.9017  1.2018
   33MOL   H12211706   3.370   2.062   1.831  0.0522 -1.0447 -0.7267
   33MOL   H12311707   3.508   2.220   1.700 -0.7589  0.1523  0.3727
   33MOL   H12411708   3.650   2.116   1.708  1.5677  0.1242  2.7555
   33MOL   H12511709   3.644   2.189   1.970 -0.6375  0.2891  1.3140
   33MOL   H12611710   3.673   2.312   1.853  1.0996  1.1057  3.8140
   33MOL   H12711711   3.521   2.306   1.930  0.0957 -0.3885 -0.0133
   33MOL   C12811712   3.619   1.778   1.555 -0.6225  0.0526 -0.2131
   33MOL   C12911713   3.692   1.880   1.475 -0.8150 -0.7656  0.4509
   33MOL   C13011714   3.660   1.846   1.328  0.4441 -0.3102  0.1335
   33MOL   C13111715   3.691   1.703   1.269 -0.1435  0.2072 -0.5945
   33MOL   C13211716   3.693   1.699   1.122 -0.4085 -0.2282 -0.0695
   33MOL   C13311717   3.706   1.566   1.054  0.4558 -0.1004  0.2103
   33MOL   H13411718   3.523   1.752   1.510 -0.0071 -1.2325 -0.8048
   33MOL   H13511719   3.680   1.688   1.559 -0.0756  0.4223 -0.3072
   33MOL   H13611720   3.647   1.977   1.498  0.7125  0.0913 -0.1476
   33MOL   H13711721   3.557   1.865   1.299  1.2774  0.6902 -2.3772
   33MOL   H13811722   3.714   1.910   1.258 -1.5543 -0.1833 -1.3290
   33MOL   H13911723   3.610   1.640   1.306 -0.9169  0.1691 -2.3231
   33MOL   H14011724   3.778   1.655   1.313 -0.1668 -0.5043 -1.3171
   33MOL   H14111725   3.607   1.747   1.075 -1.0556  0.4699  1.8171
   33MOL   H14211726   3.784   1.749   1.087 -0.5228 -0.9946 -1.5208
   33MOL   H14311727   3.692   1.558   0.947 -0.6022  0.6494  0.2908
   33MOL   H14411728   3.630   1.496   1.089  0.9778 -0.8083 -0.0716
   33MOL   H14511729   3.806   1.527   1.074  0.1778 -1.0878 -0.2939
   33MOL   C14611730   3.847   1.864   1.505  0.2831 -0.1442 -0.1577
   33MOL   C14711731   3.936   1.967   1.434 -0.1183 -0.0093 -0.3312
   33MOL   C14811732   4.081   1.914   1.426 -0.1673 -0.2682 -0.0747
   33MOL   C14911733   4.100   1.820   1.304  0.8672  0.1181 -0.0330
   33MOL   C15011734   4.152   1.906   1.185  0.0953  0.7949 -0.0501
   33MOL   C15111735   4.184   1.831   1.062  0.1694  0.1916 -0.0843
   33MOL   H15211736   3.863   1.848   1.611 -0.3718 -0.5144 -0.1143
   33MOL   H15311737   3.868   1.767   1.459 -1.2472 -0.5316 -0.0651
   33MOL   H15411738   3.900   1.970   1.331  1.4463 -1.4396 -0.9482
   33MOL   H15511739   4.113   1.860   1.515 -0.5388  0.2663  0.3884
   33MOL   H15611740   4.154   1.994   1.422 -0.4131  0.0876  1.7828
   33MOL   H15711741   4.176   1.745   1.327  1.9638  1.0289 -0.6156
   33MOL   H15811742   4.011   1.760   1.283 -0.4335  1.8812  0.3694
   33MOL   H15911743   4.238   1.961   1.223  0.7740  0.4070 -1.0007
   33MOL   H16011744   4.074   1.980   1.166 -1.3617 -0.3427  1.3134
   33MOL   H16111745   4.099   1.770   1.032  1.0768 -0.2431 -1.8131
   33MOL   H16211746   4.216   1.894   0.979 -0.5473  1.1839  0.3829
   33MOL   H16311747   4.266   1.760   1.076  1.4959  1.3036 -2.1060
   33MOL   C16411748   3.921   2.101   1.493 -0.4183  0.0144 -0.1334
   33MOL   C16511749   3.955   2.211   1.394 -0.2975  0.4140  0.0368
   33MOL   C16611750   3.839   2.232   1.287  0.5364 -0.1205 -0.2806
   33MOL   C16711751   3.880   2.307   1.164  0.4923  0.6561  0.8975
   33MOL   C16811752   3.759   2.328   1.072 -0.8915  0.0235  0.2369
   33MOL   C16911753   3.785   2.425   0.958 -0.3861 -0.2785  0.0286
   33MOL   H17011754   3.820   2.123   1.528 -2.0445 -3.5046 -2.2879
   33MOL   H17111755   3.982   2.098   1.584  0.5133  0.2514 -0.7469
   33MOL   H17211756   4.041   2.181   1.333 -0.4884  1.0073 -0.5341
   33MOL   H17311757   3.752   2.272   1.341 -0.2862 -2.1644 -0.0497
   33MOL   H17411758   3.798   2.135   1.260  1.9454 -1.0669  0.9454
   33MOL   H17511759   3.943   2.238   1.108 -0.7697 -0.6321  1.0519
   33MOL   H17611760   3.925   2.404   1.185  1.6804  0.4622 -0.6076
   33MOL   H17711761   3.673   2.361   1.130 -0.3575  0.7137  0.6377
   33MOL   H17811762   3.729   2.231   1.032 -2.3934  1.0972 -1.3013
   33MOL   H17911763   3.873   2.401   0.899 -1.8798 -3.3904 -1.0623
   33MOL   H18011764   3.783   2.525   1.001 -1.4421 -0.3428  0.1327
   33MOL   H18111765   3.703   2.415   0.887  0.0953 -1.4406 -0.3875
   33MOL   C18211766   3.987   2.350   1.461 -0.0711 -0.1229  0.4590
   33MOL   C18311767   4.111   2.361   1.544  0.1439 -0.0893 -0.0556
   33MOL   C18411768   4.136   2.497   1.611  0.7166 -0.2136 -0.5768
   33MOL   C18511769   4.152   2.620   1.518  0.1071 -0.3169 -0.3104
   33MOL   C18611770   4.210   2.753   1.578  0.4145 -0.3438  0.7575
   33MOL   C18711771   4.106   2.829   1.663  0.6801  0.2051  0.2884
   33MOL   H18811772   3.992   2.429   1.386 -1.3950 -1.1992 -0.7914
   33MOL   H18911773   3.909   2.384   1.529 -1.9929 -3.9816  0.3057
   33MOL   H19011774   4.108   2.287   1.624  0.9779 -2.7272 -2.3734
   33MOL   H19111775   4.052   2.523   1.676  0.4478 -0.3537 -0.8682
   33MOL   H19211776   4.220   2.485   1.679  0.3638  0.1794 -0.0638
   33MOL   H19311777   4.065   2.647   1.457 -1.0318  0.0009  1.4236
   33MOL   H19411778   4.225   2.590   1.443  1.1232 -0.7546  0.8274
   33MOL   H19511779   4.233   2.821   1.495 -0.8808  1.7418  2.0646
   33MOL   H19611780   4.303   2.736   1.632  1.0298  1.3723  0.2683
   33MOL   H19711781   4.071   2.773   1.749 -0.0664  0.8425  0.4031
   33MOL   H19811782   4.016   2.840   1.603  1.0338 -0.3343 -0.3566
   33MOL   H19911783   4.155   2.922   1.691  1.3292  0.4945 -1.7324
   33MOL   C20011784   4.236   2.311   1.469  0.1910 -0.1126 -0.1404
   33MOL   C20111785   4.385   2.339   1.528  0.4509 -0.2203  0.2137
   33MOL   C20211786   4.407   2.266   1.661 -0.0678 -0.4697 -0.1364
   33MOL   C20311787   4.409   2.109   1.647  0.3727  0.7854  0.8377
   33MOL   C20411788   4.385   2.030   1.769 -0.0668  0.7414 -0.3948
   33MOL   C20511789   4.434   1.888   1.781 -0.7183 -0.5617  0.0917
   33MOL   H20611790   4.233   2.350   1.367 -0.3519 -0.3823 -0.2336
   33MOL   H20711791   4.235   2.204   1.450  1.5345 -0.1792  0.1125
   33MOL   H20811792   4.397   2.444   1.556  2.3105 -0.4647  0.3718
   33MOL   H20911793   4.329   2.294   1.731 -1.3021  0.9362 -2.0254
   33MOL   H21011794   4.496   2.306   1.710 -1.0478  0.9041  0.5430
   33MOL   H21111795   4.504   2.082   1.600 -0.1600  0.1060  0.1236
   33MOL   H21211796   4.329   2.071   1.584  0.6358 -1.0131  1.5543
   33MOL   H21311797   4.279   2.027   1.794 -0.1316  0.8535 -0.6495
   33MOL   H21411798   4.422   2.088   1.853  1.4352 -1.4626  0.5128
   33MOL   H21511799   4.425   1.870   1.888 -1.3906 -1.3392 -0.0937
   33MOL   H21611800   4.369   1.815   1.734  0.4350 -2.2466  1.0584
   33MOL   H21711801   4.535   1.868   1.747 -1.6688 -2.5834 -1.6282
   33MOL   C21811802   4.501   2.308   1.422  0.3189 -0.0301 -0.2424
   33MOL   C21911803   4.513   2.413   1.299 -0.1479  0.2496 -0.3479
   33MOL   C22011804   4.506   2.339   1.163  0.4845 -1.1821 -0.0127
   33MOL   C22111805   4.371   2.268   1.132 -0.0668  0.3972 -0.5766
   33MOL   C22211806   4.344   2.235   0.982  0.5818 -0.1338 -0.4267
   33MOL   C22311807   4.203   2.194   0.948 -0.1689  0.0042 -0.6087
   33MOL   H22411808   4.594   2.315   1.478 -1.5540  0.2982  2.9540
   33MOL   H22511809   4.485   2.202   1.399  3.0707 -0.2200 -1.4231
   33MOL   H22611810   4.434   2.488   1.310  0.9924  1.5916 -1.1703
   33MOL   H22711811   4.590   2.269   1.158  1.0225 -0.4954 -0.8441
   33MOL   H22811812   4.526   2.412   1.085 -2.5189  0.3301  0.5579
   33MOL   H22911813   4.294   2.339   1.165  1.2160  0.8396  1.5308
   33MOL   H23011814   4.366   2.179   1.193 -1.5790  1.8781  1.5218
   33MOL   H23111815   4.367   2.324   0.922  2.6186  0.9962  1.9124
   33MOL   H23211816   4.413   2.157   0.950  1.2581 -0.4073  1.5949
   33MOL   H23311817   4.128   2.273   0.949  0.0835  0.2399 -0.3262
   33MOL   H23411818   4.178   2.106   1.008 -2.2480  0.5229 -0.6653
   33MOL   H23511819   4.199   2.173   0.841 -1.4654  0.8999 -0.7431
   33MOL   C23611820   4.654   2.485   1.286  0.3177  0.2381 -0.2177
   33MOL   C23711821   4.676   2.584   1.399  0.5553  0.0615  0.4301
   33MOL   C23811822   4.628   2.719   1.352 -0.7031 -0.3064  0.1106
   33MOL   C23911823   4.582   2.802   1.470 -0.3896 -0.3210 -0.1163
   33MOL   C24011824   4.506   2.928   1.417 -0.5635  0.7711  0.1128
   33MOL   C24111825   4.479   3.014   1.540 -0.2129 -0.0476  0.2728
   33MOL   H24211826   4.738   2.414   1.283 -0.2992 -0.5022 -0.1389
   33MOL   H24311827   4.663   2.527   1.186 -0.6898 -1.2384 -0.9566
   33MOL   H24411828   4.611   2.557   1.483 -1.7332 -0.5104 -1.4457
   33MOL   H24511829   4.712   2.771   1.306 -2.3555  2.1481 -0.2857
   33MOL   H24611830   4.550   2.710   1.276  1.5700  1.7619 -2.5615
   33MOL   H24711831   4.669   2.843   1.521 -2.3432 -0.0327  3.1549
   33MOL   H24811832   4.533   2.738   1.543  1.4407 -0.2167  1.2428
   33MOL   H24911833   4.564   2.990   1.348 -2.9873  0.2187 -2.5276
   33MOL   H25011834   4.413   2.893   1.372  0.4039 -1.3928 -0.2566
   33MOL   H25111835   4.408   2.954   1.598 -0.0438 -2.1240 -1.5676
   33MOL   H25211836   4.571   3.026   1.596 -0.7694 -2.3786  1.7665
   33MOL   H25311837   4.447   3.118   1.529 -2.1688 -0.6866 -0.4087
   33MOL   C25411838   4.823   2.590   1.455  0.0171  0.7629  0.6138
   33MOL   C25511839   4.866   2.452   1.516  0.4310 -0.1401 -0.5072
   33MOL   C25611840   4.799   2.415   1.654  0.0830 -0.4580  0.1721
   33MOL   C25711841   4.834   2.286   1.725  0.0191 -0.1826  0.1480
   33MOL   C25811842   4.768   2.267   1.866  0.2417  0.9000  1.1608
   33MOL   C25911843   4.820   2.137   1.931 -0.6924 -0.3111  0.1974
   33MOL   H26011844   4.844   2.671   1.525  1.0222  2.4204 -1.5280
   33MOL   H26111845   4.891   2.608   1.371  1.4393  0.3361  1.6624
   33MOL   H26211846   4.844   2.369   1.448 -1.8521 -0.0027  0.0264
   33MOL   H26311847   4.831   2.490   1.726 -0.7315  0.0057  0.0623
   33MOL   H26411848   4.691   2.427   1.642  0.2488  0.1031 -0.9038
   33MOL   H26511849   4.811   2.203   1.658 -3.8668  1.1652 -0.3349
   33MOL   H26611850   4.942   2.272   1.733  0.2410  1.2459 -0.3200
   33MOL   H26711851   4.660   2.256   1.857 -0.0564  2.7088  2.1166
   33MOL   H26811852   4.776   2.363   1.917 -1.4735  2.4514 -1.3826
   33MOL   H26911853   4.772   2.128   2.029  0.1885 -4.5037  0.3389
   33MOL   H27011854   4.925   2.141   1.959 -0.7052 -0.0969  0.2122
   33MOL   H27111855   4.787   2.053   1.870  0.0417 -0.6598  0.2792
   33MOL   C27211856   5.022   2.448   1.526 -0.6066  0.0140  0.3975
   33MOL   C27311857   5.094   2.392   1.398 -0.6910 -0.2229 -0.1600
   33MOL   C27411858   5.076   2.242   1.376 -0.1841 -0.1248 -0.1373
   33MOL   C27511859   5.128   2.196   1.241  0.1443  0.8849 -0.0098
   33MOL   C27611860   5.074   2.059   1.202 -0.3009  0.4849 -0.2255
   33MOL   C27711861   5.119   1.927   1.272  0.0263  0.7331  0.1921
   33MOL   H27811862   5.070   2.543   1.547 -0.7755 -0.3575  2.6062
   33MOL   H27911863   5.039   2.394   1.619 -3.0783 -3.4627 -1.0729
   33MOL   H28011864   5.046   2.437   1.311  1.6907 -0.5872 -1.7341
   33MOL   H28111865   4.974   2.212   1.401 -0.7837  0.0450 -2.3263
   33MOL   H28211866   5.147   2.195   1.445 -0.8979  1.2220  1.5551
   33MOL   H28311867   5.234   2.199   1.219  0.0332 -0.0478 -0.6963
   33MOL   H28411868   5.076   2.260   1.169 -0.0774 -0.9523 -1.4973
   33MOL   H28511869   4.965   2.052   1.199 -0.1628 -1.4074 -1.8683
   33MOL   H28611870   5.109   2.047   1.100 -1.7075 -2.3996 -0.4124
   33MOL   H28711871   5.152   1.970   1.366 -1.2740  1.5697  0.2897
   33MOL   H28811872   5.036   1.856   1.271  1.2730 -0.7443  0.9222
   33MOL   H28911873   5.210   1.886   1.230  0.6063  2.2760 -0.1147
   33MOL   C29011874   5.241   2.441   1.390  0.4942 -0.5715 -0.5527
   33MOL   C29111875   5.262   2.578   1.324  0.0578  0.3943 -1.4454
   33MOL   C29211876   5.359   2.664   1.411  0.1661  0.8771  0.0880
   33MOL   C29311877   5.292   2.717   1.545 -0.5814  0.0525  0.4250
   33MOL   C29411878   5.366   2.832   1.614 -0.9269  0.0652 -0.5782
   33MOL   C29511879   5.332   2.845   1.762  0.7735 -0.2379  0.4320
   33MOL   H29611880   5.297   2.356   1.351 -0.0869 -2.1898  2.0345
   33MOL   H29711881   5.275   2.447   1.493  0.3560  0.4662 -0.5645
   33MOL   H29811882   5.167   2.630   1.327 -0.1400  0.0637 -1.9090
   33MOL   H29911883   5.410   2.745   1.358 -0.3270  1.5602  0.6385
   33MOL   H30011884   5.443   2.600   1.437 -0.3586 -1.0401 -2.6983
   33MOL   H30111885   5.190   2.747   1.519 -1.3802 -1.9816  1.1109
   33MOL   H30211886   5.293   2.637   1.618 -1.3842 -0.7518 -0.4203
   33MOL   H30311887   5.348   2.926   1.562  1.4814  0.7645 -0.2037
   33MOL   H30411888   5.474   2.822   1.615 -0.8017  1.3381 -0.1175
   33MOL   H30511889   5.404   2.916   1.802  3.7319 -1.9945 -1.5595
   33MOL   H30611890   5.339   2.750   1.815  2.1313  0.2541  1.1490
   33MOL   H30711891   5.232   2.883   1.780 -0.6929 -2.0364 -3.4049
   33MOL   C30811892   5.303   2.559   1.179  0.4679 -0.0990 -0.5934
   33MOL   C30911893   5.290   2.691   1.096 -0.2417 -0.4333  0.3053
   33MOL   C31011894   5.137   2.726   1.080 -0.2412 -0.3160  0.3039
   33MOL   C31111895   5.089   2.871   1.076  0.6307  0.0583 -0.4984
   33MOL   C31211896   5.025   2.902   1.218  0.0792  0.8203  0.5049
   33MOL   C31311897   5.128   2.966   1.311  0.3268  0.1696 -0.1068
   33MOL   H31411898   5.405   2.520   1.179  0.1277 -1.0579  1.3061
   33MOL   H31511899   5.245   2.479   1.135 -0.9017 -0.6185  2.0655
   33MOL   H31611900   5.344   2.760   1.160  0.6407  0.0475 -0.9178
   33MOL   H31711901   5.079   2.676   1.158  0.5501 -1.6879  0.0233
   33MOL   H31811902   5.098   2.675   0.992 -1.7783  0.8503  0.2892
   33MOL   H31911903   5.009   2.889   1.004  1.1857  0.4281 -1.0368
   33MOL   H32011904   5.161   2.948   1.046  0.0309  0.8953  0.1812
   33MOL   H32111905   4.943   2.973   1.208  0.3970  1.0978 -0.1961
   33MOL   H32211906   4.979   2.813   1.261 -3.1154  1.5222 -1.3124
   33MOL   H32311907   5.097   2.974   1.415  0.3672 -0.7072 -0.0301
   33MOL   H32411908   5.175   3.062   1.288 -1.6156  1.9095  2.7743
   33MOL   H32511909   5.214   2.899   1.304 -0.3606 -0.6791 -0.4839
   33MOL   C32611910   5.365   2.677   0.961 -0.4445 -0.3842  0.5113
   33MOL   C32711911   5.375   2.808   0.881  0.4562 -0.4828 -0.5649
   33MOL   C32811912   5.458   2.919   0.956  0.0060 -0.1088 -1.0079
   33MOL   C32911913   5.430   3.065   0.908  0.4968  0.2910  0.4118
   33MOL   C33011914   5.475   3.173   1.000  0.1337 -1.0221 -0.1973
   33MOL   C33111915   5.395   3.187   1.128  0.3050  0.1514 -0.4089
   33MOL   H33211916   5.295   2.611   0.909  1.0857 -0.0704 -2.0133
   33MOL   H33311917   5.456   2.620   0.975 -0.1784  0.1636  1.0517
   33MOL   H33411918   5.276   2.852   0.872  0.1366 -1.2906 -0.9211
   33MOL   H33511919   5.437   2.930   1.062  2.4954  1.2346 -0.6271
   33MOL   H33611920   5.566   2.906   0.943 -0.2277 -0.4557 -2.8401
   33MOL   H33711921   5.322   3.083   0.904  0.5548  0.7998  1.0230
   33MOL   H33811922   5.470   3.084   0.808 -1.0580  0.8167 -0.1249
   33MOL   H33911923   5.582   3.165   1.023 -0.1217 -1.2703  0.8983
   33MOL   H34011924   5.471   3.270   0.951 -1.2351 -0.0730  1.7301
   33MOL   H34111925   5.295   3.218   1.100  0.1413 -0.6067 -0.6915
   33MOL   H34211926   5.435   3.266   1.192 -3.0127  2.2385 -0.8260
   33MOL   H34311927   5.391   3.095   1.188 -0.4577  1.1268  1.0668
   33MOL   C34411928   5.435   2.784   0.737  0.6364 -0.2421  0.5624
   33MOL   C34511929   5.367   2.685   0.636  0.7284 -0.4290 -0.0319
   33MOL   C34611930   5.465   2.650   0.527 -0.6743  0.3093  0.3598
   33MOL   C34711931   5.409   2.587   0.402  0.8473  0.1585 -0.2151
   33MOL   C34811932   5.520   2.520   0.327 -0.3061 -0.4484  0.0006
   33MOL   C34911933   5.465   2.464   0.188  0.0839  0.2094 -0.3579
   33MOL   H35011934   5.467   2.877   0.690 -0.7096  0.0635  0.2539
   33MOL   H35111935   5.532   2.743   0.766  1.5578  1.1268 -0.5460
   33MOL   H35211936   5.286   2.743   0.590  2.6135 -0.0542 -3.0000
   33MOL   H35311937   5.519   2.737   0.492  1.8099 -0.5677  1.8623
   33MOL   H35411938   5.541   2.583   0.568  0.0851 -0.8999 -2.8574
   33MOL   H35511939   5.334   2.514   0.430 -0.1677  0.8995 -0.9505
   33MOL   H35611940   5.358   2.667   0.347 -1.3980 -1.6196 -0.7794
   33MOL   H35711941   5.588   2.599   0.294  0.8860 -1.8460 -0.9199
   33MOL   H35811942   5.570   2.447   0.391  1.6728  1.8376  1.1641
   33MOL   H35911943   5.409   2.545   0.143 -1.0449 -0.4841 -0.2058
   33MOL   H36011944   5.538   2.415   0.123 -1.1522  0.0058 -1.5950
   33MOL   H36111945   5.405   2.378   0.218 -0.3704  1.1887  1.6547
   33MOL   H36211946   5.317   2.598   0.677  0.6607 -0.2666  0.2315
   34MOL     C111947   0.730   0.641   1.264  0.1354 -0.1049 -0.2094
   34MOL     C211948   0.714   0.794   1.277 -0.4157  0.0126 -0.2158
   34MOL     C311949   0.584   0.814   1.363 -0.6673  0.4727  0.0782
   34MOL     C411950   0.626   0.801   1.511 -0.0135 -1.2144 -0.3240
   34MOL     C511951   0.527   0.866   1.601  0.5706 -0.1297 -0.1557
   34MOL     C611952   0.556   0.850   1.752  0.3947  0.2186  0.3703
   34MOL     H711953   0.806   0.623   1.188  0.1670  0.3856 -0.2979
   34MOL     H811954   0.740   0.593   1.361 -0.7545 -1.6486 -0.8759
   34MOL     H911955   0.799   0.840   1.329  0.3929 -2.2854  0.5355
   34MOL    H1011956   0.507   0.745   1.329  0.4106 -1.3258  1.1700
   34MOL    H1111957   0.542   0.914   1.363  1.4169  1.3866 -0.3836
   34MOL    H1211958   0.719   0.851   1.537  0.1842 -1.5502 -0.3875
   34MOL    H1311959   0.632   0.696   1.540 -0.8899 -0.9841  0.7262
   34MOL    H1411960   0.547   0.972   1.585 -0.7847  0.0424 -0.8355
   34MOL    H1511961   0.422   0.848   1.579  0.3577  2.1129 -1.1596
   34MOL    H1611962   0.651   0.885   1.791  1.0146  0.5943 -1.4432
   34MOL    H1711963   0.537   0.746   1.781 -0.7183  0.0063 -1.0946
   34MOL    H1811964   0.486   0.916   1.803  1.6203  1.2065  0.7939
   34MOL    H1911965   0.642   0.587   1.231  0.8306 -1.1166 -0.4248
   34MOL    C2011966   0.686   0.862   1.140  0.2944  0.4363 -0.2680
   34MOL    C2111967   0.679   1.018   1.132  1.0799  0.3534  0.1410
   34MOL    C2211968   0.787   1.091   1.216 -0.2938 -0.3318 -0.7362
   34MOL    C2311969   0.924   1.050   1.166 -0.5048 -0.0117  0.0040
   34MOL    C2411970   1.035   1.090   1.248  0.1908 -0.1620 -0.5386
   34MOL    C2511971   1.058   1.249   1.256 -0.5393 -0.2638 -0.0795
   34MOL    H2611972   0.598   0.822   1.089 -0.5234  0.9509  0.7276
   34MOL    H2711973   0.775   0.835   1.082  1.6124 -2.0618  2.7993
   34MOL    H2811974   0.582   1.043   1.173  0.7813 -0.4325 -0.0729
   34MOL    H2911975   0.769   1.072   1.321  2.3181  0.0204 -0.1893
   34MOL    H3011976   0.779   1.199   1.204 -0.7639 -0.0539  1.8050
   34MOL    H3111977   0.954   1.091   1.070 -0.2674  0.8526  0.4353
   34MOL    H3211978   0.938   0.943   1.156 -0.8064 -0.3081  2.4073
   34MOL    H3311979   1.033   1.049   1.349 -1.3702  0.8854 -0.1300
   34MOL    H3411980   1.116   1.045   1.191  1.7117 -1.3814  2.4479
   34MOL    H3511981   1.152   1.271   1.306  0.0122 -1.5289 -0.5498
   34MOL    H3611982   1.084   1.281   1.155  1.4841 -1.9391 -0.1340
   34MOL    H3711983   0.977   1.308   1.301  1.7961  1.5019  1.9655
   34MOL    C3811984   0.670   1.074   0.980  0.4011  0.3347 -0.1854
   34MOL    C3911985   0.618   1.219   0.965  0.2218  0.2753  0.7316
   34MOL    C4011986   0.675   1.289   0.838  0.4896 -0.2157 -0.0239
   34MOL    C4111987   0.818   1.324   0.848  0.2104  0.0717 -0.1849
   34MOL    C4211988   0.859   1.414   0.729  0.0400  0.8812 -0.1466
   34MOL    C4311989   1.004   1.449   0.747 -0.2994 -0.2940  0.2474
   34MOL    H4411990   0.599   1.018   0.919  0.9455 -0.4986 -0.0609
   34MOL    H4511991   0.766   1.052   0.934 -0.4015 -2.3248 -0.7020
   34MOL    H4611992   0.661   1.282   1.043  2.2146 -0.3255  0.1446
   34MOL    H4711993   0.655   1.219   0.757 -0.4700  0.1094 -0.0665
   34MOL    H4811994   0.617   1.376   0.808  0.4455 -0.6756 -1.2727
   34MOL    H4911995   0.834   1.385   0.937  0.3464 -2.4394  1.5746
   34MOL    H5011996   0.884   1.239   0.864  0.8875  0.3486 -1.4357
   34MOL    H5111997   0.855   1.350   0.641  0.3425  0.9900 -0.2380
   34MOL    H5211998   0.785   1.493   0.714 -0.7801 -0.0273 -0.9895
   34MOL    H5311999   1.040   1.532   0.685  2.1767 -0.5188  1.3137
   34MOL    H5412000   1.066   1.362   0.723 -2.7959 -1.4219 -2.4948
   34MOL    H5512001   1.011   1.469   0.854 -1.0485  0.0581  0.2289
   34MOL    C5612002   0.461   1.222   0.977 -0.1815  0.3346 -0.3902
   34MOL    C5712003   0.373   1.342   0.917 -0.3128  0.6100  0.4695
   34MOL    C5812004   0.390   1.462   1.005  0.0210 -0.5632 -0.1518
   34MOL    C5912005   0.449   1.585   0.952 -0.2726 -0.2392  0.0422
   34MOL    C6012006   0.493   1.677   1.076  0.5014 -0.0578  0.0976
   34MOL    C6112007   0.544   1.814   1.029  0.4701  0.2819  0.3883
   34MOL    H6212008   0.422   1.141   0.917 -1.8581  1.4267 -0.8183
   34MOL    H6312009   0.430   1.218   1.082 -2.8536 -1.9041 -1.1894
   34MOL    H6412010   0.414   1.366   0.819  1.4180  1.4968  1.3897
   34MOL    H6512011   0.295   1.506   1.034  0.6925  0.2213  0.8737
   34MOL    H6612012   0.431   1.437   1.103  0.4140  0.2058 -0.1140
   34MOL    H6712013   0.385   1.639   0.883  0.8789 -0.0107 -0.8563
   34MOL    H6812014   0.543   1.558   0.904 -0.2707  0.4571 -0.3478
   34MOL    H6912015   0.401   1.703   1.127 -0.8870  2.6579 -3.6014
   34MOL    H7012016   0.577   1.631   1.127  1.4531  0.8364 -0.6312
   34MOL    H7112017   0.644   1.802   0.987  0.1144 -0.1417 -0.3525
   34MOL    H7212018   0.478   1.848   0.949  1.0985  1.0355  0.1820
   34MOL    H7312019   0.543   1.894   1.103  0.2512  0.1741  0.5004
   34MOL    C7412020   0.224   1.299   0.910  0.3073  0.5702 -0.5463
   34MOL    C7512021   0.130   1.385   0.823  0.4238 -0.3984 -0.4089
   34MOL    C7612022   0.172   1.398   0.676  0.4354  0.0600  0.0596
   34MOL    C7712023   0.161   1.274   0.580 -0.8544 -0.1271 -0.2412
   34MOL    C7812024   0.155   1.306   0.433  0.0350  0.2432 -0.3542
   34MOL    C7912025   0.166   1.187   0.342  0.2139 -0.5138  0.0562
   34MOL    H8012026   0.218   1.195   0.878  0.1869  0.5728 -0.5316
   34MOL    H8112027   0.191   1.293   1.014  2.6288 -1.9314  0.0995
   34MOL    H8212028   0.156   1.484   0.859 -0.2960 -0.7612  1.1323
   34MOL    H8312029   0.094   1.463   0.637 -1.1796 -0.9483  1.5304
   34MOL    H8412030   0.266   1.452   0.664  0.0537  1.0627  1.3991
   34MOL    H8512031   0.255   1.221   0.600 -1.1057 -0.4264  0.1635
   34MOL    H8612032   0.075   1.213   0.606 -0.3899 -0.1844  1.2446
   34MOL    H8712033   0.224   1.385   0.401  0.3704 -0.4739 -1.4197
   34MOL    H8812034   0.061   1.352   0.405  0.8401  0.1030 -3.4488
   34MOL    H8912035   0.073   1.131   0.350 -0.2477  0.2700  0.2833
   34MOL    H9012036   0.167   1.211   0.236 -0.8586 -2.8141 -0.4997
   34MOL    H9112037   0.258   1.133   0.364  0.6724  1.2445  2.6382
   34MOL    C9212038   7.705   1.358   0.843  0.1968 -0.0702  0.1397
   34MOL    C9312039   7.649   1.363   0.988 -0.4412 -0.6442  0.0433
   34MOL    C9412040   7.691   1.497   1.062  0.0667 -0.5671  0.0433
   34MOL    C9512041   7.630   1.630   1.003 -0.2756 -0.0355  0.5802
   34MOL    C9612042   7.633   1.751   1.091  0.1699  0.7637 -0.1982
   34MOL    C9712043   0.049   1.801   1.104  0.5868 -0.2965 -0.1496
   34MOL    H9812044   7.647   1.425   0.779  0.8014 -0.1523 -0.4977
   34MOL    H9912045   7.667   1.261   0.810 -0.8754  0.6562 -0.8158
   34MOL   H10012046   7.697   1.285   1.047  1.2276  1.3432  1.3621
   34MOL   H10112047   0.072   1.502   1.076  0.2340  0.0452 -1.3698
   34MOL   H10212048   7.652   1.487   1.163  0.1916  0.9855  0.2534
   34MOL   H10312049   7.685   1.646   0.911 -0.4578  0.7663  0.6043
   34MOL   H10412050   7.526   1.618   0.970 -0.2472 -3.2687  1.5635
   34MOL   H10512051   7.570   1.832   1.053  0.5107  0.2003 -1.9694
   34MOL   H10612052   7.599   1.734   1.193 -1.6948  0.5599 -0.8358
   34MOL   H10712053   0.084   1.831   1.005 -0.4135 -0.0417 -0.4350
   34MOL   H10812054   0.048   1.892   1.165  0.9310 -0.1099 -0.4161
   34MOL   H10912055   0.114   1.725   1.148  1.5770  0.2454 -0.6504
   34MOL   C11012056   7.495   1.331   0.992 -0.1908  0.4060  0.3322
   34MOL   C11112057   7.448   1.287   1.134  0.5368 -0.6086 -0.3738
   34MOL   C11212058   7.452   1.136   1.129  0.2255  0.4645 -0.2782
   34MOL   C11312059   7.458   1.068   1.266  0.2238  0.0523  0.4977
   34MOL   C11412060   7.588   1.095   1.347  0.2052  0.0618  0.2198
   34MOL   C11512061   7.614   1.013   1.464  0.3279 -0.0654  0.8044
   34MOL   H11612062   7.440   1.424   0.979  1.0781  0.6899 -3.7723
   34MOL   H11712063   7.461   1.272   0.907 -1.3684  2.3547 -0.6033
   34MOL   H11812064   7.530   1.310   1.202  2.4035  0.3091 -2.8274
   34MOL   H11912065   7.541   1.103   1.074  0.0781 -0.8812  0.2681
   34MOL   H12012066   7.362   1.095   1.084 -0.1835  0.5402  0.4587
   34MOL   H12112067   7.460   0.960   1.253  0.3610  0.0016  0.9129
   34MOL   H12212068   7.367   1.085   1.323  0.0432  0.6864  0.0292
   34MOL   H12312069   7.582   1.202   1.368 -0.5839  0.1727 -0.5286
   34MOL   H12412070   7.676   1.084   1.283 -0.0240 -2.4382  0.2980
   34MOL   H12512071   7.640   0.918   1.419 -0.4819  0.7875 -1.5311
   34MOL   H12612072   7.699   1.055   1.517  1.4770 -0.7782 -0.4448
   34MOL   H12712073   7.527   1.014   1.531 -0.5331  0.7176 -0.2998
   34MOL   C12812074   7.302   1.337   1.172  0.0611 -0.0186 -0.2946
   34MOL   C12912075   7.296   1.478   1.229 -0.5197  0.0059 -0.0039
   34MOL   C13012076   7.281   1.459   1.377 -0.2959 -0.0875  0.0245
   34MOL   C13112077   7.395   1.379   1.456  0.2196  0.5829  0.8120
   34MOL   C13212078   7.362   1.370   1.605 -0.2958 -0.1137  0.0383
   34MOL   C13312079   7.482   1.303   1.673 -0.4106  0.3125  0.1135
   34MOL   H13412080   7.240   1.276   1.237 -1.1591  0.2719 -1.1749
   34MOL   H13512081   7.249   1.323   1.077  1.3091  0.5044 -1.0834
   34MOL   H13612082   7.393   1.526   1.219  1.3648 -3.3596  1.3402
   34MOL   H13712083   7.267   1.550   1.435 -0.8125  0.2451 -0.6212
   34MOL   H13812084   7.189   1.409   1.405 -0.4394  0.3145  0.2694
   34MOL   H13912085   7.489   1.431   1.439  1.3382 -1.0677  1.7289
   34MOL   H14012086   7.389   1.278   1.414  0.9315  0.1058  1.8222
   34MOL   H14112087   7.344   1.473   1.636 -0.6532 -0.1941  0.1026
   34MOL   H14212088   7.270   1.316   1.629 -1.4491  0.4530 -2.8705
   34MOL   H14312089   7.580   1.347   1.653  0.7430 -2.4572 -0.6378
   34MOL   H14412090   7.476   1.199   1.641 -1.7643  0.0484  1.1788
   34MOL   H14512091   7.478   1.299   1.782 -2.6232  1.9559  0.1155
   34MOL   C14612092   7.175   1.546   1.155 -0.5415 -0.0716  0.1310
   34MOL   C14712093   7.146   1.696   1.197  1.1023  0.0791  0.4800
   34MOL   C14812094   7.002   1.733   1.176 -0.6533  0.0194  0.6569
   34MOL   C14912095   6.971   1.708   1.027  0.5383  0.3870 -0.3059
   34MOL   C15012096   6.854   1.800   0.990  0.5462 -0.2293 -0.1467
   34MOL   C15112097   6.828   1.787   0.837 -0.4968 -0.2878 -0.4075
   34MOL   H15212098   7.199   1.546   1.049 -0.7789  0.4874  0.0775
   34MOL   H15312099   7.086   1.485   1.168 -2.3782  2.7728  1.4721
   34MOL   H15412100   7.159   1.695   1.305 -1.0700 -1.5632  0.7635
   34MOL   H15512101   6.970   1.831   1.211 -2.2693  0.1743 -1.2067
   34MOL   H15612102   6.945   1.663   1.238 -1.5088 -0.6791 -0.8882
   34MOL   H15712103   7.056   1.738   0.967  0.7798  2.1415  0.8869
   34MOL   H15812104   6.933   1.610   0.996 -2.0369  0.7215  1.5765
   34MOL   H15912105   6.880   1.905   1.005 -0.1434  0.3176 -2.5902
   34MOL   H16012106   6.763   1.776   1.045  0.4577  1.2447  0.3872
   34MOL   H16112107   6.911   1.824   0.776 -0.4833  1.5070  0.6643
   34MOL   H16212108   6.825   1.681   0.812 -1.9395 -0.7479  1.5738
   34MOL   H16312109   6.737   1.837   0.804 -0.1257  2.2801  2.2314
   34MOL   C16412110   7.244   1.789   1.130  0.3889 -0.0542  0.5885
   34MOL   C16512111   7.231   1.944   1.141  0.3194  0.9324  0.4727
   34MOL   C16612112   7.227   1.987   1.294 -0.2187  0.4232 -0.0630
   34MOL   C16712113   7.158   2.123   1.318 -1.1038 -0.6474  0.3893
   34MOL   C16812114   7.130   2.156   1.465  0.1348 -0.3290  0.6974
   34MOL   C16912115   7.038   2.267   1.511 -0.4213  0.1574  0.3985
   34MOL   H17012116   7.346   1.763   1.160  0.2681 -1.3085 -0.1077
   34MOL   H17112117   7.239   1.778   1.022  0.8032  1.7684  0.3688
   34MOL   H17212118   7.134   1.973   1.100 -0.4683  0.6877  2.1346
   34MOL   H17312119   7.324   1.978   1.343  1.1432  0.8590 -2.5853
   34MOL   H17412120   7.165   1.920   1.354  0.5510 -0.2926 -0.0641
   34MOL   H17512121   7.065   2.131   1.261 -0.2101  0.6781 -0.9182
   34MOL   H17612122   7.227   2.192   1.270 -0.6638 -0.8880  0.6736
   34MOL   H17712123   7.225   2.181   1.514  1.5248  0.7186 -2.3804
   34MOL   H17812124   7.096   2.065   1.514  0.7938 -0.7256  0.4328
   34MOL   H17912125   6.944   2.259   1.456  0.9615 -1.2156 -1.8408
   34MOL   H18012126   7.081   2.366   1.501 -0.9570  0.3640  0.1069
   34MOL   H18112127   7.010   2.251   1.616 -0.6527  2.0068  0.6263
   34MOL   C18212128   7.343   2.026   1.070 -0.1856  0.0808  0.3290
   34MOL   C18312129   7.366   2.002   0.913  0.7832 -0.1532  0.0232
   34MOL   C18412130   7.472   2.107   0.852 -0.1467 -0.0824  0.3130
   34MOL   C18512131   7.442   2.257   0.879  0.1381 -0.0033 -0.3610
   34MOL   C18612132   7.543   2.349   0.809 -0.1491 -0.3378  0.3912
   34MOL   C18712133   7.530   2.498   0.839  0.6321 -0.7276 -0.3536
   34MOL   H18812134   7.318   2.130   1.091 -1.0465 -0.1087  0.2456
   34MOL   H18912135   7.438   2.008   1.122 -0.8380  0.3816  1.6446
   34MOL   H19012136   7.409   1.902   0.913  1.3934  0.0881 -1.6205
   34MOL   H19112137   7.571   2.073   0.881 -0.1780 -1.1758 -0.8370
   34MOL   H19212138   7.460   2.099   0.744 -0.8775  0.2372  0.3621
   34MOL   H19312139   7.467   2.280   0.983 -0.8489  0.6517 -0.2675
   34MOL   H19412140   7.342   2.294   0.857  0.5621  1.2920 -0.1465
   34MOL   H19512141   7.549   2.330   0.702  1.6409 -1.0966  0.6167
   34MOL   H19612142   7.644   2.323   0.838  0.6984  1.7067 -0.6160
   34MOL   H19712143   7.488   2.540   0.747  1.3232  0.2373 -0.2410
   34MOL   H19812144   7.626   2.544   0.865  1.2163 -0.0213 -3.4971
   34MOL   H19912145   7.454   2.525   0.911  0.9741 -1.0572  0.1276
   34MOL   C20012146   7.242   1.993   0.829  0.1179 -0.2592  0.5748
   34MOL   C20112147   7.255   1.907   0.703 -0.3741 -0.6979 -0.6184
   34MOL   C20212148   7.250   1.764   0.730 -0.6651  1.0645 -0.0840
   34MOL   C20312149   7.307   1.674   0.611  0.3877  0.4936  0.0547
   34MOL   C20412150   7.324   1.521   0.661  0.0752  0.2694  0.9301
   34MOL   C20512151   7.363   1.432   0.541 -0.1311 -0.1744  0.6030
   34MOL   H20612152   7.211   2.094   0.803 -0.2895 -0.1360  1.5407
   34MOL   H20712153   7.164   1.948   0.890 -0.2456 -0.8317 -0.2966
   34MOL   H20812154   7.354   1.932   0.666  0.4683  0.4528  2.2985
   34MOL   H20912155   7.149   1.738   0.759 -0.0553  0.8548  1.9154
   34MOL   H21012156   7.302   1.739   0.822 -0.2939 -0.6561 -0.7309
   34MOL   H21112157   7.404   1.716   0.585 -0.4110  2.9731  1.0051
   34MOL   H21212158   7.237   1.676   0.527  1.1198  0.9600 -0.5452
   34MOL   H21312159   7.234   1.489   0.713 -0.4730  0.7111  0.2669
   34MOL   H21412160   7.407   1.514   0.731  1.5138 -0.5411 -0.8050
   34MOL   H21512161   7.282   1.432   0.469  1.1245  2.3830 -0.8764
   34MOL   H21612162   7.457   1.458   0.492 -0.0400 -3.1855 -0.9278
   34MOL   H21712163   7.374   1.327   0.569 -0.7346 -1.3474 -3.3037
   34MOL   C21812164   7.147   1.941   0.591 -0.3876  0.3513  0.0692
   34MOL   C21912165   7.213   1.972   0.452 -0.3999 -0.0556  0.4962
   34MOL   C22012166   7.275   2.118   0.455 -0.5956 -0.3383 -0.5633
   34MOL   C22112167   7.379   2.144   0.346 -0.5358 -0.0213  0.1200
   34MOL   C22212168   7.422   2.289   0.332  0.4870  0.0876  0.3862
   34MOL   C22312169   7.516   2.313   0.213  0.0049 -0.3150 -0.7846
   34MOL   H22412170   7.081   1.855   0.584  1.8731 -1.2385 -2.8303
   34MOL   H22512171   7.096   2.035   0.614  1.7009  1.3667  0.7305
   34MOL   H22612172   7.293   1.901   0.433 -0.9164 -0.4430 -0.2706
   34MOL   H22712173   7.320   2.132   0.553 -0.7513 -0.2929 -0.5000
   34MOL   H22812174   7.196   2.192   0.445 -0.3363 -0.0782 -0.6889
   34MOL   H22912175   7.341   2.110   0.250 -2.1355  0.8226  0.4383
   34MOL   H23012176   7.468   2.082   0.357  0.7526  1.3009 -2.4670
   34MOL   H23112177   7.332   2.349   0.319  2.1227  2.9890  1.8753
   34MOL   H23212178   7.467   2.328   0.423  0.2327  2.9542 -0.6863
   34MOL   H23312179   7.612   2.263   0.223  2.8837  5.3196  1.1478
   34MOL   H23412180   7.527   2.421   0.207 -1.1875 -0.1457 -0.0481
   34MOL   H23512181   7.461   2.274   0.127  0.9522 -0.4698 -1.3193
   34MOL   C23612182   7.105   1.964   0.335  0.1586  0.1445  0.6190
   34MOL   C23712183   7.034   1.824   0.311  0.4288 -0.0870  0.2388
   34MOL   C23812184   7.077   1.756   0.177 -0.2280 -0.2109  0.1917
   34MOL   C23912185   7.227   1.714   0.172  0.3200 -0.1021  0.2343
   34MOL   C24012186   7.268   1.624   0.056  0.1772 -0.2377  0.2319
   34MOL   C24112187   7.412   1.574   0.051 -0.7266 -0.2808 -0.2511
   34MOL   H24212188   7.036   2.047   0.348  0.8631  1.2346 -2.1964
   34MOL   H24312189   7.161   1.983   0.243 -0.5479 -0.1160  0.1285
   34MOL   H24412190   7.080   1.761   0.387  0.1867  1.0204  1.3280
   34MOL   H24512191   7.014   1.667   0.174  0.3832 -0.6482  0.0280
   34MOL   H24612192   7.048   1.827   0.101 -1.1482  0.0830  0.8133
   34MOL   H24712193   7.246   1.655   0.262 -1.4452  0.9511  1.3271
   34MOL   H24812194   7.294   1.801   0.177 -2.1966  1.8023  1.9434
   34MOL   H24912195   7.194   1.543   0.051 -2.4181  2.1825 -1.8010
   34MOL   H25012196   7.248   1.659   7.682 -0.6259 -3.6655 -0.8719
   34MOL   H25112197   7.477   1.662   0.052  0.1333 -0.8634 -2.3347
   34MOL   H25212198   7.446   1.506   0.128 -0.3533 -1.4777 -1.4632
   34MOL   H25312199   7.424   1.519   7.685  0.5747  2.7983 -2.0160
   34MOL   C25412200   6.881   1.837   0.303  0.5084 -0.0050 -0.1931
   34MOL   C25512201   6.799   1.842   0.432 -0.6375  0.7181 -0.0596
   34MOL   C25612202   6.762   1.706   0.481 -0.4744 -0.3891 -0.5257
   34MOL   C25712203   6.891   1.609   0.492 -0.5297  0.6155 -0.0335
   34MOL   C25812204   6.862   1.481   0.570  0.4317 -0.3349 -0.0826
   34MOL   C25912205   6.981   1.406   0.632 -0.2196  0.2267 -0.0957
   34MOL   H26012206   6.834   1.753   0.252 -1.1152  0.5410  0.3521
   34MOL   H26112207   6.859   1.937   0.265 -0.2388  0.5658  1.6693
   34MOL   H26212208   6.860   1.879   0.515 -1.1836  0.4498  0.4629
   34MOL   H26312209   6.716   1.711   0.580 -1.0999  1.2425 -0.8951
   34MOL   H26412210   6.691   1.650   0.419  1.1423 -3.8838  0.6041
   34MOL   H26512211   6.946   1.585   0.401  1.4597 -1.9829  1.7941
   34MOL   H26612212   6.963   1.673   0.543 -0.9646 -0.8166  2.4565
   34MOL   H26712213   6.793   1.424   0.508 -2.5409  2.3667  0.6043
   34MOL   H26812214   6.799   1.502   0.656  0.3635  0.9616 -0.4479
   34MOL   H26912215   7.032   1.478   0.695 -0.4524 -0.1547  0.5296
   34MOL   H27012216   7.034   1.360   0.549  1.1550 -0.4871  1.1609
   34MOL   H27112217   6.962   1.325   0.702  1.5399 -0.6319 -0.5811
   34MOL   C27212218   6.678   1.937   0.441 -0.8644  0.5316 -0.4627
   34MOL   C27312219   6.692   2.088   0.427  0.4787  0.0399  0.9465
   34MOL   C27412220   6.781   2.152   0.528  0.6007  0.1079 -0.3930
   34MOL   C27512221   6.817   2.302   0.530  0.6115  0.5800  0.0936
   34MOL   C27612222   6.935   2.343   0.628  0.2156  0.2245  0.3846
   34MOL   C27712223   6.943   2.498   0.646 -0.1505  0.5323 -0.3802
   34MOL   H27812224   6.612   1.910   0.358 -1.5434  0.1090  0.2055
   34MOL   H27912225   6.629   1.927   0.538 -0.9408  3.9336 -0.1099
   34MOL   H28012226   6.726   2.108   0.325 -0.8275 -3.2668 -0.2249
   34MOL   H28112227   6.876   2.099   0.525  1.9981  2.5373 -0.7641
   34MOL   H28212228   6.746   2.124   0.628  1.1300  0.5264 -0.0862
   34MOL   H28312229   6.722   2.342   0.567  0.4854  0.2586  0.1108
   34MOL   H28412230   6.848   2.325   0.428  1.7942 -1.2113  0.0281
   34MOL   H28512231   6.901   2.299   0.722 -2.8217 -0.4651 -0.9796
   34MOL   H28612232   7.031   2.297   0.604 -0.5196 -0.9712 -0.3167
   34MOL   H28712233   7.016   2.534   0.718 -0.8760  0.5088  0.3678
   34MOL   H28812234   6.979   2.536   0.550 -1.6111  0.8192 -0.8262
   34MOL   H28912235   6.845   2.537   0.673 -0.2534  1.1524 -1.6005
   34MOL   C29012236   6.547   2.146   0.440 -0.4830 -0.2468 -0.3228
   34MOL   C29112237   6.525   2.279   0.367  0.0264 -0.5119 -0.1290
   34MOL   C29212238   6.459   2.255   0.224 -0.2874  0.1176 -0.2851
   34MOL   C29312239   6.544   2.167   0.122  0.0599  0.5983  0.4585
   34MOL   C29412240   6.474   2.128   7.717 -0.1805  0.0829 -0.2158
   34MOL   C29512241   6.423   2.238   7.629 -0.7105 -0.1278 -0.4899
   34MOL   H29612242   6.549   2.154   0.549  0.0456 -1.1625 -0.2581
   34MOL   H29712243   6.471   2.070   0.422 -3.2564  2.3059  0.0050
   34MOL   H29812244   6.612   2.337   0.338  0.0077  1.2449  3.0616
   34MOL   H29912245   6.436   2.347   0.171 -1.3610  1.0136  1.6691
   34MOL   H30012246   6.361   2.213   0.247  0.5057 -1.0694  1.0190
   34MOL   H30112247   6.640   2.210   0.098 -0.5760  2.0801  0.5544
   34MOL   H30212248   6.561   2.080   0.186  1.5470  1.2167  0.9216
   34MOL   H30312249   6.395   2.056   0.013  0.4805 -0.4349  0.4356
   34MOL   H30412250   6.548   2.076   7.656 -0.0693 -0.8489  0.7075
   34MOL   H30512251   6.496   2.317   7.611 -1.3290  0.1567 -1.8144
   34MOL   H30612252   6.347   2.298   7.680 -0.7450 -0.4660 -0.1446
   34MOL   H30712253   6.388   2.201   7.532 -1.2203  2.7997 -1.4996
   34MOL   C30812254   6.442   2.374   0.449 -0.2622  0.5966 -0.0753
   34MOL   C30912255   6.427   2.527   0.422 -0.3746  0.2357  0.5788
   34MOL   C31012256   6.548   2.610   0.479  0.2243  0.0055  1.4817
   34MOL   C31112257   6.582   2.732   0.382  0.1410 -0.3968  0.2031
   34MOL   C31212258   6.701   2.811   0.428  0.5585 -0.5014 -0.5231
   34MOL   C31312259   6.721   2.947   0.363  0.2793 -0.6461  0.1814
   34MOL   H31412260   6.347   2.325   0.468  0.0445  0.0069 -0.0355
   34MOL   H31512261   6.481   2.375   0.551 -0.8622 -0.4393  0.1720
   34MOL   H31612262   6.430   2.550   0.315  0.2054 -0.3539  0.4713
   34MOL   H31712263   6.630   2.538   0.483 -0.3365 -0.8599 -1.3521
   34MOL   H31812264   6.542   2.654   0.578 -0.0904  1.8493  0.6683
   34MOL   H31912265   6.499   2.802   0.387 -0.8646 -1.5192 -0.5043
   34MOL   H32012266   6.600   2.712   0.276  0.7836  0.8144  0.0764
   34MOL   H32112267   6.693   2.825   0.536 -1.1918  0.4805 -0.7746
   34MOL   H32212268   6.788   2.748   0.408  1.7699  0.4619  1.5865
   34MOL   H32312269   6.789   3.008   0.422 -1.2347  0.5796  0.6913
   34MOL   H32412270   6.626   3.000   0.367  1.1166  1.0995 -2.0843
   34MOL   H32512271   6.746   2.952   0.257  0.4462 -0.5461  0.2247
   34MOL   C32612272   6.297   2.586   0.483  0.7897  0.1996  0.2168
   34MOL   C32712273   6.163   2.543   0.410 -0.0927 -0.0021 -0.1776
   34MOL   C32812274   6.058   2.657   0.437  0.0117 -0.2843  0.2732
   34MOL   C32912275   6.005   2.684   0.588 -0.0351  0.3181 -0.3863
   34MOL   C33012276   5.916   2.801   0.597 -0.1187 -0.1138  0.5377
   34MOL   C33112277   5.777   2.777   0.532  0.8205 -0.6823  1.1078
   34MOL   H33212278   6.311   2.694   0.475 -1.9465  0.4774 -1.6691
   34MOL   H33312279   6.288   2.573   0.590 -0.1073  1.2078  0.2791
   34MOL   H33412280   6.131   2.449   0.454  1.5001 -0.9927 -1.0466
   34MOL   H33512281   6.097   2.753   0.405 -3.2930  0.4302 -1.8706
   34MOL   H33612282   5.976   2.639   0.368 -0.2100  0.4304  0.3454
   34MOL   H33712283   6.093   2.686   0.652  1.2941  0.5783 -2.1729
   34MOL   H33812284   5.937   2.603   0.615  0.1043  0.6429  0.9935
   34MOL   H33912285   5.903   2.836   0.699 -0.4876 -0.0409  0.4661
   34MOL   H34012286   5.963   2.884   0.544  2.1041 -2.4926 -1.3824
   34MOL   H34112287   5.783   2.766   0.424 -2.8609  0.6747  0.6892
   34MOL   H34212288   5.710   2.859   0.558  0.9731  0.2014 -1.1768
   34MOL   H34312289   5.733   2.690   0.583 -0.5610 -0.8521 -0.3343
   34MOL   C34412290   6.185   2.521   0.260 -0.1122  0.3440 -0.1970
   34MOL   C34512291   6.232   2.640   0.173  0.2198  0.5487  0.1590
   34MOL   C34612292   6.309   2.604   0.041  0.0265  0.6862  0.1089
   34MOL   C34712293   6.391   2.723   7.710 -0.1644 -0.0669 -0.0512
   34MOL   C34812294   6.470   2.676   7.581 -0.1599  0.5740  0.4687
   34MOL   C34912295   6.388   2.651   7.456  0.9839  0.1411 -0.2136
   34MOL   H35012296   6.243   2.430   0.243 -1.1549 -0.5819  1.1004
   34MOL   H35112297   6.090   2.487   0.219 -1.3558  2.6630  0.6288
   34MOL   H35212298   6.296   2.705   0.233 -0.6783  0.2208  1.4786
   34MOL   H35312299   6.373   2.519   0.065  0.2677  0.8858  0.1841
   34MOL   H35412300   6.224   2.573   7.709  0.3248  0.3632 -0.1533
   34MOL   H35512301   6.328   2.811   7.703  1.1068  0.9135  0.7235
   34MOL   H35612302   6.462   2.750   0.062 -0.2432  0.3477 -0.1220
   34MOL   H35712303   6.549   2.744   7.550  0.3650 -0.7728 -1.2513
   34MOL   H35812304   6.512   2.578   7.604  0.1360  1.0115  1.8189
   34MOL   H35912305   6.446   2.612   7.372 -0.6403  0.5384 -1.5429
   34MOL   H36012306   6.305   2.582   7.471 -0.3433  1.3740 -1.6778
   34MOL   H36112307   6.345   2.745   7.423  0.7004  0.5117  1.1886
   34MOL   H36212308   6.144   2.700   0.150 -1.3457 -2.1524 -0.9917
   35MOL     C112309   2.270   2.643   0.874 -0.4645 -0.4684  0.5746
   35MOL     C212310   2.313   2.686   1.015  0.1931 -0.0996  0.2925
   35MOL     C312311   2.380   2.824   1.033 -0.4781  0.3072 -0.0710
   35MOL     C412312   2.320   2.930   0.940 -0.1355 -0.3000 -0.2572
   35MOL     C512313   2.334   3.071   1.002 -0.9303 -0.3838 -0.3116
   35MOL     C612314   2.474   3.108   1.042  0.6003 -0.1577 -0.1979
   35MOL     H712315   2.216   2.727   0.831  3.3191  1.3421 -0.9418
   35MOL     H812316   2.346   2.629   0.797 -1.0801 -2.1634  0.2688
   35MOL     H912317   2.218   2.687   1.070 -0.5448 -0.2012 -0.9654
   35MOL    H1012318   2.488   2.812   1.024 -0.6043 -0.3358 -0.8388
   35MOL    H1112319   2.376   2.853   1.138  0.0079  1.6946 -0.4274
   35MOL    H1212320   2.213   2.924   0.917  0.0724 -4.6836 -0.4727
   35MOL    H1312321   2.358   2.918   0.838 -1.2566 -1.9827 -0.4889
   35MOL    H1412322   2.287   3.146   0.938 -1.6466  0.6027  1.3362
   35MOL    H1512323   2.271   3.077   1.091 -0.2866  0.9991  0.0677
   35MOL    H1612324   2.521   3.051   1.123  0.7377 -0.6343 -0.6133
   35MOL    H1712325   2.470   3.207   1.088 -0.2714 -0.5041  0.4753
   35MOL    H1812326   2.546   3.115   0.960  1.0601  0.6733  0.2683
   35MOL    H1912327   2.214   2.550   0.870 -1.3366  0.0742 -0.0235
   35MOL    C2012328   2.391   2.578   1.090  0.1838 -0.2962  0.3249
   35MOL    C2112329   2.351   2.562   1.236  0.3646 -0.2732 -0.9443
   35MOL    C2212330   2.229   2.464   1.235 -0.3370  0.1016  0.4915
   35MOL    C2312331   2.132   2.501   1.348  0.3470  0.0647 -0.1355
   35MOL    C2412332   2.065   2.643   1.322  0.2115 -0.4346  0.4521
   35MOL    C2512333   1.981   2.690   1.444  0.0626 -0.1016 -0.6732
   35MOL    H2612334   2.498   2.584   1.070  0.2339 -0.5356  0.5095
   35MOL    H2712335   2.368   2.483   1.042  0.8995  0.0243 -0.6630
   35MOL    H2812336   2.333   2.663   1.272 -2.9713 -1.1071 -0.1181
   35MOL    H2912337   2.270   2.365   1.253  2.4855  1.2713  0.8487
   35MOL    H3012338   2.164   2.470   1.147 -0.7138  3.2137  0.9045
   35MOL    H3112339   2.190   2.496   1.440  1.5530 -2.0125 -0.9630
   35MOL    H3212340   2.056   2.426   1.365  0.7493 -0.0111  1.3792
   35MOL    H3312341   2.144   2.718   1.324 -2.6704  2.6712  2.0221
   35MOL    H3412342   2.012   2.664   1.229  0.8596 -0.3984  0.0839
   35MOL    H3512343   1.906   2.620   1.481 -0.1020  0.8308  0.7916
   35MOL    H3612344   2.044   2.698   1.533  0.0225 -1.3739 -0.5286
   35MOL    H3712345   1.940   2.789   1.426  0.6131  0.7606  2.5121
   35MOL    C3812346   2.472   2.512   1.321  0.4934  0.3513 -0.4289
   35MOL    C3912347   2.585   2.610   1.357  0.0452  0.2389 -0.3334
   35MOL    C4012348   2.577   2.654   1.505 -0.2891 -0.7547 -0.5455
   35MOL    C4112349   2.464   2.750   1.540  0.0596  0.6295  0.4565
   35MOL    C4212350   2.454   2.883   1.462  0.7338 -0.3409 -0.0303
   35MOL    C4312351   2.591   2.957   1.451  0.3406 -1.0066 -0.2035
   35MOL    H4412352   2.528   2.428   1.283 -0.2985 -0.0710 -0.6814
   35MOL    H4512353   2.430   2.466   1.410  0.3054 -1.8043 -1.6046
   35MOL    H4612354   2.567   2.701   1.300 -2.6020 -1.2243 -1.9752
   35MOL    H4712355   2.575   2.571   1.576  0.6510 -0.5972 -0.3259
   35MOL    H4812356   2.667   2.709   1.535 -1.3647  1.4518 -1.2536
   35MOL    H4912357   2.367   2.700   1.543 -1.0108  2.6255  0.6603
   35MOL    H5012358   2.475   2.774   1.646  0.1375 -1.6114  0.9664
   35MOL    H5112359   2.422   2.862   1.360 -0.0419  1.1442 -0.1117
   35MOL    H5212360   2.375   2.948   1.501  1.6562 -0.0318  1.3420
   35MOL    H5312361   2.678   2.922   1.395 -0.0764 -1.9531 -0.2532
   35MOL    H5412362   2.632   2.965   1.552  1.0244  1.5052 -0.6378
   35MOL    H5512363   2.563   3.056   1.414  0.6071 -0.6212  0.5918
   35MOL    C5612364   2.720   2.549   1.329 -0.9992  0.2767  0.1731
   35MOL    C5712365   2.835   2.649   1.307 -0.2652 -0.2538 -0.2150
   35MOL    C5812366   2.825   2.722   1.169  0.1630  0.2941 -0.1965
   35MOL    C5912367   2.893   2.863   1.157 -0.1279  0.3453  0.0698
   35MOL    C6012368   2.836   2.932   1.038  0.2789 -0.4150  0.2355
   35MOL    C6112369   2.886   3.073   1.007  0.3658  0.2984  0.3527
   35MOL    H6212370   2.742   2.478   1.408 -0.5722 -0.2848 -0.4381
   35MOL    H6312371   2.722   2.486   1.239  2.6792  0.0397  0.3648
   35MOL    H6412372   2.844   2.721   1.388 -1.5634 -1.1211  0.7080
   35MOL    H6512373   2.864   2.664   1.086 -1.5403 -3.1381  1.3252
   35MOL    H6612374   2.717   2.724   1.155 -0.1567 -2.9737  1.3634
   35MOL    H6712375   3.001   2.868   1.145 -0.1098 -2.2868 -1.1702
   35MOL    H6812376   2.876   2.927   1.244 -0.4742  0.5718 -0.1629
   35MOL    H6912377   2.855   2.884   0.942 -2.2894 -0.6942 -0.1607
   35MOL    H7012378   2.727   2.928   1.046  0.1153  2.3881 -0.3426
   35MOL    H7112379   2.843   3.101   0.911  2.1068  2.0219  0.0584
   35MOL    H7212380   2.872   3.158   1.074 -1.1674  0.8972 -0.6952
   35MOL    H7312381   2.993   3.082   0.990  0.5349 -3.1663 -0.7813
   35MOL    C7412382   2.979   2.584   1.312  0.7306  0.2364 -0.3882
   35MOL    C7512383   3.047   2.556   1.445  0.3314  0.6237  0.3517
   35MOL    C7612384   3.037   2.662   1.554 -0.7524 -1.5311 -0.2290
   35MOL    C7712385   3.106   2.794   1.514 -0.3972 -0.2852  0.1366
   35MOL    C7812386   3.074   2.905   1.620  0.1164  0.4970  0.4822
   35MOL    C7912387   2.930   2.962   1.609  0.0490 -0.8012  0.0100
   35MOL    H8012388   2.972   2.494   1.250 -0.1933  0.0677 -0.0369
   35MOL    H8112389   3.050   2.651   1.263  0.6432  1.3977  1.0627
   35MOL    H8212390   3.152   2.541   1.420  0.7394  1.1733  1.6775
   35MOL    H8312391   2.932   2.678   1.579 -0.0354  1.1376  1.1983
   35MOL    H8412392   3.079   2.631   1.650 -2.4498 -0.3952  0.9081
   35MOL    H8512393   3.211   2.765   1.508  0.1560  1.6249  0.2738
   35MOL    H8612394   3.090   2.829   1.412  0.9148  0.5833  0.2139
   35MOL    H8712395   3.148   2.983   1.603 -0.4655  0.4979 -2.3805
   35MOL    H8812396   3.096   2.865   1.719 -0.3965 -0.4713  0.2116
   35MOL    H8912397   2.858   2.901   1.666 -0.4301  1.2738  1.6899
   35MOL    H9012398   2.929   3.058   1.660  0.3412 -0.1228 -1.2419
   35MOL    H9112399   2.901   2.964   1.504  1.3937 -0.0466 -0.3578
   35MOL    C9212400   3.009   2.416   1.508 -0.0630  0.2046  0.5516
   35MOL    C9312401   3.116   2.330   1.573  0.4257 -0.1089 -0.0802
   35MOL    C9412402   3.214   2.293   1.458 -0.4738 -0.1876  0.1052
   35MOL    C9512403   3.287   2.163   1.486 -0.4862  0.9286 -0.2974
   35MOL    C9612404   3.359   2.098   1.365 -0.0914 -0.2819  0.0642
   35MOL    C9712405   3.482   2.180   1.329  0.0565 -0.2925 -0.1628
   35MOL    H9812406   2.930   2.433   1.581  1.0346 -0.2350  1.8781
   35MOL    H9912407   2.966   2.350   1.433  2.0080 -1.5922  0.8797
   35MOL   H10012408   3.072   2.239   1.613  0.1181  1.5648  3.5081
   35MOL   H10112409   3.286   2.372   1.439 -0.5547 -0.5114 -1.6333
   35MOL   H10212410   3.157   2.279   1.366  0.5701 -0.1457 -0.5591
   35MOL   H10312411   3.355   2.174   1.571  1.8225 -2.3150 -1.6166
   35MOL   H10412412   3.214   2.092   1.525 -0.7410  0.5464 -1.4638
   35MOL   H10512413   3.380   1.994   1.392  0.9003  0.5125  2.4705
   35MOL   H10612414   3.286   2.102   1.284  0.3729  0.7721 -0.3141
   35MOL   H10712415   3.563   2.181   1.402  0.4106  0.9483 -0.5705
   35MOL   H10812416   3.537   2.154   1.238  3.5194  3.0278  0.8338
   35MOL   H10912417   3.446   2.282   1.318  0.0808 -0.1335  1.1581
   35MOL   C11012418   3.185   2.387   1.693  0.2630 -0.5223 -0.6100
   35MOL   C11112419   3.101   2.409   1.825  0.5443 -0.0376  0.2055
   35MOL   C11212420   3.192   2.486   1.934  0.7355  0.5474  0.2735
   35MOL   C11312421   3.207   2.634   1.918  0.3113 -0.5402  0.5758
   35MOL   C11412422   3.269   2.702   2.041 -0.7097 -0.4857  0.5916
   35MOL   C11512423   3.257   2.857   2.052 -0.2017 -0.1143 -1.1626
   35MOL   H11612424   3.273   2.332   1.726  1.6997  2.8346  1.3743
   35MOL   H11712425   3.219   2.485   1.658  0.1450 -0.1516  0.2931
   35MOL   H11812426   3.014   2.472   1.810 -0.2014 -0.6871  1.7245
   35MOL   H11912427   3.290   2.437   1.933 -0.2639 -1.4946 -1.3345
   35MOL   H12012428   3.143   2.470   2.030  1.0356  0.3604  0.3996
   35MOL   H12112429   3.106   2.675   1.911  0.2832 -0.4946  1.1679
   35MOL   H12212430   3.254   2.665   1.825 -2.0300 -0.3075 -0.5715
   35MOL   H12312431   3.366   2.658   2.062 -1.6841 -1.8185  2.4235
   35MOL   H12412432   3.219   2.664   2.130  0.3199 -0.4989  1.1793
   35MOL   H12512433   3.344   2.907   2.011  0.5387  0.6254  1.2112
   35MOL   H12612434   3.167   2.897   2.004 -1.9758 -2.9905 -0.4003
   35MOL   H12712435   3.252   2.873   2.160 -3.2756 -3.8243 -0.6209
   35MOL   C12812436   3.051   2.273   1.884 -0.0479 -0.5801 -0.0871
   35MOL   C12912437   2.915   2.261   1.946 -0.3622 -0.5079 -0.3479
   35MOL   C13012438   2.901   2.158   2.062 -0.0596  0.2744  0.2370
   35MOL   C13112439   2.955   2.015   2.025  0.2093  1.0388  0.2683
   35MOL   C13212440   2.935   1.905   2.131  0.6592  0.4357 -0.5115
   35MOL   C13312441   2.978   1.765   2.088  0.7578 -0.5986 -0.1243
   35MOL   H13412442   3.126   2.248   1.959  0.3948 -1.2164 -0.7251
   35MOL   H13512443   3.063   2.196   1.807 -1.7899 -0.9869  0.0448
   35MOL   H13612444   2.893   2.360   1.986  1.3794  0.4507 -1.7030
   35MOL   H13712445   2.961   2.180   2.150 -2.0106 -1.1309  1.9681
   35MOL   H13812446   2.805   2.145   2.111  1.6047  1.3577  3.9618
   35MOL   H13912447   3.059   2.022   1.992 -0.3605  1.1034 -1.5346
   35MOL   H14012448   2.883   1.997   1.946 -1.6803 -1.9342  2.5755
   35MOL   H14112449   2.998   1.934   2.214  0.2827 -1.0072  0.2864
   35MOL   H14212450   2.833   1.902   2.171  1.1833 -0.3305  0.7697
   35MOL   H14312451   2.941   1.698   2.165  0.9001 -0.5622 -0.0230
   35MOL   H14412452   3.086   1.748   2.086  0.5871 -1.7655  0.3248
   35MOL   H14512453   2.942   1.745   1.987  1.1312  1.9003 -0.7893
   35MOL   C14612454   2.805   2.233   1.834  0.1639 -0.0495 -0.1565
   35MOL   C14712455   2.659   2.255   1.888 -0.0522 -0.3839  0.2614
   35MOL   C14812456   2.567   2.190   1.780  0.3998  0.5760  0.4199
   35MOL   C14912457   2.580   2.035   1.759 -0.3112 -0.1673  0.4973
   35MOL   C15012458   2.467   1.974   1.675  0.7753  0.7237  0.6105
   35MOL   C15112459   2.488   1.819   1.651  0.2923 -0.3230  0.1256
   35MOL   H15212460   2.825   2.296   1.748 -0.0547  2.0124  1.2412
   35MOL   H15312461   2.818   2.131   1.798  1.6250  0.1036 -0.0800
   35MOL   H15412462   2.645   2.197   1.979  0.3296 -0.5364  0.2280
   35MOL   H15512463   2.578   2.241   1.684  1.5160  0.5167  0.5071
   35MOL   H15612464   2.465   2.209   1.813 -0.2958 -1.6388 -0.3349
   35MOL   H15712465   2.667   2.015   1.696 -0.5795  0.3813 -0.0444
   35MOL   H15812466   2.582   1.980   1.853 -1.0714  0.4047  0.8443
   35MOL   H15912467   2.459   2.031   1.583 -0.6245  2.2033  1.6137
   35MOL   H16012468   2.372   1.987   1.727 -0.1171 -3.8278  0.2992
   35MOL   H16112469   2.581   1.807   1.596 -0.0309  1.6799 -0.9131
   35MOL   H16212470   2.494   1.766   1.745  0.9341  1.4740  1.1175
   35MOL   H16312471   2.408   1.771   1.594  1.7476 -2.0799 -0.4713
   35MOL   C16412472   2.630   2.412   1.918  0.5502 -0.3707 -0.5328
   35MOL   C16512473   2.492   2.446   1.983  0.4571 -0.1207  0.2641
   35MOL   C16612474   2.391   2.479   1.876 -0.3672  0.5925 -0.3032
   35MOL   C16712475   2.268   2.566   1.913 -0.4766 -0.1644 -0.2676
   35MOL   C16812476   2.186   2.617   1.800 -0.3210  1.1430 -0.0202
   35MOL   C16912477   2.057   2.684   1.855 -0.2908  0.4477  0.2589
   35MOL   H17012478   2.710   2.460   1.974 -0.7871  1.6605 -0.3265
   35MOL   H17112479   2.642   2.466   1.824 -2.9138  1.0957 -0.2050
   35MOL   H17212480   2.515   2.530   2.049 -0.4343 -0.6071  1.2253
   35MOL   H17312481   2.348   2.384   1.842 -0.6279  0.1501  1.2397
   35MOL   H17412482   2.444   2.514   1.788  3.3090 -2.4552  0.5687
   35MOL   H17512483   2.304   2.659   1.956  0.8983 -0.0791 -1.5245
   35MOL   H17612484   2.201   2.512   1.979  0.0548  1.1021  1.3247
   35MOL   H17712485   2.160   2.532   1.738 -0.3289  1.6972 -0.7893
   35MOL   H17812486   2.244   2.682   1.734 -1.4471  2.8672  0.6411
   35MOL   H17912487   1.989   2.718   1.776 -1.6844 -1.2800  0.6944
   35MOL   H18012488   2.062   2.776   1.913  0.3804  0.4199  0.2489
   35MOL   H18112489   1.994   2.614   1.910 -1.7722  1.6758  0.1815
   35MOL   C18212490   2.440   2.339   2.085  0.0308 -0.1640 -0.8924
   35MOL   C18312491   2.526   2.311   2.216 -0.3239  0.0484 -0.7547
   35MOL   C18412492   2.479   2.180   2.290  0.5463 -0.1683 -0.3964
   35MOL   C18512493   2.539   2.050   2.227 -0.3113 -0.2427  0.2103
   35MOL   C18612494   2.519   1.922   2.312 -0.0824 -0.3172 -0.3615
   35MOL   C18712495   2.370   1.878   2.291 -0.0795 -0.4579  0.0049
   35MOL   H18812496   2.353   2.381   2.135  1.2390  1.2182  0.0793
   35MOL   H18912497   2.417   2.241   2.044 -0.2827 -0.6902  0.5246
   35MOL   H19012498   2.628   2.288   2.183 -0.9042 -0.9430 -1.8968
   35MOL   H19112499   2.527   2.194   2.387  2.5443 -2.3357 -1.0431
   35MOL   H19212500   2.371   2.174   2.309  0.6367  0.5164  0.3427
   35MOL   H19312501   2.644   2.068   2.204  0.1668  0.7110  2.9473
   35MOL   H19412502   2.493   2.028   2.131  0.4027  0.5288 -0.3163
   35MOL   H19512503   2.537   1.952   2.416 -0.1822 -0.4944 -0.2932
   35MOL   H19612504   2.590   1.843   2.288 -0.7985 -1.5653  1.5544
   35MOL   H19712505   2.332   1.890   2.189  0.3682 -1.0040 -0.2270
   35MOL   H19812506   2.305   1.906   2.374  0.0042 -0.9101  0.2244
   35MOL   H19912507   2.377   1.769   2.296  1.3178 -0.4807 -1.9166
   35MOL   C20012508   2.510   2.435   2.310  0.2388 -0.0778  0.1513
   35MOL   C20112509   2.625   2.462   2.403 -0.6057 -0.0660 -0.0775
   35MOL   C20212510   2.742   2.520   2.318  0.2516 -0.6840 -0.4010
   35MOL   C20312511   2.876   2.506   2.388 -0.8618  0.1900 -0.3438
   35MOL   C20412512   3.011   2.525   2.304  0.5896 -0.2471  0.1635
   35MOL   C20512513   3.141   2.499   2.387 -0.2872  0.0310 -0.5633
   35MOL   H20612514   2.410   2.426   2.351  0.3612  1.0934  0.7181
   35MOL   H20712515   2.494   2.526   2.254  0.5931  1.0512  1.8324
   35MOL   H20812516   2.674   2.379   2.454  0.5572  0.1610 -0.8022
   35MOL   H20912517   2.725   2.622   2.283 -3.1440 -1.0149  0.1497
   35MOL   H21012518   2.751   2.462   2.226 -1.1428 -1.7693  0.1364
   35MOL   H21112519   2.871   2.407   2.431 -3.6447  1.1758  1.6784
   35MOL   H21212520   2.882   2.581   2.466 -0.4800 -1.0494  0.8277
   35MOL   H21312521   3.006   2.628   2.267 -1.0743  0.0514  1.1446
   35MOL   H21412522   3.003   2.451   2.225 -1.0159 -0.2587  0.3188
   35MOL   H21512523   3.146   2.576   2.463 -2.8487  0.4609 -0.8121
   35MOL   H21612524   3.148   2.406   2.444 -1.9312  0.9928  1.2213
   35MOL   H21712525   3.233   2.523   2.332  0.7936 -1.2909  0.6316
   35MOL   C21812526   2.592   2.553   2.525  0.3663 -0.2505 -0.2927
   35MOL   C21912527   2.509   2.481   2.635 -0.7231 -0.1562 -0.1341
   35MOL   C22012528   2.360   2.523   2.625 -0.1474  0.3320  0.7551
   35MOL   C22112529   2.268   2.431   2.690 -0.0199 -0.0119  0.5165
   35MOL   C22212530   2.256   2.295   2.622  0.6713 -0.6622 -0.6011
   35MOL   C22312531   2.121   2.218   2.655  0.1353 -0.9031  0.3154
   35MOL   H22412532   2.685   2.589   2.570  1.1890 -2.0543 -0.4899
   35MOL   H22512533   2.536   2.633   2.478  1.6985  0.7784 -0.1553
   35MOL   H22612534   2.507   2.373   2.620 -1.0199 -0.6203  2.9530
   35MOL   H22712535   2.337   2.541   2.520  0.6886  0.3709  0.5718
   35MOL   H22812536   2.353   2.625   2.663 -1.6292  0.7230 -0.5272
   35MOL   H22912537   2.169   2.475   2.687 -0.7096 -1.5136  0.6155
   35MOL   H23012538   2.290   2.418   2.797  2.7866 -1.2638 -0.1637
   35MOL   H23112539   2.265   2.311   2.515  1.4567 -1.7298 -0.6988
   35MOL   H23212540   2.336   2.228   2.654 -0.2372 -0.2336  2.7845
   35MOL   H23312541   2.106   2.229   2.762 -1.5289  0.8871 -0.0684
   35MOL   H23412542   2.116   2.123   2.601 -2.4774  1.3376 -3.6751
   35MOL   H23512543   2.032   2.274   2.623 -0.6362 -0.7412  2.6682
   35MOL   C23612544   2.577   2.503   2.776  1.1784 -0.1327  0.2182
   35MOL   C23712545   2.684   2.397   2.816 -0.3561  0.0619 -0.1777
   35MOL   C23812546   2.611   2.262   2.845  0.8540  0.9233  0.3940
   35MOL   C23912547   2.664   2.136   2.777 -0.0023  0.3408 -0.3826
   35MOL   C24012548   2.594   2.005   2.813  0.2742 -0.3046 -0.4784
   35MOL   C24112549   2.644   1.887   2.729 -0.4952 -0.1680  0.1849
   35MOL   H24212550   2.615   2.605   2.779  2.1229 -0.5017  0.8572
   35MOL   H24312551   2.498   2.492   2.850  0.2632 -1.3988 -0.9147
   35MOL   H24412552   2.749   2.391   2.729  0.2354 -0.8635  0.3156
   35MOL   H24512553   2.598   2.248   2.952 -0.0907  0.7955  0.2686
   35MOL   H24612554   2.508   2.272   2.810  0.3673  0.1392  1.6066
   35MOL   H24712555   2.769   2.113   2.794  0.7381  3.5068 -0.5350
   35MOL   H24812556   2.662   2.164   2.671  0.3664 -0.7620 -0.6900
   35MOL   H24912557   2.626   1.989   2.916 -1.6866 -1.1184  0.0397
   35MOL   H25012558   2.485   2.010   2.815  0.3397  0.8959  2.4898
   35MOL   H25112559   2.592   1.791   2.737  0.0774 -0.3347  2.0973
   35MOL   H25212560   2.627   1.907   2.623  0.5940  0.8655  0.1981
   35MOL   H25312561   2.751   1.867   2.733 -0.8684 -2.3151 -0.0445
   35MOL   C25412562   2.775   2.447   2.935  0.8824  0.1901  0.5401
   35MOL   C25512563   2.902   2.373   2.964 -0.0890 -0.2764 -0.3036
   35MOL   C25612564   2.987   2.343   2.834  0.6479  0.7998 -0.3211
   35MOL   C25712565   3.020   2.463   2.749 -0.0343  0.0038 -0.2079
   35MOL   C25812566   3.091   2.572   2.822 -0.0173  0.5084  0.2125
   35MOL   C25912567   3.167   2.667   2.726 -0.5157 -0.1691  0.2551
   35MOL   H26012568   2.729   2.470   3.031  0.5646  0.0239  0.4288
   35MOL   H26112569   2.804   2.547   2.903 -1.7106  0.5417 -0.8567
   35MOL   H26212570   2.970   2.446   3.008  2.5850 -1.3665 -2.4351
   35MOL   H26312571   3.083   2.295   2.856 -1.8039 -3.1742  2.3474
   35MOL   H26412572   2.948   2.258   2.777  2.1672  0.5189 -0.9729
   35MOL   H26512573   3.098   2.431   2.680  1.7085 -0.3898  1.8710
   35MOL   H26612574   2.936   2.514   2.702  0.3308  0.1563 -0.6972
   35MOL   H26712575   3.161   2.535   2.897 -0.0149 -1.9010 -0.9549
   35MOL   H26812576   3.005   2.616   2.873 -1.5966  1.1055 -2.8211
   35MOL   H26912577   3.206   2.760   2.767 -0.0698  0.0705 -0.7021
   35MOL   H27012578   3.106   2.702   2.643 -1.8336 -0.5889  1.0402
   35MOL   H27112579   3.254   2.608   2.697 -1.1046 -0.9733  0.0991
   35MOL   C27212580   2.886   2.258   3.058 -0.0271 -0.3618  0.4293
   35MOL   C27312581   3.010   2.176   3.095  0.2520  0.0861  0.6414
   35MOL   C27412582   2.973   2.047   3.162  0.1859 -0.0124 -0.7291
   35MOL   C27512583   2.887   1.952   3.073  0.0186  0.3240  0.3246
   35MOL   C27612584   2.913   1.810   3.128  0.1814  0.2550  0.3111
   35MOL   C27712585   2.804   1.715   3.077  0.2410 -0.0708  0.1466
   35MOL   H27812586   2.847   2.314   3.143 -1.7931  0.4712 -0.8840
   35MOL   H27912587   2.805   2.198   3.016 -0.0946  1.2164 -1.8229
   35MOL   H28012588   3.058   2.146   3.002  0.0578  1.8316 -0.0428
   35MOL   H28112589   2.921   2.054   3.257  0.2698 -0.4284 -0.6527
   35MOL   H28212590   3.072   2.007   3.180  0.0625  0.0000  0.0030
   35MOL   H28312591   2.907   1.953   2.966 -0.8794  1.0915  0.1624
   35MOL   H28412592   2.784   1.977   3.099 -0.9439 -1.9213 -1.1897
   35MOL   H28512593   3.012   1.776   3.098  1.5436  1.7330  3.0061
   35MOL   H28612594   2.909   1.798   3.236  2.4688 -0.9361  0.3061
   35MOL   H28712595   2.802   1.631   3.146  0.5940  0.7387  1.1414
   35MOL   H28812596   2.700   1.749   3.079  0.5479  0.9582 -0.7943
   35MOL   H28912597   2.833   1.682   2.977 -0.9018 -2.4398  0.5507
   35MOL   C29012598   3.101   2.269   3.180  0.6591  0.8250  0.3167
   35MOL   C29112599   3.225   2.330   3.110  0.3311  0.5750  0.1909
   35MOL   C29212600   3.290   2.438   3.206  0.7494 -0.1334 -0.3444
   35MOL   C29312601   3.207   2.563   3.238 -0.2781  0.4387  0.0344
   35MOL   C29412602   3.256   2.633   3.364  0.0220  0.5544  0.3642
   35MOL   C29512603   3.199   2.582   3.502  0.2830  0.7376  0.1641
   35MOL   H29612604   3.132   2.208   3.264  0.3533 -1.9323 -1.5072
   35MOL   H29712605   3.038   2.347   3.224 -3.2473 -0.3211 -2.8820
   35MOL   H29812606   3.199   2.382   3.018  2.2175 -0.9440 -1.2579
   35MOL   H29912607   3.382   2.476   3.161  0.8834  0.9573  0.8313
   35MOL   H30012608   3.320   2.395   3.301  0.9298  2.2584  0.7082
   35MOL   H30112609   3.208   2.638   3.158  0.7718  1.8247  1.3227
   35MOL   H30212610   3.101   2.541   3.252 -0.2731 -0.0573 -0.6589
   35MOL   H30312611   3.236   2.739   3.349  0.8786  0.7317  0.4325
   35MOL   H30412612   3.365   2.619   3.365 -0.3584 -2.8369  0.1867
   35MOL   H30512613   3.202   2.668   3.569  0.7736 -0.2802  1.4848
   35MOL   H30612614   3.252   2.496   3.543  2.0920  1.6449 -0.1916
   35MOL   H30712615   3.096   2.550   3.490 -0.5540  2.4122  2.6251
   35MOL   C30812616   3.325   2.213   3.079 -0.2497  0.5690 -0.2275
   35MOL   C30912617   3.443   2.263   2.994 -0.8608  0.0858  0.2772
   35MOL   C31012618   3.407   2.234   2.839  0.6205  0.1453  0.1311
   35MOL   C31112619   3.490   2.308   2.733  0.2318  0.1187 -0.3192
   35MOL   C31212620   3.470   2.262   2.581 -0.7427 -0.5449 -0.0918
   35MOL   C31312621   3.523   2.352   2.470 -0.3660  0.8697  0.4575
   35MOL   H31412622   3.355   2.174   3.176  1.3884 -0.7415 -1.2464
   35MOL   H31512623   3.274   2.130   3.030 -0.2249  0.0566  0.5907
   35MOL   H31612624   3.459   2.370   2.979  2.3731 -0.4176 -0.2310
   35MOL   H31712625   3.301   2.256   2.824  0.5913  0.7123  1.1021
   35MOL   H31812626   3.406   2.127   2.817 -1.2551  0.4822 -1.5711
   35MOL   H31912627   3.596   2.293   2.756 -0.1922 -3.6269 -0.4024
   35MOL   H32012628   3.456   2.411   2.735 -0.8840 -0.2635  1.5773
   35MOL   H32112629   3.526   2.169   2.570  0.3841 -0.2663  2.8855
   35MOL   H32212630   3.366   2.232   2.567 -1.0674  0.9373 -1.0829
   35MOL   H32312631   3.510   2.299   2.375 -0.0721 -0.1065  0.9507
   35MOL   H32412632   3.629   2.375   2.474 -0.1444  1.3873 -5.0966
   35MOL   H32512633   3.467   2.444   2.456 -0.0750  1.0772  0.6719
   35MOL   C32612634   3.571   2.186   3.024 -0.3471  0.7399  0.1343
   35MOL   C32712635   3.624   2.223   3.164  0.1584 -0.1762 -0.5155
   35MOL   C32812636   3.738   2.127   3.215 -0.2584 -0.2200 -0.2048
   35MOL   C32912637   3.690   1.985   3.251  0.2601  0.3244 -0.2943
   35MOL   C33012638   3.774   1.897   3.341  0.0359  0.1627 -0.0875
   35MOL   C33112639   3.714   1.757   3.350 -0.4638  0.2830 -0.3514
   35MOL   H33212640   3.635   2.211   2.939 -0.7894  0.1989 -0.3598
   35MOL   H33312641   3.549   2.080   3.019  0.9405  0.5478 -1.9537
   35MOL   H33412642   3.542   2.217   3.235  1.8570  1.2662  1.6342
   35MOL   H33512643   3.823   2.116   3.148 -0.8492  0.6504 -1.1150
   35MOL   H33612644   3.795   2.169   3.298 -2.1249 -1.5105  1.8043
   35MOL   H33712645   3.664   1.928   3.162  1.6150 -0.9211  0.0837
   35MOL   H33812646   3.595   1.980   3.305 -0.5820  0.1178 -1.7890
   35MOL   H33912647   3.873   1.887   3.295  0.7501 -0.1959  1.4852
   35MOL   H34012648   3.790   1.952   3.433 -0.3490  1.6802 -0.9053
   35MOL   H34112649   3.786   1.686   3.390 -2.0082 -1.4348 -0.5635
   35MOL   H34212650   3.692   1.719   3.250 -0.3229  0.8111 -0.5923
   35MOL   H34312651   3.622   1.756   3.408 -0.3730 -1.6529 -0.2392
   35MOL   C34412652   3.689   2.363   3.165  0.7058  0.9131  0.0917
   35MOL   C34512653   3.667   2.437   3.300 -0.4412 -0.2027 -0.2315
   35MOL   C34612654   3.727   2.580   3.299  0.4790  0.4305 -0.2356
   35MOL   C34712655   3.658   2.678   3.203  0.5191 -0.5235 -0.1901
   35MOL   C34812656   3.710   2.818   3.217 -0.0304 -0.6975  0.5541
   35MOL   C34912657   3.841   2.854   3.156  0.5786  0.1142 -0.0236
   35MOL   H35012658   3.793   2.372   3.133  0.6887  0.8043  0.0061
   35MOL   H35112659   3.644   2.423   3.087  2.4524  1.9846 -0.1290
   35MOL   H35212660   3.701   2.371   3.380 -1.3171  0.0604  0.3549
   35MOL   H35312661   3.710   2.609   3.402 -1.5991  0.2311 -0.4866
   35MOL   H35412662   3.833   2.581   3.277 -0.0069 -0.1159 -2.7740
   35MOL   H35512663   3.665   2.650   3.097  2.7240  0.4642 -0.3240
   35MOL   H35612664   3.550   2.679   3.223  0.5894 -1.7132  0.2836
   35MOL   H35712665   3.640   2.882   3.164  0.7404  0.6792  1.1723
   35MOL   H35812666   3.714   2.856   3.320  0.3803  0.5690  0.0788
   35MOL   H35912667   3.837   2.962   3.148  1.2967  0.1118 -0.4550
   35MOL   H36012668   3.930   2.806   3.196 -0.3725 -0.9099  0.9281
   35MOL   H36112669   3.845   2.827   3.051  2.3364 -0.1262  0.0906
   35MOL   H36212670   3.560   2.445   3.313 -0.0603  0.2398  2.9911
   36MOL     C112671   5.105   0.772   4.456  0.0014 -0.6399 -0.8769
   36MOL     C212672   5.211   0.664   4.469  0.0981  0.0690 -1.3440
   36MOL     C312673   5.313   0.670   4.359  0.9516  0.0486 -0.0305
   36MOL     C412674   5.423   0.786   4.375  0.5949  0.2989 -0.6538
   36MOL     C512675   5.487   0.814   4.241  0.5122 -0.0003  0.8835
   36MOL     C612676   5.394   0.924   4.173  0.4688  0.3180 -0.4007
   36MOL     H712677   5.029   0.780   4.533  1.6593 -0.0826  0.7331
   36MOL     H812678   5.156   0.868   4.455 -0.2182 -0.5208 -0.6051
   36MOL     H912679   5.251   0.686   4.568 -1.3387  0.3026 -0.8066
   36MOL    H1012680   5.262   0.687   4.263  1.7950 -2.7345 -1.0069
   36MOL    H1112681   5.367   0.578   4.336  1.3337  0.6435 -1.6307
   36MOL    H1212682   5.500   0.747   4.442 -1.1131 -2.1829 -0.0437
   36MOL    H1312683   5.369   0.866   4.425  1.3732 -0.5436  1.6157
   36MOL    H1412684   5.590   0.847   4.254  0.0008  1.1496  2.2488
   36MOL    H1512685   5.476   0.729   4.175 -3.2816  0.6491  0.5286
   36MOL    H1612686   5.396   1.017   4.230 -2.8142 -0.3682  0.9685
   36MOL    H1712687   5.289   0.900   4.157  0.7184 -0.1459 -1.3710
   36MOL    H1812688   5.435   0.958   4.078  1.5715  0.8383  0.2568
   36MOL    H1912689   5.047   0.778   4.364 -2.9026  1.2382  0.9858
   36MOL    C2012690   5.142   0.529   4.482 -0.7364  0.1615 -0.3688
   36MOL    C2112691   5.229   0.400   4.505 -0.3620  0.0227 -0.3719
   36MOL    C2212692   5.315   0.409   4.632  0.3524 -0.5318 -0.2943
   36MOL    C2312693   5.398   0.278   4.663  0.2475 -0.1373  0.1942
   36MOL    C2412694   5.492   0.294   4.773  0.0876 -0.4123 -0.0390
   36MOL    C2512695   5.569   0.169   4.804 -0.1851  0.5527 -0.3582
   36MOL    H2612696   5.076   0.521   4.396 -0.0360  3.2981 -1.2680
   36MOL    H2712697   5.070   0.537   4.563  1.0635  0.8394  1.1957
   36MOL    H2812698   5.307   0.399   4.429  1.2977 -0.2876  1.3063
   36MOL    H2912699   5.255   0.435   4.719  0.1349 -2.5868  0.1852
   36MOL    H3012700   5.380   0.495   4.612 -1.6095  0.9458 -0.4411
   36MOL    H3112701   5.437   0.249   4.565  2.4493  1.6405  0.5194
   36MOL    H3212702   5.321   0.203   4.680  0.1222  0.3510  1.8210
   36MOL    H3312703   5.564   0.375   4.759 -1.1856  1.2442  2.5579
   36MOL    H3412704   5.436   0.319   4.863  0.3743  0.3068 -0.0571
   36MOL    H3512705   5.655   0.205   4.861 -1.2405 -1.2278  2.4778
   36MOL    H3612706   5.512   0.088   4.850 -1.0099  1.3869  0.1058
   36MOL    H3712707   5.603   0.132   4.707 -0.9515  2.0659 -1.2150
   36MOL    C3812708   5.145   0.273   4.486  0.3203  0.3023  0.0249
   36MOL    C3912709   5.047   0.273   4.358 -0.4544  0.1262 -0.6888
   36MOL    C4012710   5.125   0.295   4.222 -0.1490 -0.7469  0.5761
   36MOL    C4112711   5.035   0.344   4.102  0.0285  0.1319  0.0426
   36MOL    C4212712   5.123   0.395   3.997 -0.1234 -0.1236 -0.9310
   36MOL    C4312713   5.043   0.463   3.893 -0.1559  0.1614  0.2823
   36MOL    H4412714   5.081   0.249   4.570  1.7414  0.8707  1.3011
   36MOL    H4512715   5.209   0.191   4.453  0.0933 -0.8357  2.3761
   36MOL    H4612716   4.973   0.349   4.382  0.1558  0.6367 -0.4200
   36MOL    H4712717   5.191   0.378   4.249  1.7281 -1.6508 -1.0892
   36MOL    H4812718   5.169   0.198   4.202 -0.2798 -1.2976  2.8703
   36MOL    H4912719   4.976   0.268   4.050 -0.8755  0.7151  0.2088
   36MOL    H5012720   4.975   0.431   4.130 -1.6182 -1.0264  0.2114
   36MOL    H5112721   5.188   0.473   4.037 -0.1331  0.2343 -1.6118
   36MOL    H5212722   5.181   0.313   3.956 -0.2522 -0.8025  0.2151
   36MOL    H5312723   4.963   0.411   3.839 -1.7842  2.2911  0.5975
   36MOL    H5412724   5.111   0.498   3.815 -2.3872 -0.1877 -1.8767
   36MOL    H5512725   4.988   0.550   3.928  0.2809  0.3737  0.4432
   36MOL    C5612726   4.967   0.141   4.343  0.2226  0.3466  0.6396
   36MOL    C5712727   4.887   0.087   4.459  0.0919 -0.1784 -0.0558
   36MOL    C5812728   4.825   7.684   4.413 -0.4894 -0.3101 -0.1733
   36MOL    C5912729   4.792   7.596   4.536  0.0386 -0.0243  0.0410
   36MOL    C6012730   4.696   7.478   4.500 -0.4290 -1.1314 -0.4560
   36MOL    C6112731   4.552   7.516   4.464 -0.1185  0.0055 -0.1523
   36MOL    H6212732   4.904   0.142   4.254 -0.7903  1.4511  1.3466
   36MOL    H6312733   5.036   0.063   4.313 -0.1478  1.0331 -2.1557
   36MOL    H6412734   4.957   0.067   4.540  0.1244  0.4546  0.0788
   36MOL    H6512735   4.732   7.710   4.362 -1.5020  0.1342  1.8760
   36MOL    H6612736   4.882   7.632   4.336  0.8889  1.9015 -0.6656
   36MOL    H6712737   4.745   7.652   4.617 -0.8855 -0.7713  0.0332
   36MOL    H6812738   4.885   7.553   4.571  0.3900 -0.4823 -1.4221
   36MOL    H6912739   4.740   7.409   4.428 -0.4904 -0.6127 -0.9892
   36MOL    H7012740   4.687   7.417   4.590  1.6129 -0.0921  0.4950
   36MOL    H7112741   4.481   7.433   4.473  1.6815 -1.5596 -0.1800
   36MOL    H7212742   4.532   7.600   4.532 -1.6630  2.0469 -3.0303
   36MOL    H7312743   4.551   7.552   4.362  1.4296  0.1681 -0.1139
   36MOL    C7412744   4.779   0.183   4.504 -0.5739  0.5258 -0.0098
   36MOL    C7512745   4.816   0.285   4.615  0.4107 -0.0490  0.2517
   36MOL    C7612746   4.705   0.394   4.619 -0.0050 -1.1408 -0.7213
   36MOL    C7712747   4.582   0.373   4.705  0.6861  0.4915 -0.7900
   36MOL    C7812748   4.489   0.496   4.718  0.2681  0.3715 -0.9141
   36MOL    C7912749   4.396   0.490   4.841  0.5234  0.1060 -0.1912
   36MOL    H8012750   4.762   0.242   4.414  0.0973  1.5651  0.5233
   36MOL    H8112751   4.687   0.130   4.527 -0.9212  0.2217 -2.0039
   36MOL    H8212752   4.912   0.333   4.593 -0.0279  1.1242  0.8879
   36MOL    H8312753   4.752   0.488   4.650 -0.7643 -0.9665 -0.0808
   36MOL    H8412754   4.670   0.431   4.523 -0.4565  3.5999  1.1281
   36MOL    H8512755   4.520   0.293   4.664  0.5866  0.6342 -0.9212
   36MOL    H8612756   4.606   0.345   4.808  0.0502  2.6858 -0.0077
   36MOL    H8712757   4.425   0.512   4.631 -1.5864  0.8840  0.5130
   36MOL    H8812758   4.555   0.583   4.717  0.0831  0.5699  1.0746
   36MOL    H8912759   4.351   0.391   4.841 -0.4025  0.5159  1.2371
   36MOL    H9012760   4.440   0.503   4.940 -1.6749 -0.8061  0.9390
   36MOL    H9112761   4.309   0.557   4.845  1.5330  1.4196  0.2654
   36MOL    C9212762   4.842   0.213   4.750  0.6640 -0.0486 -0.1385
   36MOL    C9312763   4.875   0.303   4.871 -0.8467 -0.3417 -0.2790
   36MOL    C9412764   4.841   0.226   5.006 -0.6269 -0.1010  0.1602
   36MOL    C9512765   4.692   0.198   5.036 -0.6399  0.2499 -0.0798
   36MOL    C9612766   4.659   0.150   5.178 -0.4036 -0.0450 -0.1198
   36MOL    C9712767   4.503   0.131   5.196  0.2641  0.5174  0.1416
   36MOL    H9812768   4.757   0.151   4.776 -0.5468  1.1536 -1.1601
   36MOL    H9912769   4.930   0.149   4.743  0.6586 -0.0906  0.1733
   36MOL   H10012770   4.809   0.390   4.869  0.2124  0.4505 -1.6807
   36MOL   H10112771   4.875   0.288   5.090 -0.8459  1.2682 -0.7443
   36MOL   H10212772   4.894   0.131   5.002  2.0006  1.3413 -0.9301
   36MOL   H10312773   4.645   0.296   5.023  1.5026  1.1775 -1.1110
   36MOL   H10412774   4.654   0.124   4.966 -0.8068  1.5111 -1.3661
   36MOL   H10512775   4.705   0.052   5.193 -1.3322 -0.6280 -1.0876
   36MOL   H10612776   4.701   0.222   5.249 -1.6709  0.5079  0.0856
   36MOL   H10712777   4.446   0.223   5.193 -0.0788  0.3735  1.8812
   36MOL   H10812778   4.454   0.083   5.111 -0.6068 -0.2406  1.0620
   36MOL   H10912779   4.482   0.077   5.288  0.6752 -1.8052 -1.0815
   36MOL   C11012780   5.020   0.357   4.871 -0.0037  0.0705 -0.1428
   36MOL   C11112781   5.020   0.503   4.936 -0.1073  0.3678  0.1198
   36MOL   C11212782   4.984   0.611   4.832 -0.4942  0.6413 -0.3234
   36MOL   C11312783   4.865   0.698   4.878 -0.3314 -0.0462  0.0338
   36MOL   C11412784   4.841   0.809   4.778  0.1447 -0.2555  1.1829
   36MOL   C11512785   4.703   0.877   4.783  0.3044 -0.1719 -0.8883
   36MOL   H11612786   5.095   0.291   4.915  0.3257  1.4755  1.4305
   36MOL   H11712787   5.054   0.369   4.768 -1.1768  1.8475 -0.3370
   36MOL   H11812788   4.953   0.498   5.022 -0.3427 -3.5440 -0.1695
   36MOL   H11912789   4.961   0.556   4.741  0.1966 -1.5395  0.7728
   36MOL   H12012790   5.067   0.676   4.804 -0.8407  0.7904 -1.0221
   36MOL   H12112791   4.873   0.740   4.978 -0.0119 -3.3841  1.4929
   36MOL   H12212792   4.775   0.636   4.879  0.1751 -0.7954 -0.5999
   36MOL   H12312793   4.841   0.769   4.676 -0.0216  0.5085  0.8800
   36MOL   H12412794   4.919   0.885   4.778 -1.6449  1.6491 -0.0138
   36MOL   H12512795   4.702   0.981   4.751 -1.6295  0.6006  1.5130
   36MOL   H12612796   4.628   0.828   4.720  0.3418 -1.8434  0.3270
   36MOL   H12712797   4.675   0.876   4.888  2.1558  0.9033 -0.3531
   36MOL   C12812798   5.155   0.531   5.008 -0.0943 -0.3610  0.4457
   36MOL   C12912799   5.153   0.653   5.090 -0.0133  0.6651 -0.5325
   36MOL   C13012800   5.282   0.740   5.063 -0.1550  0.0501  0.6185
   36MOL   C13112801   5.304   0.794   4.924 -0.0895 -0.4595  0.2256
   36MOL   C13212802   5.448   0.829   4.893  0.7588 -0.4839 -0.4463
   36MOL   C13312803   5.472   0.855   4.744  0.2556  0.2527 -0.7848
   36MOL   H13412804   5.230   0.536   4.929  0.1938 -0.4519  0.7124
   36MOL   H13512805   5.179   0.443   5.066 -1.6180  0.7619  2.8536
   36MOL   H13612806   5.068   0.713   5.058 -0.8294 -0.2822 -0.1350
   36MOL   H13712807   5.284   0.821   5.136  1.8879  1.8591 -1.3911
   36MOL   H13812808   5.364   0.674   5.093  1.8379  2.3911  0.3956
   36MOL   H13912809   5.242   0.882   4.905  0.5597 -0.4496 -1.9555
   36MOL   H14012810   5.263   0.730   4.847 -0.2703 -0.8139  0.6148
   36MOL   H14112811   5.478   0.916   4.952  1.3692 -0.9849 -0.0160
   36MOL   H14212812   5.507   0.746   4.930  1.9558 -0.2794 -1.8650
   36MOL   H14312813   5.453   0.767   4.682 -0.3553 -0.9511  1.0834
   36MOL   H14412814   5.575   0.892   4.735  1.2878 -1.6810  2.3348
   36MOL   H14512815   5.409   0.936   4.708  1.0214  1.2650  0.1333
   36MOL   C14612816   5.124   0.631   5.244  0.1189 -0.0796  0.2990
   36MOL   C14712817   5.003   0.543   5.289 -0.3151  0.4681  0.0647
   36MOL   C14812818   4.869   0.623   5.270  0.4025 -0.0813 -0.3633
   36MOL   C14912819   4.746   0.533   5.258 -0.0634 -0.1495  0.9733
   36MOL   C15012820   4.611   0.619   5.265  0.0630  0.0355 -0.4661
   36MOL   C15112821   4.484   0.531   5.238  0.2777  0.3933 -0.0580
   36MOL   H15212822   5.208   0.575   5.284  0.4135 -0.2164 -0.5201
   36MOL   H15312823   5.125   0.722   5.303  1.1908 -0.0223  0.1863
   36MOL   H15412824   5.013   0.454   5.227  0.3341  1.0568 -0.6838
   36MOL   H15512825   4.876   0.678   5.177 -3.0891 -0.1790 -0.7395
   36MOL   H15612826   4.851   0.699   5.346  1.2367 -0.8717  0.6466
   36MOL   H15712827   4.751   0.487   5.159  3.5056  0.1489  0.9468
   36MOL   H15812828   4.755   0.448   5.326  0.5579  0.3560  1.5335
   36MOL   H15912829   4.617   0.698   5.189 -0.4911  0.4192 -0.1178
   36MOL   H16012830   4.588   0.668   5.360 -1.2572 -1.4906  0.0072
   36MOL   H16112831   4.478   0.474   5.146 -0.5946  0.9448 -0.3492
   36MOL   H16212832   4.468   0.447   5.307 -1.0219 -0.2378 -1.1045
   36MOL   H16312833   4.393   0.587   5.258 -0.8328 -0.7745 -1.6440
   36MOL   C16412834   5.006   0.501   5.435 -0.0461 -0.4464 -0.0506
   36MOL   C16512835   5.111   0.390   5.468  0.3330  0.3879  0.3625
   36MOL   C16612836   5.155   0.381   5.617  0.2466 -0.0481  0.0732
   36MOL   C16712837   5.180   0.511   5.684  0.2910 -0.1704 -0.7332
   36MOL   C16812838   5.226   0.498   5.827 -0.2247 -0.1117 -0.0872
   36MOL   C16912839   5.267   0.633   5.884  0.0319  0.5420 -0.6129
   36MOL   H17012840   5.022   0.594   5.490  3.1482 -1.9120  1.6067
   36MOL   H17112841   4.909   0.462   5.465 -0.5275  1.0611  0.3923
   36MOL   H17212842   5.204   0.409   5.414 -0.7844  0.3487 -1.6503
   36MOL   H17312843   5.248   0.326   5.631 -0.0647 -0.1663  1.8726
   36MOL   H17412844   5.079   0.328   5.676  0.2186  0.0512  0.1260
   36MOL   H17512845   5.096   0.579   5.671  2.0584  2.4895  1.0281
   36MOL   H17612846   5.263   0.558   5.631  1.1485 -2.3290 -1.3197
   36MOL   H17712847   5.301   0.419   5.835  0.2232  0.2015 -1.1175
   36MOL   H17812848   5.145   0.464   5.891  0.7159  0.6414  1.5442
   36MOL   H17912849   5.357   0.666   5.832  0.0616 -0.8724 -1.4909
   36MOL   H18012850   5.301   0.623   5.987 -1.9825  0.3740  0.0696
   36MOL   H18112851   5.184   0.703   5.890 -0.5449 -0.0230 -1.7981
   36MOL   C18212852   5.073   0.247   5.417  0.1348  0.0087 -0.0747
   36MOL   C18312853   5.181   0.147   5.391 -0.2543  0.0465  0.1418
   36MOL   C18412854   5.269   0.181   5.272 -0.1733  0.4063  0.2357
   36MOL   C18512855   5.401   0.241   5.311  0.1844  0.4661 -0.2577
   36MOL   C18612856   5.486   0.276   5.189 -0.3167  0.9113  0.6469
   36MOL   C18712857   5.618   0.322   5.222 -0.4789 -0.0573  0.0479
   36MOL   H18812858   5.004   0.212   5.494 -0.7604  0.0671 -0.8263
   36MOL   H18912859   5.009   0.254   5.328  2.6780  0.0049 -1.9507
   36MOL   H19012860   5.240   0.142   5.482 -1.7036 -0.8511  1.0618
   36MOL   H19112861   5.286   0.090   5.216  1.8670  1.6667 -1.2494
   36MOL   H19212862   5.219   0.250   5.205 -1.0656 -1.1405 -0.7200
   36MOL   H19312863   5.441   0.152   5.359 -2.2881  0.0801  1.1724
   36MOL   H19412864   5.403   0.322   5.385  2.7518  0.8070 -0.6691
   36MOL   H19512865   5.438   0.349   5.124  0.2833  1.5854  0.9565
   36MOL   H19612866   5.498   0.182   5.136 -0.7379  0.0731  1.9978
   36MOL   H19712867   5.621   0.420   5.271  1.7882 -0.3737  0.6204
   36MOL   H19812868   5.687   0.335   5.138 -0.7213 -0.9566 -0.2871
   36MOL   H19912869   5.668   0.251   5.288  0.6859 -3.1392 -3.9402
   36MOL   C20012870   5.123   0.002   5.380  0.0152  1.0248 -0.0930
   36MOL   C20112871   5.061   7.667   5.509 -0.3533  0.4224  0.4388
   36MOL   C20212872   4.992   7.533   5.472  0.2856 -0.6199 -0.5366
   36MOL   C20312873   4.857   7.549   5.397 -0.6761 -0.0731  0.5357
   36MOL   C20412874   4.738   7.599   5.480  0.7294  0.1828 -0.2305
   36MOL   C20512875   4.598   7.557   5.436 -0.3156 -0.5907  0.0569
   36MOL   H20612876   5.203   7.666   5.342  1.3555  2.0429  0.9959
   36MOL   H20712877   5.053   0.010   5.297  0.2454 -1.4556 -0.5687
   36MOL   H20812878   4.975   0.001   5.533  0.7433  2.2524 -0.2219
   36MOL   H20912879   4.981   7.473   5.562  0.8117 -1.0914 -0.7852
   36MOL   H21012880   5.058   7.478   5.405  0.8105  1.9088 -2.1814
   36MOL   H21112881   4.837   7.456   5.343  1.8358 -0.7841  0.7987
   36MOL   H21212882   4.862   7.619   5.313  0.2282 -2.3883 -1.4173
   36MOL   H21312883   4.740   7.707   5.493  0.1693  0.2598 -0.7682
   36MOL   H21412884   4.740   7.570   5.585  0.3768  0.9637 -0.0032
   36MOL   H21512885   4.521   7.591   5.505  0.5127 -0.7534  1.0824
   36MOL   H21612886   4.573   7.588   5.335 -2.4334  0.6544  0.9134
   36MOL   H21712887   4.587   7.449   5.439 -3.5111 -0.2699  2.8301
   36MOL   C21812888   5.152   7.666   5.638  1.4478 -0.8444  0.6109
   36MOL   C21912889   5.281   7.573   5.635  0.1385  0.2996  0.1488
   36MOL   C22012890   5.261   7.452   5.726  0.0489 -0.2801 -0.5295
   36MOL   C22112891   5.278   7.474   5.882 -0.5792 -0.2086  0.0015
   36MOL   C22212892   5.190   7.384   5.973 -0.0489  0.3114  0.4181
   36MOL   C22312893   5.232   7.396   6.116 -0.3252 -0.2666 -0.1549
   36MOL   H22412894   5.180   0.041   5.665 -0.0363  0.1411 -1.4686
   36MOL   H22512895   5.092   7.638   5.724  1.5721  1.4221  1.4763
   36MOL   H22612896   5.293   7.534   5.534  0.8335  1.0222 -0.0501
   36MOL   H22712897   5.338   7.377   5.708  0.7121  0.5095 -1.0343
   36MOL   H22812898   5.166   7.406   5.698  1.1554 -2.2923 -1.0695
   36MOL   H22912899   5.248   7.577   5.905  1.1430 -0.1125  2.0056
   36MOL   H23012900   5.382   7.470   5.912  0.0670  0.6459 -2.0687
   36MOL   H23112901   5.090   7.422   5.951  0.1501  1.0996  0.8406
   36MOL   H23212902   5.203   7.281   5.940  0.2424  0.6813 -0.6357
   36MOL   H23312903   5.263   7.499   6.137 -1.2600  0.0070 -0.0955
   36MOL   H23412904   5.320   7.335   6.134  0.9365  0.6719 -2.8984
   36MOL   H23512905   5.154   7.366   6.186 -0.6733 -1.6688 -1.1279
   36MOL   C23612906   5.411   7.661   5.652 -0.0487  0.1740 -0.0683
   36MOL   C23712907   5.559   7.596   5.626  0.1232 -0.1559  0.1744
   36MOL   C23812908   5.618   7.511   5.740  0.4382 -0.1547 -0.2726
   36MOL   C23912909   5.640   7.584   5.877  0.1384  0.5500  0.2330
   36MOL   C24012910   5.701   7.500   5.988  0.1811  0.4300 -0.1694
   36MOL   C24112911   5.726   7.575   6.118  0.4756  0.7355 -0.4189
   36MOL   H24212912   5.405   0.015   5.579 -2.6592 -0.8346 -1.0276
   36MOL   H24312913   5.406   7.713   5.748 -1.1293  1.0330 -0.5749
   36MOL   H24412914   5.549   7.528   5.542 -0.7421 -1.4885  1.3398
   36MOL   H24512915   5.554   7.428   5.768  1.0402 -0.4221  0.3254
   36MOL   H24612916   5.712   7.465   5.710  1.4342  1.5535  0.1052
   36MOL   H24712917   5.551   7.627   5.921  0.4935  0.7014  0.8116
   36MOL   H24812918   5.708   7.667   5.855  1.0244  0.5473  2.7954
   36MOL   H24912919   5.637   7.414   6.008 -0.2759  1.0909  1.3504
   36MOL   H25012920   5.796   7.457   5.958  0.2112  0.0829  0.4078
   36MOL   H25112921   5.756   7.677   6.093 -0.4641  0.4546 -2.8843
   36MOL   H25212922   5.637   7.593   6.179 -0.6001 -1.4465 -1.2770
   36MOL   H25312923   5.799   7.522   6.179  1.5071  1.8069 -0.7153
   36MOL   C25412924   5.655   7.706   5.582 -0.0456 -0.7190 -0.3297
   36MOL   C25512925   5.781   7.647   5.521  0.0065  1.0260  0.2840
   36MOL   C25612926   5.899   0.022   5.512  0.3984  0.5894 -0.4308
   36MOL   C25712927   5.974   0.045   5.642 -1.2202  0.0543  0.5652
   36MOL   C25812928   6.116   0.099   5.629 -0.4447 -0.6248  0.4703
   36MOL   C25912929   6.175   0.156   5.750  1.2659  0.1017  0.3766
   36MOL   H26012930   5.677   0.044   5.667  0.6476 -0.4642 -0.7006
   36MOL   H26112931   5.610   0.040   5.503 -2.9333 -0.4044  1.4998
   36MOL   H26212932   5.822   7.574   5.590 -1.3652  0.9796  1.0632
   36MOL   H26312933   5.965   7.716   5.432  0.6343 -0.1156  0.0538
   36MOL   H26412934   5.863   0.121   5.484 -1.9709 -0.5469 -1.6333
   36MOL   H26512935   5.911   0.113   5.699  0.1735  1.4376  0.4902
   36MOL   H26612936   5.988   7.675   5.688  0.6018  0.7303  1.5048
   36MOL   H26712937   6.118   0.176   5.553  0.8782 -0.6824  0.4385
   36MOL   H26812938   6.183   0.025   5.584  0.3565  0.5600 -0.3111
   36MOL   H26912939   6.145   0.255   5.784  0.5466  0.2929 -0.7986
   36MOL   H27012940   6.281   0.174   5.733  1.2861  0.4631  0.8409
   36MOL   H27112941   6.168   0.091   5.837 -0.7552 -1.0290 -0.5869
   36MOL   C27212942   5.765   7.578   5.378 -0.3177  0.0348  0.4353
   36MOL   C27312943   5.818   7.427   5.372 -0.2477  0.6909 -0.4343
   36MOL   C27412944   5.970   7.416   5.405  0.4762 -0.1991 -0.1085
   36MOL   C27512945   6.021   7.277   5.434  0.9717  0.0521 -0.1704
   36MOL   C27612946   6.169   7.269   5.465  0.5256 -0.0945 -0.0086
   36MOL   C27712947   6.212   7.362   5.581  0.5067 -0.2863 -0.0489
   36MOL   H27812948   5.660   7.581   5.347 -0.0359  2.9901 -0.3996
   36MOL   H27912949   5.808   7.647   5.305  2.0541 -1.7141  0.1183
   36MOL   H28012950   5.776   7.369   5.454  2.9833 -0.5891  0.3794
   36MOL   H28112951   5.989   7.477   5.493 -1.0719 -0.1202  0.1841
   36MOL   H28212952   6.028   7.462   5.325  0.6064  0.9167  0.6266
   36MOL   H28312953   6.000   7.204   5.355  0.7363 -1.2457  1.0729
   36MOL   H28412954   5.966   7.239   5.521 -0.9246  4.2428  0.5872
   36MOL   H28512955   6.196   7.166   5.486  3.0094  0.5952  0.3764
   36MOL   H28612956   6.210   7.295   5.368 -0.1740  0.2983 -0.2087
   36MOL   H28712957   6.311   7.329   5.611  1.0342  2.3113  1.2564
   36MOL   H28812958   6.223   7.469   5.562 -0.2113 -0.1583  0.2640
   36MOL   H28912959   6.154   7.350   5.672 -0.2146 -1.0076 -0.6027
   36MOL   C29012960   5.782   7.354   5.243  0.0382 -0.3694  0.1305
   36MOL   C29112961   5.629   7.313   5.238 -0.0835  0.0275  0.3350
   36MOL   C29212962   5.565   7.314   5.092  0.2999  0.4987  0.6311
   36MOL   C29312963   5.526   7.452   5.040 -0.3251 -0.1242  0.2800
   36MOL   C29412964   5.450   7.448   4.908 -0.0799 -0.4490  0.2730
   36MOL   C29512965   5.539   7.393   4.794 -0.3505  0.3084 -0.1721
   36MOL   H29612966   5.833   7.261   5.217  0.9530  0.0029  0.5882
   36MOL   H29712967   5.812   7.418   5.159 -0.0340 -0.6045 -0.0757
   36MOL   H29812968   5.575   7.389   5.294 -1.5979 -0.1747 -0.7991
   36MOL   H29912969   5.484   7.241   5.083  0.2878  0.4153  1.3508
   36MOL   H30012970   5.649   7.276   5.034  1.5216  0.3578  2.4507
   36MOL   H30112971   5.458   7.504   5.106  0.9370  1.4688  0.3591
   36MOL   H30212972   5.614   7.517   5.038 -0.6164  0.2331 -2.2807
   36MOL   H30312973   5.406   7.541   4.873  1.5253  0.1682 -0.1393
   36MOL   H30412974   5.364   7.381   4.918 -0.6434  0.6414  3.2409
   36MOL   H30512975   5.617   7.463   4.761 -1.1267  0.5568 -1.5282
   36MOL   H30612976   5.463   7.375   4.718  1.1406  1.1135 -1.8911
   36MOL   H30712977   5.581   7.294   4.811 -0.5031  0.3517  0.4753
   36MOL   C30812978   5.619   7.175   5.300  0.2960 -0.1542  0.0368
   36MOL   C30912979   5.498   7.140   5.388  0.5195 -0.3613 -0.3981
   36MOL   C31012980   5.369   7.153   5.312 -0.1682 -0.0216 -0.0690
   36MOL   C31112981   5.244   7.115   5.382  0.5999 -0.2069 -0.2135
   36MOL   C31212982   5.122   7.196   5.326  0.5852 -0.0459 -0.0392
   36MOL   C31312983   4.997   7.168   5.405 -0.3262 -0.5689  0.4365
   36MOL   H31412984   5.625   7.099   5.223  0.5514 -0.0385 -0.0568
   36MOL   H31512985   5.702   7.141   5.362 -0.8902  0.1612  1.8506
   36MOL   H31612986   5.498   7.032   5.400  1.4973 -0.4391 -1.0320
   36MOL   H31712987   5.376   7.097   5.219 -3.0282  3.1876 -2.3692
   36MOL   H31812988   5.367   7.257   5.279 -0.4714 -0.5305 -1.7104
   36MOL   H31912989   5.246   7.126   5.491  2.4837  2.4171 -0.4563
   36MOL   H32012990   5.223   7.008   5.380 -1.5055  0.1395  1.0451
   36MOL   H32112991   5.153   7.301   5.325 -0.1157  0.1796  1.2387
   36MOL   H32212992   5.113   7.167   5.221  0.9883  0.0745 -0.1102
   36MOL   H32312993   4.928   7.252   5.400 -0.4411 -0.7484 -1.3775
   36MOL   H32412994   5.025   7.149   5.509  1.5799  2.5211  0.5263
   36MOL   H32512995   4.951   7.074   5.372 -0.0379 -0.9981  1.2303
   36MOL   C32612996   5.505   7.207   5.531 -0.1293 -0.3299  0.0034
   36MOL   C32712997   5.530   7.118   5.654 -0.3747 -1.3322 -0.1758
   36MOL   C32812998   5.423   7.021   5.676  0.2865 -0.1065 -0.7312
   36MOL   C32912999   5.307   7.068   5.766  0.8438 -0.4295 -0.4827
   36MOL   C33013000   5.183   6.971   5.757 -0.3095 -0.4721 -0.5900
   36MOL   C33113001   5.068   7.032   5.830 -0.4295  0.5039 -0.3322
   36MOL   H33213002   5.418   7.269   5.554  0.0012 -0.0044 -0.3797
   36MOL   H33313003   5.580   7.286   5.531 -0.4771  0.0961 -3.7926
   36MOL   H33413004   5.503   7.190   5.732 -1.2711 -2.7991  0.8952
   36MOL   H33513005   5.377   6.972   5.590 -1.2772 -1.4603  0.8416
   36MOL   H33613006   5.464   6.934   5.727  1.7559  1.2885  0.5318
   36MOL   H33713007   5.275   7.168   5.737 -0.4293 -1.0497 -1.2713
   36MOL   H33813008   5.334   7.087   5.870 -0.0957  2.7254 -0.7732
   36MOL   H33913009   5.165   6.957   5.651 -2.2434  2.2271 -0.6497
   36MOL   H34013010   5.215   6.870   5.786  1.5223 -0.0405 -1.0083
   36MOL   H34113011   5.100   7.071   5.927 -0.0019  0.4305 -0.4414
   36MOL   H34213012   4.995   6.953   5.846 -1.1215  1.2522  0.2374
   36MOL   H34313013   5.019   7.122   5.794  2.2594  1.6502 -1.3054
   36MOL   C34413014   5.672   7.063   5.662  0.0070 -0.3868 -0.4344
   36MOL   C34513015   5.724   7.037   5.804 -0.1333  0.2477 -0.2415
   36MOL   C34613016   5.780   7.170   5.860 -0.3404  0.0639  0.5834
   36MOL   C34713017   5.837   7.167   6.003 -0.0118  0.4909  0.1380
   36MOL   C34813018   5.729   7.140   6.103 -1.1705 -0.7445 -0.7892
   36MOL   C34913019   5.778   7.171   6.250  0.2005 -0.1358 -0.1681
   36MOL   H35013020   5.673   6.965   5.614 -0.2844 -0.7197  0.2353
   36MOL   H35113021   5.751   7.123   5.616  0.3176 -0.7013 -0.3179
   36MOL   H35213022   5.802   6.961   5.796  0.6105  0.8774  0.8580
   36MOL   H35313023   5.861   7.207   5.797  1.3273 -3.1052  0.7751
   36MOL   H35413024   5.701   7.244   5.851 -1.2980 -1.0505 -0.2317
   36MOL   H35513025   5.923   7.101   6.010  0.9883  1.7903  0.4662
   36MOL   H35613026   5.877   7.268   6.019 -0.2285  0.4259  1.0974
   36MOL   H35713027   5.641   7.203   6.091 -0.5981  0.1062 -0.5313
   36MOL   H35813028   5.697   7.035   6.105 -3.4553 -0.1089 -2.5230
   36MOL   H35913029   5.877   7.136   6.279  0.5539  0.0721 -1.1148
   36MOL   H36013030   5.761   7.277   6.268 -1.4394 -0.1921 -1.2489
   36MOL   H36113031   5.717   7.114   6.320  2.3640  0.1915  2.0398
   36MOL   H36213032   5.651   6.990   5.870 -1.5715  1.9038 -0.6223
   37MOL     C113033   0.112   6.177   2.358  0.0426 -0.2476 -0.7591
   37MOL     C213034   0.163   6.060   2.447 -0.8673 -0.1631 -0.0308
   37MOL     C313035   0.263   6.122   2.551  0.0472  0.0221  0.2002
   37MOL     C413036   0.190   6.151   2.685 -0.8715  0.8919  0.0271
   37MOL     C513037   0.179   6.022   2.772 -0.6296 -0.0899 -0.4970
   37MOL     C613038   0.137   6.058   2.911  0.3183  0.1291 -0.5245
   37MOL     H713039   0.045   6.139   2.281  0.1649  0.5552 -1.2633
   37MOL     H813040   0.076   6.262   2.416  0.7580 -0.1727 -0.4256
   37MOL     H913041   0.077   6.021   2.502 -1.7068  1.5911 -0.0622
   37MOL    H1013042   0.305   6.215   2.511 -0.6469  1.0702  1.8570
   37MOL    H1113043   0.355   6.065   2.561 -0.3358 -0.4702  1.0333
   37MOL    H1213044   0.090   6.188   2.663 -1.8704 -2.5225 -1.4920
   37MOL    H1313045   0.249   6.224   2.741 -0.2553  1.1964 -1.0043
   37MOL    H1413046   0.105   5.952   2.735 -0.4571 -0.8637  0.5907
   37MOL    H1513047   0.271   5.964   2.767 -0.3569  0.2344  0.6177
   37MOL    H1613048   0.034   6.094   2.906 -0.1254 -1.2026 -1.1776
   37MOL    H1713049   0.196   6.129   2.968 -1.5506 -0.0799  1.7493
   37MOL    H1813050   0.132   5.957   2.952  2.4552 -0.6900 -2.1770
   37MOL    H1913051   0.199   6.215   2.306  0.1160 -1.4184 -1.5098
   37MOL    C2013052   0.221   5.954   2.356  0.7513  0.1673  0.8205
   37MOL    C2113053   0.247   5.812   2.413  0.1884 -0.3625  0.3765
   37MOL    C2213054   0.118   5.741   2.461  0.5268  0.4754 -0.4878
   37MOL    C2313055   0.150   5.646   2.577 -0.2017  0.2805  0.0553
   37MOL    C2413056   0.037   5.551   2.609  0.3736  0.3890  0.2860
   37MOL    C2513057   0.017   5.433   2.520  0.4509  0.1281  0.4175
   37MOL    H2613058   0.303   5.992   2.296  3.3724 -0.2645  4.0246
   37MOL    H2713059   0.149   5.932   2.277  1.6018  0.3859 -0.0168
   37MOL    H2813060   0.308   5.828   2.502 -1.2057 -0.7685  1.4220
   37MOL    H2913061   0.069   5.694   2.376  1.1328 -2.1302  0.5605
   37MOL    H3013062   0.040   5.811   2.492  0.4102  0.8454 -1.5986
   37MOL    H3113063   0.162   5.702   2.670 -0.2780  1.1820 -0.4741
   37MOL    H3213064   0.240   5.586   2.564  0.5946  1.8035 -1.6589
   37MOL    H3313065   0.067   5.515   2.707  2.5401  0.8705 -0.1892
   37MOL    H3413066   7.674   5.611   2.628  0.5731  0.5840  0.6162
   37MOL    H3513067   0.113   5.386   2.498  0.0439 -0.0281 -1.0313
   37MOL    H3613068   7.685   5.357   2.571 -1.8838  1.4491 -0.2781
   37MOL    H3713069   7.699   5.459   2.425  2.0948 -1.6986 -0.8962
   37MOL    C3813070   0.332   5.726   2.311  0.1941 -0.1344  0.1274
   37MOL    C3913071   0.479   5.766   2.284  0.4432  0.2612 -0.2709
   37MOL    C4013072   0.561   5.745   2.414  0.0333  0.8487 -0.2987
   37MOL    C4113073   0.592   5.601   2.469  0.6222 -0.3725  0.0527
   37MOL    C4213074   0.660   5.595   2.606  0.0792 -0.4876 -0.1989
   37MOL    C4313075   0.565   5.590   2.726  0.1339 -0.4871 -0.3526
   37MOL    H4413076   0.273   5.733   2.220 -0.4570  0.3406  0.5796
   37MOL    H4513077   0.328   5.627   2.355 -1.6380  1.1381  2.9306
   37MOL    H4613078   0.486   5.875   2.278 -0.8417  0.3546 -0.2323
   37MOL    H4713079   0.655   5.798   2.394 -0.1215  0.3401 -2.4837
   37MOL    H4813080   0.513   5.797   2.497  1.2792 -0.4820  1.2988
   37MOL    H4913081   0.498   5.550   2.490  2.3997 -2.6479  2.8236
   37MOL    H5013082   0.644   5.541   2.394 -1.1318  0.6538 -2.0345
   37MOL    H5113083   0.706   5.497   2.609 -0.6597 -0.8495 -0.5084
   37MOL    H5213084   0.743   5.666   2.615 -1.2194  0.8591  1.5184
   37MOL    H5313085   0.614   5.567   2.822 -0.5180  0.8739  0.3105
   37MOL    H5413086   0.485   5.517   2.724 -0.8970  0.6112  0.2708
   37MOL    H5513087   0.517   5.684   2.751  1.6023  0.2055 -0.0960
   37MOL    C5613088   0.531   5.705   2.156 -0.2235 -0.0345 -0.2052
   37MOL    C5713089   0.666   5.765   2.105  0.6127  0.2373 -0.2649
   37MOL    C5813090   0.669   5.912   2.072 -0.4283 -0.3130 -0.4743
   37MOL    C5913091   0.807   5.980   2.027  0.8469  0.1811  0.0856
   37MOL    C6013092   0.803   6.131   2.057  0.6613  1.0840 -0.2805
   37MOL    C6113093   0.921   6.211   2.017 -0.2773  0.4447  0.6596
   37MOL    H6213094   0.555   5.599   2.169 -2.4490 -0.6854 -1.2841
   37MOL    H6313095   0.461   5.686   2.075  1.3975 -2.9492 -1.0197
   37MOL    H6413096   0.728   5.756   2.194  1.9737  0.4251 -1.1859
   37MOL    H6513097   0.591   5.940   2.001  0.3297 -1.4507 -1.7617
   37MOL    H6613098   0.656   5.953   2.172 -1.0298 -0.7319 -0.3769
   37MOL    H6713099   0.833   5.960   1.923  1.7489 -0.6778  0.4768
   37MOL    H6813100   0.893   5.930   2.072 -0.8724 -0.3569  2.8967
   37MOL    H6913101   0.719   6.171   2.000  0.2361  1.8125  0.8364
   37MOL    H7013102   0.796   6.142   2.165  0.6195  3.3387 -0.4829
   37MOL    H7113103   0.920   6.218   1.909  0.3893 -3.8098  0.3026
   37MOL    H7213104   0.913   6.314   2.052 -0.1613  1.2091 -1.4919
   37MOL    H7313105   1.020   6.183   2.051  0.1658  0.2027 -0.8152
   37MOL    C7413106   0.722   5.675   1.992 -0.9107 -0.0571 -0.4742
   37MOL    C7513107   0.782   5.539   2.043  0.6270  0.8263  0.4779
   37MOL    C7613108   0.706   5.425   1.966 -0.1154 -0.5308  0.0477
   37MOL    C7713109   0.739   5.285   2.009  0.0975 -0.2765  0.3497
   37MOL    C7813110   0.715   5.254   2.156 -0.6696 -0.3065  0.2362
   37MOL    C7913111   0.565   5.228   2.180 -0.9177 -0.4661  0.1508
   37MOL    H8013112   0.638   5.661   1.924 -0.5914  1.5052 -1.2149
   37MOL    H8113113   0.800   5.722   1.931  0.8081 -2.2316  0.0047
   37MOL    H8213114   0.762   5.537   2.150  1.1005 -1.1158  0.5642
   37MOL    H8313115   0.597   5.431   1.970 -0.1143  0.4179 -1.0213
   37MOL    H8413116   0.714   5.432   1.858  1.3247  3.1654  0.3154
   37MOL    H8513117   0.678   5.220   1.945 -1.3152  1.5953 -0.2603
   37MOL    H8613118   0.840   5.253   1.981  0.1707  1.3194 -1.2825
   37MOL    H8713119   0.750   5.329   2.227  0.5372 -0.1870 -0.4583
   37MOL    H8813120   0.774   5.167   2.183  1.5276  0.6987 -1.1646
   37MOL    H8913121   0.549   5.197   2.283  1.1933 -0.1151  0.6172
   37MOL    H9013122   0.507   5.319   2.170  1.7917  1.2595 -0.4774
   37MOL    H9113123   0.521   5.162   2.105  0.4538  0.1428 -1.2240
   37MOL    C9213124   0.939   5.535   2.015 -0.1089 -0.1980 -0.1481
   37MOL    C9313125   1.018   5.644   2.091 -0.3834 -0.3052 -0.0933
   37MOL    C9413126   1.004   5.613   2.245 -0.0889  0.5270  0.0677
   37MOL    C9513127   1.055   5.721   2.337 -0.2450 -0.1222 -0.2457
   37MOL    C9613128   1.057   5.670   2.488  0.4713 -1.1529  0.3242
   37MOL    C9713129   1.175   5.565   2.507 -0.4999  0.1917  0.5105
   37MOL    H9813130   0.970   5.438   2.056  1.5466  0.6281  0.5836
   37MOL    H9913131   0.966   5.526   1.910 -0.7768  0.3500 -0.3691
   37MOL   H10013132   0.959   5.732   2.067 -0.0658 -0.1142 -0.1799
   37MOL   H10113133   1.059   5.521   2.267  1.5482  1.6243  0.6705
   37MOL   H10213134   0.905   5.592   2.285  0.0921  0.7621  0.6314
   37MOL   H10313135   1.159   5.741   2.310  0.2142 -1.0961  0.7375
   37MOL   H10413136   0.995   5.810   2.319 -0.0636 -0.0451 -0.4735
   37MOL   H10513137   1.068   5.753   2.558  1.7141 -0.7140 -0.3530
   37MOL   H10613138   0.953   5.640   2.494 -0.2002  0.9526 -0.2020
   37MOL   H10713139   1.172   5.474   2.447  2.6737 -0.1981  0.8416
   37MOL   H10813140   1.269   5.617   2.487 -1.0694  1.4585  1.1073
   37MOL   H10913141   1.188   5.522   2.606 -1.1036 -2.6884 -0.6058
   37MOL   C11013142   1.163   5.655   2.037  0.1385 -0.1176  0.5490
   37MOL   C11113143   1.187   5.681   1.885  0.1623  0.2340  0.2864
   37MOL   C11213144   1.337   5.662   1.853  0.1525  0.2560 -0.1967
   37MOL   C11313145   1.426   5.781   1.893  1.2634  0.8493 -0.0939
   37MOL   C11413146   1.568   5.771   1.834  0.3012  0.1935  0.5194
   37MOL   C11513147   1.662   5.877   1.876  0.0483  0.2316  0.0751
   37MOL   H11613148   1.210   5.739   2.088 -0.2535 -1.1701  2.7284
   37MOL   H11713149   1.217   5.566   2.071  1.1590 -0.1537 -1.1359
   37MOL   H11813150   1.151   5.594   1.830  1.8903 -0.5462  0.3421
   37MOL   H11913151   1.356   5.651   1.746  0.9861  2.7860 -0.3409
   37MOL   H12013152   1.391   5.579   1.898 -2.6648 -0.2528  2.3876
   37MOL   H12113153   1.435   5.781   2.001  2.7421  0.9414 -0.2138
   37MOL   H12213154   1.385   5.877   1.861  0.8385  0.9512  0.7601
   37MOL   H12313155   1.561   5.746   1.728  0.5437 -6.1757  1.7709
   37MOL   H12413156   1.604   5.674   1.869  1.2596 -0.6816 -2.6749
   37MOL   H12513157   1.596   5.964   1.876 -3.9997 -2.7019  1.3713
   37MOL   H12613158   1.709   5.860   1.972 -0.9611 -1.3086  0.3066
   37MOL   H12713159   1.743   5.889   1.804 -2.1649  3.1183 -2.1224
   37MOL   C12813160   1.125   5.809   1.846  0.6660 -0.6679 -0.0072
   37MOL   C12913161   1.156   5.862   1.705 -0.0538 -0.1325  0.8371
   37MOL   C13013162   1.095   6.001   1.697 -0.3996  0.4000 -0.3364
   37MOL   C13113163   1.186   6.117   1.729 -0.8928 -1.0439 -0.2392
   37MOL   C13213164   1.132   6.250   1.676 -0.1014  0.4545 -0.1780
   37MOL   C13313165   1.227   6.372   1.688  0.0948  1.0742 -0.1975
   37MOL   H13413166   1.150   5.889   1.916 -0.1039 -0.3667 -0.0708
   37MOL   H13513167   1.017   5.791   1.855  0.4428 -0.8232 -2.6990
   37MOL   H13613168   1.261   5.864   1.674 -0.5701 -0.1264 -0.9530
   37MOL   H13713169   1.062   6.012   1.593 -2.1863 -2.0915 -0.0568
   37MOL   H13813170   1.009   6.010   1.762 -0.0766 -0.5614  0.2256
   37MOL   H13913171   1.282   6.102   1.678 -1.8759 -4.0140 -1.3422
   37MOL   H14013172   1.204   6.131   1.835 -1.3651 -0.4390 -0.2379
   37MOL   H14113173   1.091   6.231   1.577 -1.3097 -1.6544  0.6972
   37MOL   H14213174   1.039   6.263   1.730  0.9080 -2.0031  2.2894
   37MOL   H14313175   1.300   6.371   1.608  0.6580 -0.6303  0.3153
   37MOL   H14413176   1.280   6.371   1.784  2.6813 -1.5500 -1.5772
   37MOL   H14513177   1.161   6.458   1.681  0.2223  1.3014  1.1325
   37MOL   C14613178   1.080   5.771   1.604 -0.7974  0.9753 -0.3250
   37MOL   C14713179   1.120   5.777   1.454 -0.3328 -0.1172 -0.1244
   37MOL   C14813180   0.999   5.729   1.361 -0.2655 -0.1555  0.0865
   37MOL   C14913181   0.957   5.838   1.267  0.3078  0.4788 -0.7981
   37MOL   C15013182   0.831   5.799   1.173 -0.7169 -0.0075 -0.8570
   37MOL   C15113183   0.772   5.920   1.098  0.1233  0.0513 -0.2663
   37MOL   H15213184   1.096   5.669   1.640 -0.1961  1.6507  1.3779
   37MOL   H15313185   0.973   5.784   1.621 -0.5431  0.4246  1.8414
   37MOL   H15413186   1.143   5.879   1.421  0.2656 -0.4405 -0.7213
   37MOL   H15513187   0.910   5.703   1.418  0.0010 -0.3420  0.4249
   37MOL   H15613188   1.037   5.639   1.312  1.8708  0.1741  1.0691
   37MOL   H15713189   0.915   5.915   1.332 -0.2978 -0.9220  0.4893
   37MOL   H15813190   1.043   5.881   1.217  1.4443  1.5840  2.0346
   37MOL   H15913191   0.763   5.749   1.242  3.1401 -2.4518  1.3518
   37MOL   H16013192   0.867   5.722   1.106 -0.7486 -3.8743  3.3182
   37MOL   H16113193   0.689   5.965   1.152  1.0413 -1.0524  2.1556
   37MOL   H16213194   0.851   5.993   1.076 -2.7962  3.7955  1.1140
   37MOL   H16313195   0.725   5.877   1.010  0.5308 -0.2040 -0.3625
   37MOL   C16413196   1.240   5.684   1.421  0.6273 -0.5429  0.4148
   37MOL   C16513197   1.311   5.699   1.287  0.0801 -0.0494  0.5315
   37MOL   C16613198   1.358   5.843   1.262 -0.3528 -0.4916  0.8495
   37MOL   C16713199   1.439   5.902   1.373  0.2406  0.2600 -0.5047
   37MOL   C16813200   1.495   6.036   1.352  0.0764 -0.4939 -0.7036
   37MOL   C16913201   1.566   6.083   1.477  0.0456 -0.4333 -0.1482
   37MOL   H17013202   1.309   5.698   1.505  0.4937 -0.7167  0.5540
   37MOL   H17113203   1.196   5.587   1.442 -1.7878  0.9967  2.9051
   37MOL   H17213204   1.239   5.689   1.205  0.0189  0.1824  0.5558
   37MOL   H17313205   1.277   5.910   1.232  1.6200  1.6668  0.1567
   37MOL   H17413206   1.408   5.834   1.166 -1.8029 -0.3142  0.0589
   37MOL   H17513207   1.527   5.841   1.391 -0.4267 -0.3800  0.6363
   37MOL   H17613208   1.384   5.905   1.467 -0.2132 -1.9233 -0.6871
   37MOL   H17713209   1.424   6.115   1.328  1.7270  2.9761  4.7838
   37MOL   H17813210   1.568   6.049   1.272  0.7648  1.1840  0.1716
   37MOL   H17913211   1.656   6.029   1.507  1.7292  1.6113 -1.3901
   37MOL   H18013212   1.505   6.076   1.567 -0.4970  0.0559 -0.4742
   37MOL   H18113213   1.583   6.190   1.473  0.0057 -0.4416 -0.5422
   37MOL   C18213214   1.424   5.595   1.262  0.5575 -0.0393  0.3283
   37MOL   C18313215   1.379   5.457   1.199 -0.2813  0.3544  0.2658
   37MOL   C18413216   1.500   5.363   1.232 -0.3723  0.3010 -0.3261
   37MOL   C18513217   1.636   5.417   1.182 -0.4360  0.1454  0.6718
   37MOL   C18613218   1.751   5.308   1.196  1.1107 -0.3538 -0.0783
   37MOL   C18713219   1.871   5.365   1.131  0.0778  0.2507  0.2476
   37MOL   H18813220   1.506   5.648   1.212 -0.2327 -1.5356 -2.7046
   37MOL   H18913221   1.462   5.585   1.364 -1.2064 -0.0024  1.0025
   37MOL   H19013222   1.298   5.423   1.263  2.1495 -1.8783  2.2890
   37MOL   H19113223   1.519   5.352   1.339 -1.9398  0.5226 -0.0188
   37MOL   H19213224   1.492   5.259   1.200  0.0830  0.4236 -0.8392
   37MOL   H19313225   1.669   5.516   1.213 -0.5287  0.1945  0.6135
   37MOL   H19413226   1.621   5.432   1.075 -0.6159  1.0339  0.8123
   37MOL   H19513227   1.736   5.206   1.160 -0.2568  0.1530 -1.0010
   37MOL   H19613228   1.760   5.294   1.304  0.3224  3.3570  0.5198
   37MOL   H19713229   1.849   5.398   1.029 -0.5155 -0.5598  0.1090
   37MOL   H19813230   1.947   5.288   1.120  0.9676  1.1979 -0.3765
   37MOL   H19913231   1.897   5.453   1.189  1.4088 -1.0742  1.7115
   37MOL   C20013232   1.337   5.453   1.045 -0.7751  0.2768 -0.4999
   37MOL   C20113233   1.248   5.323   1.010 -0.7909 -0.8007 -0.1370
   37MOL   C20213234   1.101   5.350   1.041  0.5713 -0.2226 -0.4514
   37MOL   C20313235   1.022   5.220   1.082 -0.1151  0.9665 -0.1296
   37MOL   C20413236   0.869   5.258   1.102  0.2962 -0.1337 -0.6751
   37MOL   C20513237   0.789   5.125   1.115 -0.7228  0.0205  0.3426
   37MOL   H20613238   1.425   5.458   0.981 -0.5783 -2.4720 -0.4729
   37MOL   H20713239   1.275   5.538   1.016 -1.3882  0.1149  0.3242
   37MOL   H20813240   1.274   5.245   1.082  0.7420  0.6627  0.9229
   37MOL   H20913241   1.036   5.392   0.965  0.1450 -0.1548 -0.0532
   37MOL   H21013242   1.088   5.420   1.123  0.6138  0.1905 -0.7986
   37MOL   H21113243   1.064   5.159   1.161 -0.4805  1.9326  0.8197
   37MOL   H21213244   1.024   5.152   0.997  1.9149  1.1156 -0.2211
   37MOL   H21313245   0.842   5.316   1.014 -0.0863  1.0480  0.2048
   37MOL   H21413246   0.861   5.331   1.183 -0.6301  0.1137 -0.9891
   37MOL   H21513247   0.682   5.142   1.111 -0.7960  0.3828  3.0388
   37MOL   H21613248   0.818   5.049   1.042 -2.6150 -0.9328  0.5711
   37MOL   H21713249   0.812   5.072   1.208 -2.3764 -1.7089 -0.2176
   37MOL   C21813250   1.264   5.288   0.863  0.1923  0.4944  0.2244
   37MOL   C21913251   1.403   5.215   0.831 -0.7176  0.0617  0.1350
   37MOL   C22013252   1.489   5.321   0.749  0.3084 -0.1816  0.0806
   37MOL   C22113253   1.636   5.302   0.770 -0.5576 -0.5938  0.1886
   37MOL   C22213254   1.718   5.369   0.658  0.2603  0.5071  0.2706
   37MOL   C22313255   1.865   5.361   0.697  0.5191 -0.4617 -0.7272
   37MOL   H22413256   1.186   5.218   0.836 -0.8229  1.0125  1.7861
   37MOL   H22513257   1.248   5.369   0.792 -0.0643  0.1310 -0.1322
   37MOL   H22613258   1.453   5.190   0.925 -1.0834 -1.8001 -0.1496
   37MOL   H22713259   1.466   5.427   0.759  0.2008 -0.0286 -1.5854
   37MOL   H22813260   1.465   5.309   0.643  2.1201  1.7620 -0.5803
   37MOL   H22913261   1.666   5.197   0.771 -0.7512 -0.6520 -0.0981
   37MOL   H23013262   1.669   5.335   0.868  0.4370 -2.6107  0.5461
   37MOL   H23113263   1.699   5.311   0.568  0.0580  0.1460  0.5446
   37MOL   H23213264   1.701   5.474   0.637  0.1701  0.9083  2.1919
   37MOL   H23313265   1.915   5.396   0.607  1.5283 -0.3430 -0.1286
   37MOL   H23413266   1.888   5.259   0.727  0.9127  0.1323  1.0344
   37MOL   H23513267   1.891   5.419   0.785 -0.2876 -0.7575 -0.2894
   37MOL   C23613268   1.399   5.086   0.749  0.6014 -0.0155 -0.4959
   37MOL   C23713269   1.326   4.971   0.822 -0.3288 -0.3645 -0.3239
   37MOL   C23813270   1.398   4.921   0.950 -0.1357  0.1347  0.6693
   37MOL   C23913271   1.537   4.874   0.925  0.2808  0.2884  0.4651
   37MOL   C24013272   1.601   4.798   1.043 -0.4931  0.2320  0.5104
   37MOL   C24113273   1.575   4.645   1.029 -0.0381 -0.3683  0.1842
   37MOL   H24213274   1.355   5.111   0.652 -0.1481  1.5684  0.2450
   37MOL   H24313275   1.497   5.041   0.730  0.5975  1.2501 -3.8341
   37MOL   H24413276   1.233   5.012   0.859 -1.2824 -1.4884 -1.4362
   37MOL   H24513277   1.407   5.002   1.023  0.8050  0.9017 -0.2811
   37MOL   H24613278   1.336   4.841   0.990 -0.8723  0.7424  0.7602
   37MOL   H24713279   1.602   4.960   0.913 -0.9848  1.3137  0.8212
   37MOL   H24813280   1.546   4.821   0.830 -0.5908  0.8594  0.0609
   37MOL   H24913281   1.702   4.834   1.064 -0.1147 -0.9572  0.7651
   37MOL   H25013282   1.544   4.829   1.130 -0.9248  1.8019 -0.3168
   37MOL   H25113283   1.577   4.589   1.122  1.1500 -0.7343 -0.0562
   37MOL   H25213284   1.479   4.630   0.979 -0.4804  3.1432 -0.1559
   37MOL   H25313285   1.649   4.607   0.959  0.3544  1.7617 -0.6184
   37MOL   C25413286   1.303   4.861   0.719  0.3578  0.9490 -0.0893
   37MOL   C25513287   1.215   4.741   0.765 -0.1280 -0.3321  0.3076
   37MOL   C25613288   1.215   4.625   0.657 -0.8539  0.4492 -0.3074
   37MOL   C25713289   1.123   4.645   0.535  0.1947 -0.0402 -0.3900
   37MOL   C25813290   1.151   4.527   0.433 -0.5457  0.5045  0.3225
   37MOL   C25913291   1.082   4.395   0.474 -0.3446 -0.1467 -0.0355
   37MOL   H26013292   1.401   4.820   0.695 -0.3484 -0.6293 -0.3336
   37MOL   H26113293   1.252   4.897   0.630 -0.1079  2.0896  0.6270
   37MOL   H26213294   1.272   4.696   0.847 -0.5759  0.1106  0.8578
   37MOL   H26313295   1.313   4.605   0.614 -0.3932  0.5696  0.6900
   37MOL   H26413296   1.178   4.538   0.710  0.4048 -0.0433 -0.2418
   37MOL   H26513297   1.019   4.654   0.563  0.1010  1.6384 -1.2493
   37MOL   H26613298   1.140   4.732   0.472  0.3170  0.0409 -0.2460
   37MOL   H26713299   1.253   4.521   0.395 -1.4901  1.2873 -2.4334
   37MOL   H26813300   1.092   4.544   0.342  0.1346 -0.7445 -0.3726
   37MOL   H26913301   1.126   4.352   0.565  0.2461  0.7926  0.1330
   37MOL   H27013302   1.104   4.327   0.392 -0.4158 -0.7492  0.4451
   37MOL   H27113303   0.978   4.418   0.495 -0.2535 -0.4081  0.7222
   37MOL   C27213304   1.084   4.791   0.819  0.0597 -0.6906  0.2386
   37MOL   C27313305   1.007   4.676   0.893  0.2786 -0.2081 -0.0849
   37MOL   C27413306   0.870   4.730   0.945 -0.2405  0.4812 -0.4325
   37MOL   C27513307   0.782   4.771   0.835 -0.1633 -0.9020 -0.8863
   37MOL   C27613308   0.639   4.809   0.873  0.1271  0.1823 -0.0700
   37MOL   C27713309   0.563   4.883   0.758  0.2673  0.4434 -0.5009
   37MOL   H27813310   1.094   4.875   0.886 -0.5779 -0.3876 -0.0381
   37MOL   H27913311   1.025   4.829   0.735  3.8221  0.3441 -2.0822
   37MOL   H28013312   0.982   4.599   0.820 -0.2435  1.4345 -1.6727
   37MOL   H28113313   0.895   4.812   1.012  0.6060  0.2812 -0.4896
   37MOL   H28213314   0.826   4.658   1.014  1.3432 -0.0781  0.0245
   37MOL   H28313315   0.780   4.699   0.753  1.1756 -0.1670 -1.5874
   37MOL   H28413316   0.821   4.867   0.800  0.2099 -0.4774  0.6989
   37MOL   H28513317   0.598   4.720   0.920  0.3267 -0.6392 -1.4152
   37MOL   H28613318   0.657   4.881   0.953  2.2852 -0.5700  0.1617
   37MOL   H28713319   0.465   4.911   0.795  1.3596  0.5545  2.4254
   37MOL   H28813320   0.619   4.969   0.722 -0.6278  1.7728  1.2108
   37MOL   H28913321   0.540   4.821   0.671  2.3775 -0.6885 -0.2980
   37MOL   C29013322   1.089   4.604   1.009 -0.4237 -0.8087  0.4225
   37MOL   C29113323   1.026   4.472   1.058 -0.2102 -0.0242  0.0466
   37MOL   C29213324   1.085   4.343   0.992 -0.3979  0.2688  0.2283
   37MOL   C29313325   1.221   4.297   1.042  0.1694 -0.8797 -0.2038
   37MOL   C29413326   1.261   4.156   1.000 -0.4340  0.6174  0.3495
   37MOL   C29513327   1.406   4.121   1.041 -0.3961 -0.1020 -0.4240
   37MOL   H29613328   1.104   4.671   1.094 -1.7319  0.4835 -0.3453
   37MOL   H29713329   1.194   4.582   0.993 -0.6876 -1.8129  0.0292
   37MOL   H29813330   0.923   4.469   1.022  0.1366  1.0443 -1.0524
   37MOL   H29913331   1.102   4.363   0.886  2.9250 -1.4706  0.3613
   37MOL   H30013332   1.019   4.256   0.997  1.8515 -1.4918  0.0834
   37MOL   H30113333   1.297   4.373   1.024 -0.9430  0.4144  0.4690
   37MOL   H30213334   1.215   4.310   1.150 -0.0937  0.2242 -0.3431
   37MOL   H30313335   1.256   4.164   0.892 -0.8747  0.7910  0.3809
   37MOL   H30413336   1.187   4.083   1.034  0.6761 -0.2374  0.9383
   37MOL   H30513337   1.412   4.094   1.147  1.2559 -1.8763 -0.9326
   37MOL   H30613338   1.477   4.203   1.032 -0.9988  0.3884 -0.6871
   37MOL   H30713339   1.439   4.033   0.985 -1.6120 -0.7230 -0.1766
   37MOL   C30813340   1.031   4.471   1.212  1.0254  0.0229  0.0708
   37MOL   C30913341   0.967   4.347   1.282  0.0059 -0.3954  0.0684
   37MOL   C31013342   0.825   4.307   1.232  0.3107 -0.6145 -0.3789
   37MOL   C31113343   0.720   4.409   1.245  0.2930 -0.3248  0.0976
   37MOL   C31213344   0.577   4.353   1.191  0.2018  0.3200 -0.1472
   37MOL   C31313345   0.507   4.240   1.273 -0.2629  0.0420 -0.0651
   37MOL   H31413346   1.134   4.482   1.246  0.4438  0.6652  1.6305
   37MOL   H31513347   0.976   4.556   1.252 -1.6427 -1.1181 -1.0387
   37MOL   H31613348   1.031   4.260   1.266 -1.5125 -1.2817 -1.3684
   37MOL   H31713349   0.811   4.225   1.302  1.3660 -0.1352  0.3973
   37MOL   H31813350   0.832   4.274   1.128 -1.4953  0.0398 -0.7165
   37MOL   H31913351   0.739   4.496   1.182  2.7062  1.4323  3.1054
   37MOL   H32013352   0.711   4.452   1.345  1.1874  2.1684 -0.8587
   37MOL   H32113353   0.514   4.441   1.190 -0.4905 -0.1828 -1.1394
   37MOL   H32213354   0.584   4.328   1.086  2.2125 -0.1784  0.0820
   37MOL   H32313355   0.411   4.214   1.227  0.7907 -2.1466 -1.1018
   37MOL   H32413356   0.489   4.264   1.378 -0.3236  1.3932 -0.3847
   37MOL   H32513357   0.566   4.148   1.265 -2.0509 -1.5187  3.4592
   37MOL   C32613358   0.983   4.385   1.434 -0.4210 -0.3265 -0.1291
   37MOL   C32713359   0.957   4.258   1.524 -0.3644 -0.4817 -0.0652
   37MOL   C32813360   1.063   4.243   1.635  0.2114  0.1304  0.3774
   37MOL   C32913361   1.195   4.206   1.591 -0.6812 -0.0577 -0.5093
   37MOL   C33013362   1.301   4.203   1.713  0.2985  0.0747  0.0554
   37MOL   C33113363   1.438   4.154   1.675 -0.4975 -0.7339  0.3383
   37MOL   H33213364   0.911   4.461   1.461  0.2971  0.0721  0.7006
   37MOL   H33313365   1.081   4.421   1.465 -0.0571  0.2573 -1.9120
   37MOL   H33413366   0.966   4.170   1.461  1.4060  0.2887 -0.9361
   37MOL   H33513367   1.060   4.334   1.695 -1.2430 -0.6378  1.5065
   37MOL   H33613368   1.030   4.160   1.698  1.2050 -1.6957 -1.4347
   37MOL   H33713369   1.238   4.267   1.511 -0.2312  0.5849  0.2106
   37MOL   H33813370   1.195   4.105   1.553  1.7548  0.1403 -1.0923
   37MOL   H33913371   1.306   4.299   1.763 -2.3922  0.4181 -0.2627
   37MOL   H34013372   1.262   4.139   1.792  1.1997  0.4823  0.8358
   37MOL   H34113373   1.492   4.123   1.764  1.9793  2.6066  0.0774
   37MOL   H34213374   1.497   4.223   1.615  0.2515 -0.3860  1.4689
   37MOL   H34313375   1.436   4.066   1.610  2.2100 -0.5963  0.0305
   37MOL   C34413376   0.816   4.260   1.587 -0.2914  0.5340  0.0443
   37MOL   C34513377   0.778   4.118   1.639  0.4519 -0.1557 -0.0730
   37MOL   C34613378   0.626   4.100   1.657 -0.4567  0.3779  0.0900
   37MOL   C34713379   0.579   4.182   1.779  0.5458  1.2031 -0.1208
   37MOL   C34813380   0.429   4.157   1.810  0.1513 -0.2052 -0.1799
   37MOL   C34913381   0.356   4.250   1.915 -0.3792 -0.1942  0.1990
   37MOL   H35013382   0.818   4.335   1.666  0.2500 -1.4560  1.9631
   37MOL   H35113383   0.742   4.278   1.510  1.2344  1.5190 -1.2320
   37MOL   H35213384   0.836   4.096   1.729  0.7573 -0.2992 -0.3051
   37MOL   H35313385   0.585   4.126   1.560 -0.8998  1.9768  0.6805
   37MOL   H35413386   0.599   3.998   1.686 -1.4348  1.2969  2.5951
   37MOL   H35513387   0.635   4.159   1.869 -0.9776  0.6486  0.7021
   37MOL   H35613388   0.590   4.285   1.747  0.9049  1.4312  0.7271
   37MOL   H35713389   0.370   4.174   1.719 -0.5702 -1.0602  0.1152
   37MOL   H35813390   0.420   4.051   1.834 -0.3864  0.4694  2.7891
   37MOL   H35913391   0.404   4.247   2.013  1.6460 -1.0962 -0.7845
   37MOL   H36013392   0.369   4.354   1.884 -2.1710  0.8184  2.6758
   37MOL   H36113393   0.248   4.236   1.916 -0.1403 -2.1448 -0.8481
   37MOL   H36213394   0.815   4.039   1.574 -0.5679  0.0547 -0.9175
   38MOL     C113395   5.273   4.228   1.892  0.1076  0.8706 -0.4708
   38MOL     C213396   5.252   4.088   1.946  0.3266 -0.1322 -0.0211
   38MOL     C313397   5.123   4.022   1.893  0.4303 -0.7794  0.2214
   38MOL     C413398   5.131   4.006   1.741  0.4658  0.1244  0.1397
   38MOL     C513399   5.035   3.892   1.691  0.1701  0.2770 -0.0366
   38MOL     C613400   4.889   3.936   1.685 -0.2701  0.2442 -0.4666
   38MOL     H713401   5.366   4.268   1.933  0.3651 -0.0128 -0.1671
   38MOL     H813402   5.295   4.220   1.786  0.5361 -1.7510 -0.2225
   38MOL     H913403   5.329   4.017   1.916 -0.1276 -0.9094  0.6355
   38MOL    H1013404   5.038   4.085   1.920 -0.2548 -1.4064 -0.4558
   38MOL    H1113405   5.118   3.926   1.945 -0.3810 -1.0974 -0.4220
   38MOL    H1213406   5.233   3.971   1.722  1.3775  2.7932 -0.0166
   38MOL    H1313407   5.124   4.106   1.700  2.1516  0.5724  0.9079
   38MOL    H1413408   5.067   3.873   1.588 -0.9973  0.3029 -0.4168
   38MOL    H1513409   5.058   3.798   1.740  0.9596  1.1770  1.3403
   38MOL    H1613410   4.846   3.968   1.780 -3.1771 -1.5073 -1.1549
   38MOL    H1713411   4.816   3.860   1.660  0.5149 -0.4353 -0.7214
   38MOL    H1813412   4.880   4.016   1.611 -2.3227  2.3370  1.9737
   38MOL    H1913413   5.190   4.295   1.912  1.6461  2.9315 -0.8574
   38MOL    C2013414   5.232   4.086   2.100  0.2972 -1.1479  0.3044
   38MOL    C2113415   5.353   4.127   2.179 -0.8096 -0.0473 -0.1304
   38MOL    C2213416   5.332   4.129   2.340  0.2330  0.4147  0.0807
   38MOL    C2313417   5.219   4.216   2.382  0.3675  0.1899  0.2166
   38MOL    C2413418   5.206   4.234   2.538  0.9766 -0.3082 -0.4493
   38MOL    C2513419   5.107   4.340   2.581 -0.5536 -0.2793 -0.4626
   38MOL    H2613420   5.196   3.991   2.139 -0.9738 -1.0992 -0.7022
   38MOL    H2713421   5.146   4.149   2.122  0.1012 -1.7738  1.3822
   38MOL    H2813422   5.383   4.227   2.147 -0.7904 -0.0029  0.0278
   38MOL    H2913423   5.422   4.157   2.395  0.6136 -1.8272  0.6638
   38MOL    H3013424   5.304   4.027   2.366 -2.6538  1.2492  0.4967
   38MOL    H3113425   5.123   4.179   2.347  1.0151  0.1288 -1.5399
   38MOL    H3213426   5.236   4.316   2.341 -1.5651  1.2073  1.8122
   38MOL    H3313427   5.170   4.139   2.574  1.1336 -0.6499 -1.1816
   38MOL    H3413428   5.304   4.244   2.586  2.5570 -1.3450 -3.3256
   38MOL    H3513429   5.122   4.434   2.527 -0.1900  0.4972  0.9768
   38MOL    H3613430   4.999   4.320   2.575 -0.7512  0.5325  0.2757
   38MOL    H3713431   5.118   4.364   2.686  0.4956  0.6484 -0.7795
   38MOL    C3813432   5.478   4.040   2.152  0.3717 -0.1514 -0.2610
   38MOL    C3913433   5.626   4.107   2.148  0.6631  0.7988  0.0204
   38MOL    C4013434   5.727   3.999   2.190 -0.5322 -0.0922 -0.2215
   38MOL    C4113435   5.721   3.967   2.344 -0.0464  0.8479  0.3505
   38MOL    C4213436   5.781   4.063   2.448  0.7014 -0.1636  0.3904
   38MOL    C4313437   5.751   4.016   2.596 -0.6952 -0.1146 -0.1470
   38MOL    H4413438   5.473   3.983   2.059 -2.7369  1.0813 -0.9096
   38MOL    H4513439   5.460   3.954   2.217  0.5790 -0.9468 -1.2339
   38MOL    H4613440   5.621   4.184   2.225  0.7868  0.1062  0.7192
   38MOL    H4713441   5.714   3.906   2.135 -1.4282  1.0660 -2.0042
   38MOL    H4813442   5.828   4.037   2.170 -0.5406  1.7686  2.9079
   38MOL    H4913443   5.623   3.929   2.371  0.1198 -1.2045 -1.7640
   38MOL    H5013444   5.777   3.876   2.364 -2.1674 -0.3044  1.2139
   38MOL    H5113445   5.887   4.069   2.427  0.9203 -1.8820  0.8836
   38MOL    H5213446   5.747   4.165   2.435  0.4021 -0.3731 -0.4813
   38MOL    H5313447   5.767   3.909   2.597 -3.4062 -0.5795  3.2556
   38MOL    H5413448   5.650   4.042   2.626 -0.8558  1.2589 -1.7799
   38MOL    H5513449   5.816   4.058   2.673 -1.8412  1.4049  0.0315
   38MOL    C5613450   5.664   4.174   2.013 -0.4477 -0.4426  0.8927
   38MOL    C5713451   5.668   4.332   2.008  0.5377 -0.5970 -0.1208
   38MOL    C5813452   5.679   4.382   1.862  0.4480 -0.9393  0.3918
   38MOL    C5913453   5.805   4.331   1.784 -0.6107  0.0788  0.2718
   38MOL    C6013454   5.824   4.390   1.644  0.4879  0.2644 -0.2636
   38MOL    C6113455   5.935   4.309   1.562 -0.0825  0.6097 -0.0873
   38MOL    H6213456   5.761   4.138   1.977 -0.3574 -0.6543  1.3485
   38MOL    H6313457   5.592   4.142   1.937 -0.6227  1.9731 -0.0129
   38MOL    H6413458   5.567   4.361   2.034 -0.0718 -0.3333 -2.6762
   38MOL    H6513459   5.594   4.343   1.807 -0.5067 -0.0236  1.1896
   38MOL    H6613460   5.664   4.490   1.849 -0.5832 -0.9974  1.0552
   38MOL    H6713461   5.818   4.223   1.775 -0.5635 -0.2686  3.7907
   38MOL    H6813462   5.881   4.371   1.851 -0.9438  1.2012 -0.0039
   38MOL    H6913463   5.730   4.357   1.599 -0.1714 -1.6335  2.4049
   38MOL    H7013464   5.840   4.497   1.633 -0.2020  0.2673 -1.3680
   38MOL    H7113465   6.008   4.269   1.632  0.5206  2.3283  0.2878
   38MOL    H7213466   5.888   4.228   1.506 -0.8068  0.3065  0.9424
   38MOL    H7313467   5.991   4.371   1.492  2.9927 -0.7539  1.0756
   38MOL    C7413468   5.772   4.399   2.100 -0.2017  0.3455 -0.3603
   38MOL    C7513469   5.713   4.534   2.161 -0.4254 -0.0689  0.4850
   38MOL    C7613470   5.607   4.503   2.270 -0.1487 -0.0677 -0.3417
   38MOL    C7713471   5.525   4.620   2.310  0.0737  0.3096 -0.4683
   38MOL    C7813472   5.411   4.576   2.404  0.1182  0.5020 -0.2288
   38MOL    C7913473   5.329   4.693   2.452 -0.1268 -0.2161 -0.1452
   38MOL    H8013474   5.779   4.332   2.186 -0.3111  0.2306 -0.4416
   38MOL    H8113475   5.873   4.402   2.062  0.3301 -1.9852  0.7578
   38MOL    H8213476   5.657   4.592   2.087  0.2458 -0.2133 -0.1455
   38MOL    H8313477   5.538   4.430   2.229 -0.5102  0.3895 -0.5488
   38MOL    H8413478   5.653   4.463   2.360 -2.4829  1.1273  1.4534
   38MOL    H8513479   5.586   4.691   2.366 -0.4171  0.3061  0.0713
   38MOL    H8613480   5.485   4.670   2.221 -2.2406  0.2415  0.5025
   38MOL    H8713481   5.451   4.506   2.478  0.6339 -0.0083 -0.9760
   38MOL    H8813482   5.340   4.508   2.358  0.0570  0.9155 -0.7421
   38MOL    H8913483   5.276   4.738   2.368  0.8696  1.4505  0.0861
   38MOL    H9013484   5.254   4.667   2.526  1.4007 -2.0614  0.7847
   38MOL    H9113485   5.396   4.774   2.483  1.0061 -0.4704 -1.8096
   38MOL    C9213486   5.831   4.623   2.208  1.3372 -0.2258 -0.3840
   38MOL    C9313487   5.893   4.698   2.084  0.7478 -0.4513 -0.4228
   38MOL    C9413488   5.811   4.818   2.014  0.2865  0.3400  0.0478
   38MOL    C9513489   5.743   4.916   2.112  0.1560  0.7424 -0.4577
   38MOL    C9613490   5.651   5.021   2.049 -0.3816  0.1807  0.1385
   38MOL    C9713491   5.508   4.973   2.009 -0.0804  0.0334 -0.1169
   38MOL    H9813492   5.793   4.691   2.284  0.3150 -1.6309  0.3770
   38MOL    H9913493   5.905   4.553   2.248 -0.2590 -0.7749  1.6820
   38MOL   H10013494   5.912   4.622   2.009 -0.1858 -2.5819  1.4118
   38MOL   H10113495   5.726   4.782   1.956  0.6199 -0.2637 -0.0782
   38MOL   H10213496   5.874   4.879   1.949  1.7439 -1.2065 -0.0409
   38MOL   H10313497   5.695   4.861   2.193 -0.1224 -0.1646 -1.2261
   38MOL   H10413498   5.819   4.975   2.163  1.4643 -2.0939  0.9892
   38MOL   H10513499   5.638   5.106   2.115  2.1152  0.1074  0.7944
   38MOL   H10613500   5.704   5.065   1.965 -1.1337 -2.3074 -1.6888
   38MOL   H10713501   5.514   4.919   1.914 -1.7615 -0.0365 -0.2078
   38MOL   H10813502   5.452   4.905   2.073  0.1006  0.6950  0.7423
   38MOL   H10913503   5.436   5.054   1.992 -2.1862 -1.8590 -0.4987
   38MOL   C11013504   6.033   4.755   2.120 -0.8936  0.0121 -0.1429
   38MOL   C11113505   6.139   4.766   2.004 -0.2971 -0.7222 -0.7250
   38MOL   C11213506   6.155   4.637   1.924 -0.2523 -0.2862  0.3529
   38MOL   C11313507   6.251   4.643   1.798  0.4267 -0.0748 -0.5465
   38MOL   C11413508   6.280   4.509   1.723 -0.2408  0.3673  0.1439
   38MOL   C11513509   6.350   4.538   1.584  0.1473 -0.0348 -0.0677
   38MOL   H11613510   6.008   4.848   2.172 -1.2459 -0.6893  0.9664
   38MOL   H11713511   6.073   4.710   2.211  0.4037  1.3453 -0.0250
   38MOL   H11813512   6.101   4.839   1.933 -0.6802  0.6010  0.8231
   38MOL   H11913513   6.062   4.616   1.872 -0.0656 -1.2432  0.3859
   38MOL   H12013514   6.184   4.557   1.991 -0.3568 -0.5062  0.1371
   38MOL   H12113515   6.344   4.697   1.817  0.7802 -0.4265 -1.2609
   38MOL   H12213516   6.217   4.704   1.714 -0.0419 -0.9659 -1.0070
   38MOL   H12313517   6.185   4.459   1.703  0.7151 -1.3450 -0.2605
   38MOL   H12413518   6.349   4.441   1.773 -0.3983 -0.0105 -0.1486
   38MOL   H12513519   6.337   4.464   1.506 -0.4565  0.2221 -0.2086
   38MOL   H12613520   6.310   4.625   1.533  0.0667 -0.3271 -0.4998
   38MOL   H12713521   6.453   4.573   1.592  0.6401 -1.5338  0.3387
   38MOL   C12813522   6.272   4.821   2.047  0.2568 -0.4082  0.5188
   38MOL   C12913523   6.267   4.957   2.127 -0.4773  0.2044 -0.5649
   38MOL   C13013524   6.208   5.073   2.043  0.2400  0.2109 -0.1230
   38MOL   C13113525   6.131   5.175   2.123  0.9833 -0.0816 -0.4440
   38MOL   C13213526   6.079   5.290   2.035  0.2716  0.2375 -0.1957
   38MOL   C13313527   6.185   5.380   1.965  0.1909  0.1163  0.0310
   38MOL   H13413528   6.327   4.847   1.956 -0.5938 -3.1326 -0.8561
   38MOL   H13513529   6.345   4.753   2.091  1.2656 -0.2399 -0.8392
   38MOL   H13613530   6.192   4.943   2.204  1.0549 -0.8889  0.7724
   38MOL   H13713531   6.299   5.122   2.007 -1.0755  0.9073 -2.5912
   38MOL   H13813532   6.156   5.043   1.952 -0.1324 -1.8467  0.7480
   38MOL   H13913533   6.192   5.200   2.211 -0.4581 -0.0306  0.5525
   38MOL   H14013534   6.043   5.129   2.167  0.6957 -0.1292 -1.0770
   38MOL   H14113535   6.019   5.242   1.958  0.5018 -0.2421 -0.0779
   38MOL   H14213536   6.010   5.348   2.097 -0.9245 -2.3833  0.9760
   38MOL   H14313537   6.202   5.327   1.871 -0.4316  0.6064 -0.3614
   38MOL   H14413538   6.278   5.394   2.021 -0.8336  3.0984  1.0534
   38MOL   H14513539   6.145   5.478   1.939  1.9593  1.2505  1.4991
   38MOL   C14613540   6.398   4.985   2.203 -0.6986 -0.5715 -0.4040
   38MOL   C14713541   6.441   4.898   2.329  0.1690  0.5162  0.0817
   38MOL   C14813542   6.338   4.894   2.443  0.7173 -0.3532 -0.1418
   38MOL   C14913543   6.332   4.760   2.522  0.2665  0.4385 -0.3214
   38MOL   C15013544   6.240   4.749   2.645  0.7896 -0.5111 -0.6024
   38MOL   C15113545   6.095   4.738   2.598 -0.1915 -0.1822 -0.6836
   38MOL   H15213546   6.476   4.983   2.126 -1.1293  1.3142 -0.9129
   38MOL   H15313547   6.392   5.091   2.228 -2.0196 -0.7566  0.0645
   38MOL   H15413548   6.426   4.798   2.288  1.0883  0.4137 -0.0336
   38MOL   H15513549   6.236   4.919   2.414  0.3685  0.7092  1.9366
   38MOL   H15613550   6.376   4.971   2.510 -0.4089  0.1703 -0.1022
   38MOL   H15713551   6.312   4.679   2.452  1.0779 -1.2734  1.3470
   38MOL   H15813552   6.432   4.733   2.557 -0.2900 -0.4843  0.5981
   38MOL   H15913553   6.257   4.831   2.715 -1.0225  0.7335 -1.5665
   38MOL   H16013554   6.260   4.655   2.696 -0.0876 -2.2965 -3.4355
   38MOL   H16113555   6.080   4.647   2.540 -1.7351  0.9220 -2.0668
   38MOL   H16213556   6.031   4.737   2.686  1.2067 -0.0716  0.3480
   38MOL   H16313557   6.067   4.827   2.541  3.2426  0.6221 -1.2124
   38MOL   C16413558   6.587   4.928   2.376  0.3790  1.0602  0.4316
   38MOL   C16513559   6.686   4.835   2.299  0.2415 -0.0239  0.2519
   38MOL   C16613560   6.831   4.898   2.291  1.0254 -0.7360 -0.0526
   38MOL   C16713561   6.837   5.005   2.187 -0.0250  0.4887 -0.7640
   38MOL   C16813562   6.974   5.068   2.160  0.0144  0.5337  0.9193
   38MOL   C16913563   6.957   5.179   2.064 -0.0665 -0.3166  0.0791
   38MOL   H17013564   6.603   5.033   2.353  0.6836  1.1345  0.9846
   38MOL   H17113565   6.599   4.917   2.484 -0.5331  0.1782  0.4486
   38MOL   H17213566   6.654   4.811   2.198 -2.0856 -0.3348  1.0308
   38MOL   H17313567   6.913   4.831   2.264  2.3648 -0.7862  3.7913
   38MOL   H17413568   6.865   4.930   2.390  1.7865 -0.1919 -0.4818
   38MOL   H17513569   6.777   5.090   2.217 -1.3644 -1.0968  1.2248
   38MOL   H17613570   6.788   4.973   2.095 -0.3347 -2.5566  0.3776
   38MOL   H17713571   7.045   4.991   2.129 -2.0183 -1.1668  0.4184
   38MOL   H17813572   7.005   5.114   2.254 -1.7811  3.1803  0.2711
   38MOL   H17913573   7.048   5.239   2.054  1.0948 -1.4147  3.4871
   38MOL   H18013574   6.891   5.252   2.113  1.1081  1.1152 -0.4240
   38MOL   H18113575   6.918   5.142   1.970 -0.1546  3.1216 -1.3268
   38MOL   C18213576   6.688   4.693   2.374  0.0811 -0.6191  0.0538
   38MOL   C18313577   6.770   4.574   2.308  0.9366 -0.6396 -0.0455
   38MOL   C18413578   6.718   4.534   2.170 -0.7134  0.3526  0.2542
   38MOL   C18513579   6.588   4.452   2.167  1.3647  0.6435  0.0911
   38MOL   C18613580   6.533   4.462   2.029 -0.1488  0.6078 -0.1154
   38MOL   C18713581   6.632   4.434   1.907 -0.0968 -0.1617 -0.1976
   38MOL   H18813582   6.712   4.695   2.480 -1.4275 -2.1558  0.4482
   38MOL   H18913583   6.586   4.654   2.376  0.4453 -1.4949  3.5183
   38MOL   H19013584   6.873   4.608   2.300  1.3567 -2.1679 -1.5080
   38MOL   H19113585   6.709   4.623   2.109 -0.5683  0.8465  0.9484
   38MOL   H19213586   6.796   4.472   2.125  1.0582  2.7280 -0.0150
   38MOL   H19313587   6.517   4.495   2.239  1.3482 -0.8298  0.9674
   38MOL   H19413588   6.596   4.349   2.202 -0.5460  0.1544 -0.8442
   38MOL   H19513589   6.487   4.559   2.010 -2.6478 -0.6649 -0.8034
   38MOL   H19613590   6.452   4.391   2.012  2.6120 -2.8755  0.7641
   38MOL   H19713591   6.601   4.388   1.813  0.1941 -1.4418  0.3216
   38MOL   H19813592   6.707   4.357   1.925  1.4869  0.6597 -2.8742
   38MOL   H19913593   6.699   4.519   1.891  1.3345 -1.3163 -0.3998
   38MOL   C20013594   6.779   4.457   2.406 -0.1301  0.2914 -0.3962
   38MOL   C20113595   6.874   4.333   2.374 -0.2701 -0.0509  0.6416
   38MOL   C20213596   7.012   4.372   2.312 -0.4565  0.9007 -0.1099
   38MOL   C20313597   7.128   4.431   2.405  0.2981  0.2147 -0.0425
   38MOL   C20413598   7.272   4.444   2.337 -0.1019 -0.1508  0.2299
   38MOL   C20513599   7.265   4.512   2.203  0.6512 -0.8308  0.7581
   38MOL   H20613600   6.677   4.419   2.416  0.0343  0.7646  3.5278
   38MOL   H20713601   6.806   4.501   2.502  0.4808 -0.7119 -0.1001
   38MOL   H20813602   6.823   4.277   2.296 -0.6432 -1.6296  1.9937
   38MOL   H20913603   7.005   4.433   2.223  1.6797  1.7457  0.2598
   38MOL   H21013604   7.049   4.281   2.263 -0.1105  1.4490 -0.8720
   38MOL   H21113605   7.128   4.371   2.496  1.6723 -0.3559 -0.4101
   38MOL   H21213606   7.099   4.531   2.440 -0.5497 -0.3426  0.8898
   38MOL   H21313607   7.323   4.349   2.319 -1.8842 -1.1086  0.0840
   38MOL   H21413608   7.331   4.502   2.409 -1.2040  0.0100  1.0144
   38MOL   H21513609   7.369   4.524   2.174  0.1801 -0.6457 -0.8688
   38MOL   H21613610   7.210   4.447   2.135 -0.1725  0.2335  0.4003
   38MOL   H21713611   7.212   4.607   2.204 -1.7595 -2.1169 -0.9110
   38MOL   C21813612   6.884   4.234   2.493 -0.0936  0.2453  0.4538
   38MOL   C21913613   6.981   4.111   2.478 -0.1820  0.0602 -0.5629
   38MOL   C22013614   6.912   4.023   2.371 -0.1364  0.1631  0.2784
   38MOL   C22113615   6.992   3.891   2.344 -0.5704 -0.3642 -0.2469
   38MOL   C22213616   6.968   3.823   2.210 -0.3647 -0.8023  0.3690
   38MOL   C22313617   6.827   3.781   2.172  0.8788 -0.9444 -0.0083
   38MOL   H22413618   6.933   4.290   2.573 -2.2461  0.9373  1.3259
   38MOL   H22513619   6.782   4.215   2.526 -0.3814 -1.3209 -1.2586
   38MOL   H22613620   7.077   4.146   2.441 -0.4349  0.2159 -1.0802
   38MOL   H22713621   6.903   4.076   2.276  0.6901  0.0245  0.1186
   38MOL   H22813622   6.808   3.999   2.390  0.2115 -0.2117  1.7654
   38MOL   H22913623   6.955   3.824   2.422 -1.5317 -1.2925 -1.4768
   38MOL   H23013624   7.100   3.900   2.336 -0.4794  2.1953  2.9440
   38MOL   H23113625   6.990   3.891   2.127  1.3811 -0.9502  0.6824
   38MOL   H23213626   7.034   3.738   2.191  0.9798  0.5280 -1.1548
   38MOL   H23313627   6.782   3.712   2.244 -1.4669  0.4380 -0.1214
   38MOL   H23413628   6.824   3.736   2.073 -0.4402  1.1471 -0.9469
   38MOL   H23513629   6.763   3.868   2.160 -1.4438 -2.3358  1.7350
   38MOL   C23613630   6.990   4.047   2.622 -0.8026 -0.1055 -0.1579
   38MOL   C23713631   7.088   4.104   2.727  0.6407  0.5706  0.0143
   38MOL   C23813632   7.232   4.140   2.671 -0.5581  0.5849  0.3084
   38MOL   C23913633   7.326   4.219   2.764 -0.6508  0.0698  0.0085
   38MOL   C24013634   7.441   4.291   2.684  0.0575  0.0470  0.3088
   38MOL   C24113635   7.536   4.362   2.778  0.6536 -0.2368  0.2566
   38MOL   H24213636   6.887   4.038   2.658 -1.0643  0.5131 -0.7327
   38MOL   H24313637   7.025   3.944   2.618 -0.3970 -0.0695  2.2514
   38MOL   H24413638   7.048   4.202   2.754 -0.0846 -0.3733  2.5436
   38MOL   H24513639   7.279   4.044   2.652  0.2831  0.7172  1.6465
   38MOL   H24613640   7.226   4.205   2.584 -0.7468 -2.7598 -2.2420
   38MOL   H24713641   7.372   4.151   2.836  0.4091 -0.3618 -1.0754
   38MOL   H24813642   7.270   4.283   2.833  0.2484  1.6764 -0.7212
   38MOL   H24913643   7.498   4.216   2.630  0.1565 -0.5109  1.1704
   38MOL   H25013644   7.393   4.360   2.614  0.4123 -1.2606 -1.2508
   38MOL   H25113645   7.630   4.388   2.730  2.5154 -0.0442  3.8773
   38MOL   H25213646   7.494   4.453   2.820  1.9253  1.5702 -2.2095
   38MOL   H25313647   7.576   4.309   2.864  0.7313 -0.5147  0.0523
   38MOL   C25413648   7.076   4.020   2.855 -0.8931 -0.1076 -0.3452
   38MOL   C25513649   6.948   4.036   2.946 -0.0667 -0.3588 -0.4409
   38MOL   C25613650   6.914   4.189   2.970  1.0205 -0.0500  0.6833
   38MOL   C25713651   7.014   4.274   3.063  0.1187 -0.2075 -0.1152
   38MOL   C25813652   6.982   4.425   3.072  0.1034  0.0600  0.1014
   38MOL   C25913653   6.854   4.449   3.151 -0.5684  0.4788  0.2405
   38MOL   H26013654   7.174   4.036   2.902 -1.2956  0.1564  0.4151
   38MOL   H26113655   7.076   3.915   2.829 -0.2930  0.3153 -2.1191
   38MOL   H26213656   6.865   3.995   2.888  0.5069 -0.9482 -0.8505
   38MOL   H26313657   6.897   4.238   2.874  0.7728 -0.2255  0.6358
   38MOL   H26413658   6.813   4.201   3.010  1.1723 -0.0326  1.0606
   38MOL   H26513659   7.014   4.238   3.165 -0.5239 -2.4922 -0.9050
   38MOL   H26613660   7.118   4.271   3.030 -0.3110  0.0038 -1.5476
   38MOL   H26713661   6.968   4.477   2.977  1.3311  0.7872  0.2945
   38MOL   H26813662   7.058   4.475   3.132  1.8158 -0.0419 -1.9201
   38MOL   H26913663   6.864   4.391   3.243  1.6155  0.3777 -0.0185
   38MOL   H27013664   6.768   4.413   3.095 -0.0246 -1.6522  0.7188
   38MOL   H27113665   6.854   4.556   3.175  1.8681  0.6951 -0.5663
   38MOL   C27213666   6.962   3.957   3.080  0.3462 -0.1400 -0.1190
   38MOL   C27313667   6.836   3.926   3.171 -0.4436 -0.2869  0.9029
   38MOL   C27413668   6.825   4.023   3.290  0.5071  1.0517  0.6699
   38MOL   C27513669   6.926   4.013   3.407 -0.6734 -0.3793 -0.1069
   38MOL   C27613670   6.884   4.100   3.531  0.2038  0.2630  0.3274
   38MOL   C27713671   6.949   4.079   3.668  0.9094 -0.5241  0.0451
   38MOL   H27813672   6.985   3.857   3.043 -1.7068 -1.0360  0.9388
   38MOL   H27913673   7.055   3.985   3.129  1.8099 -2.2142 -1.6133
   38MOL   H28013674   6.746   3.934   3.109 -0.4731 -1.3737  0.7950
   38MOL   H28113675   6.727   4.006   3.335  1.3498 -0.8999  1.8297
   38MOL   H28213676   6.824   4.123   3.246  2.2738  0.6433 -0.3506
   38MOL   H28313677   7.022   4.048   3.371  0.2258 -1.6890  0.9836
   38MOL   H28413678   6.937   3.909   3.436  2.4991  0.1699  0.8325
   38MOL   H28513679   6.907   4.205   3.509  1.7905 -0.5062 -1.7896
   38MOL   H28613680   6.776   4.107   3.548  0.2982  0.9728  0.6689
   38MOL   H28713681   7.056   4.093   3.655  0.8482 -0.0279  0.0948
   38MOL   H28813682   6.908   4.131   3.754 -2.1999  2.3455 -3.0137
   38MOL   H28913683   6.932   3.973   3.689 -1.8070 -0.0280  0.5934
   38MOL   C29013684   6.844   3.778   3.220 -0.2532 -0.1557  0.3862
   38MOL   C29113685   6.792   3.682   3.109 -0.2461  0.2012  0.9041
   38MOL   C29213686   6.898   3.570   3.089 -0.3031 -0.1285 -0.7954
   38MOL   C29313687   6.900   3.463   3.201  0.1453 -0.3841 -0.1338
   38MOL   C29413688   7.002   3.356   3.171  0.2094  0.4377 -0.2427
   38MOL   C29513689   6.982   3.229   3.248 -0.2634 -0.1301 -0.7336
   38MOL   H29613690   6.781   3.776   3.309 -1.1432 -0.6870 -0.2562
   38MOL   H29713691   6.947   3.765   3.255  0.5361 -0.2797 -1.8671
   38MOL   H29813692   6.790   3.730   3.011 -2.4392  1.3889  1.4986
   38MOL   H29913693   6.996   3.617   3.082 -0.2035 -0.4431 -1.5167
   38MOL   H30013694   6.879   3.517   2.996 -1.8223  0.4764 -0.8381
   38MOL   H30113695   6.909   3.509   3.299  0.3065 -0.8495  0.0739
   38MOL   H30213696   6.804   3.413   3.199  0.7908 -1.7210  1.6607
   38MOL   H30313697   7.100   3.403   3.181  0.4107  0.6399 -2.7795
   38MOL   H30413698   6.992   3.327   3.066 -1.9691  0.0420  0.0547
   38MOL   H30513699   6.975   3.257   3.353 -0.8325  0.4339 -0.9162
   38MOL   H30613700   7.067   3.162   3.256  1.0666  1.2246 -2.7904
   38MOL   H30713701   6.890   3.174   3.227  0.2952 -0.3272 -2.7949
   38MOL   C30813702   6.648   3.630   3.118 -0.4594 -0.1051  1.0886
   38MOL   C30913703   6.536   3.738   3.131 -0.3191 -0.6981  0.1480
   38MOL   C31013704   6.399   3.679   3.186 -0.1084  0.1375  0.3529
   38MOL   C31113705   6.413   3.613   3.327 -0.3222 -0.0752 -0.4432
   38MOL   C31213706   6.287   3.577   3.392 -0.0021 -0.0820  0.9396
   38MOL   C31313707   6.318   3.494   3.517  0.7769  0.4094 -0.5325
   38MOL   H31413708   6.634   3.566   3.030  3.6096 -0.2095  0.4153
   38MOL   H31513709   6.640   3.560   3.201  0.5742  0.5058  1.7214
   38MOL   H31613710   6.571   3.799   3.214  1.7404  2.3582 -2.8352
   38MOL   H31713711   6.360   3.606   3.115 -2.4227  2.5450 -0.9354
   38MOL   H31813712   6.325   3.759   3.181  0.9688  1.2550  1.6219
   38MOL   H31913713   6.468   3.686   3.388  2.4395 -3.6532  1.5430
   38MOL   H32013714   6.464   3.517   3.332  1.9010  1.0291 -1.2189
   38MOL   H32113715   6.228   3.667   3.412 -1.4775 -0.8779  0.2458
   38MOL   H32213716   6.221   3.521   3.326  1.5276 -0.2741 -0.4611
   38MOL   H32313717   6.241   3.508   3.593  0.1886  2.0360 -1.4149
   38MOL   H32413718   6.415   3.528   3.554  0.4048  1.3777 -0.4328
   38MOL   H32513719   6.318   3.390   3.483 -0.2684  1.1662 -2.9019
   38MOL   C32613720   6.513   3.822   2.998  1.0901 -0.3145  0.7625
   38MOL   C32713721   6.412   3.936   2.999  0.4165  0.1908 -0.5225
   38MOL   C32813722   6.445   4.049   3.107  0.3474  0.2051  0.0300
   38MOL   C32913723   6.342   4.165   3.130 -0.8954 -0.3286 -0.1169
   38MOL   C33013724   6.189   4.130   3.139 -0.0756  0.1840 -0.4400
   38MOL   C33113725   6.159   4.047   3.261 -0.1669  0.4834 -0.4650
   38MOL   H33213726   6.477   3.749   2.925  0.5669 -0.3093  1.0180
   38MOL   H33313727   6.606   3.856   2.952  0.0968  1.5278  0.0636
   38MOL   H33413728   6.314   3.904   3.035  0.2846 -0.5897 -1.5424
   38MOL   H33513729   6.459   3.993   3.200 -2.0346 -0.0692  0.2398
   38MOL   H33613730   6.543   4.090   3.082  0.0548  1.0079  0.1802
   38MOL   H33713731   6.351   4.241   3.052  0.2764  0.1788  0.5010
   38MOL   H33813732   6.364   4.218   3.223 -0.8898 -0.3817 -0.0883
   38MOL   H33913733   6.134   4.224   3.144  0.2618  0.4618 -1.7508
   38MOL   H34013734   6.152   4.082   3.049 -0.7039  1.0985 -0.6774
   38MOL   H34113735   6.244   4.062   3.328 -0.4203  0.2378 -0.0943
   38MOL   H34213736   6.141   3.941   3.250  0.7292  0.3469 -0.6582
   38MOL   H34313737   6.071   4.081   3.315 -0.9724 -1.2267 -0.6753
   38MOL   C34413738   6.397   4.004   2.858 -0.5995 -0.2841 -0.5081
   38MOL   C34513739   6.312   3.932   2.754  0.0349  0.6645 -0.2125
   38MOL   C34613740   6.174   3.873   2.804 -0.0602 -1.0180 -0.7170
   38MOL   C34713741   6.079   3.816   2.688  0.8562 -0.3560 -0.2132
   38MOL   C34813742   6.150   3.709   2.593  0.3975 -0.1367  0.5276
   38MOL   C34913743   6.211   3.590   2.668  0.6090 -0.2278 -0.5229
   38MOL   H35013744   6.342   4.097   2.870  0.4339  0.4529 -1.2466
   38MOL   H35113745   6.498   4.026   2.822  0.8757 -2.3789  2.1698
   38MOL   H35213746   6.364   3.852   2.701  0.7092 -0.1010  1.5941
   38MOL   H35313747   6.191   3.789   2.871  1.7633 -0.6008 -0.6369
   38MOL   H35413748   6.122   3.949   2.862 -0.0510 -0.6516 -1.1925
   38MOL   H35513749   5.990   3.770   2.729  0.3695  0.2264 -0.6047
   38MOL   H35613750   6.038   3.893   2.623  0.5931 -0.8684 -0.6574
   38MOL   H35713751   6.075   3.660   2.531  1.9503  1.4485 -2.7106
   38MOL   H35813752   6.227   3.757   2.534 -1.4337  0.8822 -1.1090
   38MOL   H35913753   6.244   3.516   2.594 -1.0804 -1.0424 -0.4984
   38MOL   H36013754   6.300   3.631   2.716 -0.5599 -0.2641  1.7140
   38MOL   H36113755   6.145   3.540   2.739 -0.1706 -1.3703 -2.0120
   38MOL   H36213756   6.277   4.004   2.679 -0.8692  1.2842  0.8014
   39MOL     C113757   6.248   2.555   4.531 -0.0070  0.0994  0.2133
   39MOL     C213758   6.287   2.702   4.556  0.1691  0.5179  0.4545
   39MOL     C313759   6.295   2.778   4.427 -0.1922  0.0364  0.5590
   39MOL     C413760   6.166   2.834   4.374 -0.5771 -0.1593 -0.7373
   39MOL     C513761   6.102   2.965   4.432 -0.5674 -0.1120 -0.4266
   39MOL     C613762   5.971   3.013   4.374  0.1719  0.4609  0.4155
   39MOL     H713763   6.149   2.546   4.487  0.3517  1.0185 -0.8149
   39MOL     H813764   6.325   2.505   4.471  1.5917  2.7751 -0.0596
   39MOL     H913765   6.214   2.756   4.617  0.7118  1.9385 -0.1483
   39MOL    H1013766   6.352   2.721   4.354 -0.0760 -1.9018  2.1105
   39MOL    H1113767   6.365   2.857   4.452 -0.0324  0.3007 -0.6925
   39MOL    H1213768   6.090   2.757   4.369 -1.3152  0.3799  1.2791
   39MOL    H1313769   6.186   2.863   4.271  0.2818  1.9019 -0.0216
   39MOL    H1413770   6.074   2.949   4.536  0.5601 -0.1064 -0.1187
   39MOL    H1513771   6.174   3.046   4.420  0.2841 -1.1834 -2.7551
   39MOL    H1613772   5.898   2.933   4.382  2.0623 -1.4054 -0.5298
   39MOL    H1713773   5.970   3.038   4.268  0.1044  4.7174  1.3473
   39MOL    H1813774   5.940   3.104   4.425 -0.0740  0.4598  0.2706
   39MOL    H1913775   6.245   2.490   4.619  1.1782 -0.8013 -0.3965
   39MOL    C2013776   6.422   2.702   4.636 -0.3352 -0.4463 -0.0227
   39MOL    C2113777   6.450   2.829   4.722  0.1759  0.2363 -0.4007
   39MOL    C2213778   6.362   2.834   4.854 -0.4443 -0.9469 -0.1807
   39MOL    C2313779   6.376   2.961   4.934  0.0259  0.3329 -0.7603
   39MOL    C2413780   6.335   3.090   4.867 -0.1717  0.2387 -0.1679
   39MOL    C2513781   6.345   3.211   4.960 -0.2037 -0.0303  0.0247
   39MOL    H2613782   6.497   2.705   4.556 -0.1648 -1.1728  0.1124
   39MOL    H2713783   6.456   2.619   4.697 -2.0811 -0.7977  0.4681
   39MOL    H2813784   6.422   2.913   4.658 -0.6787 -0.0240 -0.3759
   39MOL    H2913785   6.374   2.747   4.919  0.7944 -1.5873 -1.2475
   39MOL    H3013786   6.254   2.825   4.837 -0.6408  1.1340 -0.2486
   39MOL    H3113787   6.471   2.957   4.989  0.6680  0.1376 -1.8647
   39MOL    H3213788   6.300   2.957   5.012 -3.3276 -0.0416 -3.9159
   39MOL    H3313789   6.398   3.106   4.778 -0.1923 -0.8807 -0.3870
   39MOL    H3413790   6.232   3.073   4.836  0.4648 -3.7155 -0.3162
   39MOL    H3513791   6.323   3.303   4.906  0.8989  0.5975  0.6170
   39MOL    H3613792   6.282   3.212   5.049 -0.0765 -1.1832  0.1399
   39MOL    H3713793   6.442   3.236   5.004 -0.0563  0.5622 -0.6333
   39MOL    C3813794   6.605   2.848   4.749 -0.1155  1.0310 -0.6044
   39MOL    C3913795   6.706   2.873   4.634 -0.7870 -0.2848  0.1924
   39MOL    C4013796   6.642   2.968   4.527 -0.3698  0.1559 -0.2611
   39MOL    C4113797   6.735   2.973   4.403  0.0629 -0.0651 -0.3978
   39MOL    C4213798   6.676   3.057   4.287  0.1636 -0.4471  0.1137
   39MOL    C4313799   6.772   3.067   4.167  0.2601  0.1623  0.0034
   39MOL    H4413800   6.636   2.771   4.819  1.6367  0.5450 -1.9109
   39MOL    H4513801   6.608   2.942   4.806  0.8430  0.7019 -0.0983
   39MOL    H4613802   6.715   2.779   4.579 -0.2087 -0.4744  0.6073
   39MOL    H4713803   6.552   2.920   4.489  1.6906 -3.6693 -0.5779
   39MOL    H4813804   6.617   3.067   4.563 -1.2289  0.5842 -1.9564
   39MOL    H4913805   6.834   3.004   4.435 -0.4435 -0.0062  1.1896
   39MOL    H5013806   6.750   2.877   4.353  1.2376  0.4378 -1.0255
   39MOL    H5113807   6.579   3.023   4.250 -1.7587  0.3451  4.0774
   39MOL    H5213808   6.666   3.164   4.306 -0.6059 -0.3788 -0.6459
   39MOL    H5313809   6.876   3.083   4.197  0.7859  0.3119 -1.8350
   39MOL    H5413810   6.730   3.129   4.087 -1.1600 -0.0451  0.5811
   39MOL    H5513811   6.780   2.967   4.124  1.4718  0.6318 -0.9284
   39MOL    C5613812   6.841   2.928   4.692 -0.8795  0.2138 -0.4484
   39MOL    C5713813   6.916   2.834   4.789 -0.4809 -0.7315  0.2226
   39MOL    C5813814   7.011   2.915   4.880  0.3217 -0.2445  0.3997
   39MOL    C5913815   6.940   2.973   5.004 -0.0985  0.2296 -0.4423
   39MOL    C6013816   7.043   3.042   5.094 -0.5970 -0.0629 -0.9605
   39MOL    C6113817   6.987   3.091   5.226 -0.2795 -0.1635  0.1704
   39MOL    H6213818   6.907   2.949   4.608 -1.1008  0.1419 -0.6413
   39MOL    H6313819   6.812   3.020   4.743  0.3678  0.9274 -0.9973
   39MOL    H6413820   6.850   2.780   4.857 -3.8885  1.5815 -1.0845
   39MOL    H6513821   7.090   2.845   4.904  1.5222 -0.3437 -3.4504
   39MOL    H6613822   7.065   2.998   4.833  1.3360 -0.9063  0.4012
   39MOL    H6713823   6.893   2.892   5.060 -0.1880 -1.2759 -2.6491
   39MOL    H6813824   6.860   3.041   4.976 -0.3592  0.4323  0.7418
   39MOL    H6913825   7.134   2.984   5.106  0.2365  1.6973  1.7364
   39MOL    H7013826   7.072   3.132   5.039 -0.8324 -0.3651 -1.5916
   39MOL    H7113827   6.919   3.173   5.206  0.1689  0.8162  2.5295
   39MOL    H7213828   6.941   3.014   5.289  0.3203 -0.6096  0.0735
   39MOL    H7313829   7.054   3.148   5.290  0.3629  0.5300 -1.0968
   39MOL    C7413830   7.001   2.738   4.703  0.4487  0.0907 -0.1423
   39MOL    C7513831   7.046   2.606   4.789  0.2843  0.4600  0.3429
   39MOL    C7613832   6.939   2.511   4.849  0.0759 -0.6097 -0.0297
   39MOL    C7713833   6.829   2.478   4.746 -0.1274 -0.2493 -0.6573
   39MOL    C7813834   6.714   2.399   4.799 -0.4348 -0.6178  0.1158
   39MOL    C7913835   6.619   2.364   4.688  0.8548  0.3249  0.1766
   39MOL    H8013836   6.944   2.706   4.616 -1.0219 -0.1311  0.8866
   39MOL    H8113837   7.081   2.800   4.664  1.4726 -0.9669  0.2584
   39MOL    H8213838   7.103   2.638   4.877  0.0298 -0.4795  0.8561
   39MOL    H8313839   6.972   2.415   4.889  0.3269  0.7033  3.1128
   39MOL    H8413840   6.877   2.547   4.932  0.6107  1.9201 -0.6791
   39MOL    H8513841   6.787   2.571   4.708 -0.4126 -0.2363 -0.3023
   39MOL    H8613842   6.873   2.434   4.656 -0.1037 -0.0399 -0.7488
   39MOL    H8713843   6.669   2.475   4.863  0.5835  0.3982 -0.3666
   39MOL    H8813844   6.737   2.305   4.849  1.1590 -0.6438 -0.6308
   39MOL    H8913845   6.615   2.454   4.627 -0.8267  1.0795  1.3399
   39MOL    H9013846   6.651   2.294   4.612 -0.8261 -0.2408 -0.0312
   39MOL    H9113847   6.519   2.331   4.716  0.2442  1.1878 -0.9661
   39MOL    C9213848   7.144   2.519   4.700 -0.2219  0.1005 -0.1701
   39MOL    C9313849   7.228   2.402   4.766  0.3252  1.2115 -0.0596
   39MOL    C9413850   7.325   2.333   4.665  0.2732  0.3306 -0.4378
   39MOL    C9513851   7.440   2.420   4.610 -0.2669 -0.4832  0.6790
   39MOL    C9613852   7.504   2.349   4.491 -0.5094 -0.0237 -0.4918
   39MOL    C9713853   7.414   2.341   4.368  0.2421  0.7528 -0.1543
   39MOL    H9813854   7.100   2.481   4.607  0.0686 -0.5807 -0.0381
   39MOL    H9913855   7.217   2.592   4.667  1.6147 -1.4040  0.5069
   39MOL   H10013856   7.150   2.333   4.799  0.3462  1.0808 -0.2784
   39MOL   H10113857   7.258   2.296   4.587 -0.5857  2.0493 -0.5340
   39MOL   H10213858   7.357   2.240   4.713  2.1117 -0.3589 -2.9228
   39MOL   H10313859   7.391   2.510   4.574 -0.8722 -1.8298 -1.9471
   39MOL   H10413860   7.514   2.438   4.688 -0.0389  1.4942  0.0379
   39MOL   H10513861   7.601   2.392   4.467 -0.4960 -1.1904 -2.6500
   39MOL   H10613862   7.522   2.246   4.524 -0.0575  0.0885 -0.3848
   39MOL   H10713863   7.325   2.279   4.381  2.1778 -2.0944 -0.0445
   39MOL   H10813864   7.370   2.440   4.355 -2.6061 -0.6250 -1.4358
   39MOL   H10913865   7.462   2.304   4.277 -1.3393  1.0109 -1.1019
   39MOL   C11013866   7.311   2.442   4.896 -0.1896  0.0385 -0.5601
   39MOL   C11113867   7.247   2.420   5.033  0.1277  0.2881  0.5915
   39MOL   C11213868   7.340   2.487   5.144  0.1968  0.5586 -0.0983
   39MOL   C11313869   7.330   2.641   5.153  0.1943 -0.2962 -0.1698
   39MOL   C11413870   7.426   2.704   5.255 -0.5807  0.3019  0.2076
   39MOL   C11513871   7.402   2.660   5.394 -0.4073  0.1362  0.2301
   39MOL   H11613872   7.413   2.403   4.896  0.2163  1.0672  0.2860
   39MOL   H11713873   7.313   2.551   4.883 -1.1171 -0.1074 -2.0966
   39MOL   H11813874   7.151   2.472   5.032  0.9628  1.8878 -0.5745
   39MOL   H11913875   7.439   2.444   5.127  0.2886  0.7025  0.0816
   39MOL   H12013876   7.310   2.450   5.241 -0.6719 -1.0419 -0.9551
   39MOL   H12113877   7.225   2.668   5.169  1.0062  2.5034  0.7311
   39MOL   H12213878   7.346   2.685   5.055 -3.5661 -0.4754 -0.9428
   39MOL   H12313879   7.420   2.812   5.238 -2.3062  0.1591 -0.1245
   39MOL   H12413880   7.528   2.679   5.227 -1.2175 -0.8526 -1.1245
   39MOL   H12513881   7.478   2.710   5.453  0.9254 -0.0355 -1.3303
   39MOL   H12613882   7.302   2.681   5.433 -0.3558 -0.0422  0.4539
   39MOL   H12713883   7.416   2.552   5.404  2.2490  0.5997  1.9985
   39MOL   C12813884   7.213   2.268   5.070 -0.1847  0.2046  0.2997
   39MOL   C12913885   7.060   2.230   5.087 -0.0646 -0.2405 -0.2215
   39MOL   C13013886   6.985   2.320   5.197 -0.3177  0.2728 -0.0240
   39MOL   C13113887   7.018   2.297   5.344  0.4079  0.5205  0.4971
   39MOL   C13213888   6.941   2.386   5.438 -0.2235  0.5659  0.2667
   39MOL   C13313889   7.005   2.527   5.472 -0.3947  0.3411 -0.0500
   39MOL   H13413890   7.255   2.243   5.167  1.0924  0.7636 -0.0999
   39MOL   H13513891   7.256   2.194   5.001 -3.2085 -0.7287 -0.6948
   39MOL   H13613892   7.019   2.245   4.988  0.5469 -0.7689 -0.5597
   39MOL   H13713893   7.007   2.425   5.177  0.2549 -0.2461 -2.2864
   39MOL   H13813894   6.878   2.310   5.181  0.1275 -2.5273 -1.5796
   39MOL   H13913895   7.122   2.331   5.351  1.0829 -1.1239 -1.1362
   39MOL   H14013896   7.018   2.193   5.376  0.0625 -0.1785 -1.6986
   39MOL   H14113897   6.847   2.394   5.383  0.4756  0.5570 -0.9547
   39MOL   H14213898   6.916   2.338   5.532  0.8335 -1.1629 -0.3159
   39MOL   H14313899   6.942   2.575   5.546  0.4152  1.6891 -0.2286
   39MOL   H14413900   7.024   2.579   5.378 -1.3093  1.9025  0.6318
   39MOL   H14513901   7.099   2.500   5.521  0.1293  0.2925 -1.0477
   39MOL   C14613902   7.046   2.079   5.109  0.0999 -0.0433 -1.0375
   39MOL   C14713903   6.894   2.030   5.116  0.4357 -0.3580 -0.3454
   39MOL   C14813904   6.882   1.874   5.155  0.0374  0.6002  0.8607
   39MOL   C14913905   6.737   1.831   5.183  0.0755  0.2857 -0.4034
   39MOL   C15013906   6.746   1.690   5.254  0.1529  0.0188  0.4474
   39MOL   C15113907   6.610   1.624   5.272 -0.0910  0.2612  0.1856
   39MOL   H15213908   7.109   2.031   5.035  0.5266  0.1568 -0.8065
   39MOL   H15313909   7.098   2.051   5.201 -0.5207 -0.3872 -0.7910
   39MOL   H15413910   6.835   2.075   5.196  1.3348  1.3342 -0.6165
   39MOL   H15513911   6.946   1.868   5.243  1.1847 -3.9913 -0.2012
   39MOL   H15613912   6.924   1.810   5.078  0.0333  1.3541  0.2262
   39MOL   H15713913   6.685   1.888   5.260  0.2493  1.4940 -1.1869
   39MOL   H15813914   6.665   1.832   5.102  1.1615 -1.3418 -1.4318
   39MOL   H15913915   6.791   1.713   5.351  0.3990  1.0072  0.1079
   39MOL   H16013916   6.814   1.630   5.194 -1.2062  0.1593 -1.2388
   39MOL   H16113917   6.538   1.688   5.325  1.1431  3.5801 -1.9652
   39MOL   H16213918   6.572   1.591   5.175  1.6312  1.6392 -1.0049
   39MOL   H16313919   6.624   1.528   5.322 -2.3462 -1.1711 -1.8122
   39MOL   C16413920   6.816   2.063   4.985 -0.2131  0.2819  0.1514
   39MOL   C16513921   6.853   1.975   4.854  0.0321 -0.4238  0.5020
   39MOL   C16613922   6.723   1.917   4.782 -0.0088  0.2114 -0.3826
   39MOL   C16713923   6.741   1.768   4.752  0.4389 -0.3513 -0.6834
   39MOL   C16813924   6.767   1.657   4.860 -0.2638  0.0827 -0.0428
   39MOL   C16913925   6.721   1.521   4.822  0.4192  0.2472 -0.1099
   39MOL   H17013926   6.712   2.038   5.007 -0.0800  0.6000  1.1842
   39MOL   H17113927   6.819   2.169   4.961  0.5223  0.0750 -0.7016
   39MOL   H17213928   6.914   1.886   4.871  1.2385  0.6050  1.6872
   39MOL   H17313929   6.694   1.970   4.691  2.2098  0.9622 -0.7069
   39MOL   H17413930   6.635   1.915   4.845  1.3934 -1.3569  1.5846
   39MOL   H17513931   6.826   1.757   4.686 -0.7134 -0.0863 -2.2454
   39MOL   H17613932   6.647   1.747   4.701  0.7045 -0.4516 -1.1312
   39MOL   H17713933   6.720   1.693   4.952 -2.0259 -0.6802 -0.6089
   39MOL   H17813934   6.872   1.655   4.889 -0.1727 -2.8870 -0.4271
   39MOL   H17913935   6.783   1.479   4.744 -2.6444  0.6507 -2.8707
   39MOL   H18013936   6.618   1.511   4.788  0.8451  0.5458 -1.5189
   39MOL   H18113937   6.730   1.461   4.913 -0.1967 -0.1480 -0.3013
   39MOL   C18213938   6.937   2.064   4.755  0.0168 -0.2302  0.1842
   39MOL   C18313939   7.021   1.992   4.649 -0.4099  0.0912  0.1821
   39MOL   C18413940   7.147   1.937   4.715 -0.5421 -0.0335 -0.1146
   39MOL   C18513941   7.191   1.806   4.654  0.1327  0.3860 -0.4865
   39MOL   C18613942   7.292   1.737   4.738  0.6914  0.2887  0.1010
   39MOL   C18713943   7.242   1.651   4.855 -0.0835 -0.0667 -0.7212
   39MOL   H18813944   6.872   2.135   4.705 -1.2757  0.5736  2.8939
   39MOL   H18913945   7.013   2.127   4.801  0.2359 -0.3534 -0.0076
   39MOL   H19013946   6.962   1.908   4.613 -1.4487  0.6000  0.6612
   39MOL   H19113947   7.229   2.008   4.718 -1.1109  0.5830  0.9231
   39MOL   H19213948   7.121   1.916   4.819 -0.4299 -2.8324 -0.5918
   39MOL   H19313949   7.238   1.825   4.557  1.0625 -1.8018 -0.5043
   39MOL   H19413950   7.103   1.745   4.635 -0.6368  1.3488 -0.0391
   39MOL   H19513951   7.369   1.803   4.779  1.1262  0.7436 -1.3929
   39MOL   H19613952   7.339   1.667   4.669 -0.0805 -0.5612  0.4360
   39MOL   H19713953   7.156   1.587   4.834 -0.8968 -0.5252  3.5388
   39MOL   H19813954   7.215   1.721   4.934  0.3317  1.0792 -1.5952
   39MOL   H19913955   7.328   1.590   4.882 -0.1626 -1.2437 -3.0152
   39MOL   C20013956   7.044   2.084   4.526 -0.1831 -0.1000  0.9066
   39MOL   C20113957   6.951   2.067   4.409 -0.2036  0.3712 -1.0470
   39MOL   C20213958   6.949   2.197   4.330  0.0736  0.4959  0.8609
   39MOL   C20313959   6.885   2.315   4.406 -0.3239  0.8150  0.1296
   39MOL   C20413960   6.858   2.439   4.309  0.1701 -0.3244 -0.7590
   39MOL   C20513961   6.774   2.558   4.374 -0.0206  1.0049  0.2165
   39MOL   H20613962   7.145   2.076   4.484 -0.6531 -1.4226 -0.0294
   39MOL   H20713963   7.057   2.188   4.556  0.8473  1.0599 -3.2988
   39MOL   H20813964   6.849   2.055   4.445  0.2704 -1.6537 -0.3226
   39MOL   H20913965   6.897   2.188   4.234  0.3940  0.1879  0.7149
   39MOL   H21013966   7.049   2.220   4.292 -0.0634 -0.4198 -0.0904
   39MOL   H21113967   6.957   2.359   4.475  0.8117  0.4463 -0.8139
   39MOL   H21213968   6.793   2.287   4.459  0.3112 -0.0025  0.8145
   39MOL   H21313969   6.800   2.404   4.223 -0.2277 -0.2650 -0.5165
   39MOL   H21413970   6.954   2.477   4.276  0.8147 -0.3976  1.0046
   39MOL   H21513971   6.828   2.605   4.456  0.2055  2.4047 -0.7161
   39MOL   H21613972   6.761   2.633   4.296  0.4410 -2.0742 -2.9589
   39MOL   H21713973   6.676   2.525   4.408 -0.3268  1.9568  0.2583
   39MOL   C21813974   6.991   1.945   4.324 -0.0118 -0.2428  0.4583
   39MOL   C21913975   6.876   1.863   4.261 -0.5848 -1.0500  0.7291
   39MOL   C22013976   6.791   1.794   4.367  0.2877  0.8397 -0.3743
   39MOL   C22113977   6.657   1.763   4.312 -0.1990 -0.3349  0.6446
   39MOL   C22213978   6.549   1.718   4.414 -0.0758  0.7524 -0.7411
   39MOL   C22313979   6.423   1.660   4.349 -0.0534 -0.3791 -0.3852
   39MOL   H22413980   7.066   1.983   4.256 -0.0464 -0.4508  0.3063
   39MOL   H22513981   7.047   1.874   4.384 -0.2188 -0.1303  0.7911
   39MOL   H22613982   6.814   1.936   4.210  0.7078 -1.7047 -1.8598
   39MOL   H22713983   6.783   1.866   4.448 -0.7519  0.2930  0.0142
   39MOL   H22813984   6.845   1.710   4.411  2.1245  1.8941 -0.5621
   39MOL   H22913985   6.672   1.678   4.245 -0.9451 -1.3907  1.7895
   39MOL   H23013986   6.625   1.842   4.244  0.8253 -0.0040  0.5343
   39MOL   H23113987   6.587   1.648   4.489  2.4515  0.6579 -2.0737
   39MOL   H23213988   6.528   1.805   4.476 -1.1348  2.3006 -3.2125
   39MOL   H23313989   6.439   1.571   4.288  2.0573 -1.2147  1.3026
   39MOL   H23413990   6.376   1.732   4.282 -0.5074 -0.0613  0.2701
   39MOL   H23513991   6.356   1.633   4.431  0.9213 -1.1318  0.1779
   39MOL   C23613992   6.917   1.765   4.147 -0.6597  0.3147 -0.2864
   39MOL   C23713993   6.990   1.834   4.028 -0.4026 -0.5531 -0.6618
   39MOL   C23813994   6.932   1.975   3.990 -0.6933 -0.1730 -0.2751
   39MOL   C23913995   6.790   1.980   3.940  0.2429  0.8675 -0.3137
   39MOL   C24013996   6.736   2.119   3.942 -0.1460  0.0000  0.5703
   39MOL   C24113997   6.595   2.142   3.883 -0.2881  0.0285 -0.7541
   39MOL   H24213998   6.975   1.686   4.194 -1.5523  0.6878  1.4988
   39MOL   H24313999   6.834   1.706   4.109  0.0061 -0.8121 -0.0009
   39MOL   H24414000   7.094   1.851   4.057 -0.5502 -0.9960  0.1294
   39MOL   H24514001   6.956   2.046   4.068  0.9723  0.2092 -1.1191
   39MOL   H24614002   6.994   2.015   3.910 -0.2539 -0.5646 -0.1314
   39MOL   H24714003   6.723   1.915   3.996 -1.7203  1.6008 -1.7154
   39MOL   H24814004   6.785   1.941   3.838  0.5738  0.0578 -0.0251
   39MOL   H24914005   6.742   2.149   4.046  0.8927 -0.9182  0.7866
   39MOL   H25014006   6.814   2.173   3.886 -1.2593  0.5086 -0.5148
   39MOL   H25114007   6.589   2.117   3.777 -0.1281  1.3644 -1.0793
   39MOL   H25214008   6.524   2.080   3.937 -0.1322 -1.0235 -1.7379
   39MOL   H25314009   6.567   2.247   3.892 -2.5631 -0.5025 -1.1761
   39MOL   C25414010   7.003   1.737   3.917  0.4342 -0.0232 -0.2440
   39MOL   C25514011   7.110   1.761   3.804  0.2880  0.8259  0.2350
   39MOL   C25614012   7.073   1.662   3.683  0.4493  0.4092 -0.0963
   39MOL   C25714013   7.173   1.670   3.567 -0.2711  0.1511  0.0214
   39MOL   C25814014   7.126   1.593   3.441  0.1052  0.5697  0.1686
   39MOL   C25914015   7.222   1.594   3.324 -0.1883  0.3143 -1.0855
   39MOL   H26014016   6.901   1.727   3.878  0.3044 -3.1005  0.6968
   39MOL   H26114017   7.018   1.641   3.967  0.0956  0.4010  0.6856
   39MOL   H26214018   7.097   1.860   3.763 -1.5946  0.2955 -0.4987
   39MOL   H26314019   7.085   1.565   3.730  0.7889  0.0554 -0.8953
   39MOL   H26414020   6.969   1.672   3.650  0.0928 -0.6337  0.6876
   39MOL   H26514021   7.205   1.768   3.532 -1.3607  1.1451  1.7581
   39MOL   H26614022   7.266   1.623   3.600 -0.5851 -0.5776 -0.1037
   39MOL   H26714023   7.031   1.639   3.414 -0.0744 -0.6084 -1.3090
   39MOL   H26814024   7.107   1.492   3.477 -0.3576  1.1719  1.6357
   39MOL   H26914025   7.197   1.537   3.234  3.5128 -2.8023 -0.2832
   39MOL   H27014026   7.320   1.561   3.359  0.2141  0.7481 -1.7890
   39MOL   H27114027   7.238   1.698   3.294  0.8288  1.0149  1.7308
   39MOL   C27214028   7.255   1.767   3.859 -0.1125 -0.1363  0.3831
   39MOL   C27314029   7.318   1.648   3.930 -0.1440  0.4529 -0.3085
   39MOL   C27414030   7.305   1.659   4.083  0.0960  0.6316 -0.1267
   39MOL   C27514031   7.398   1.757   4.156  0.0229 -0.1755  0.5909
   39MOL   C27614032   7.348   1.817   4.281  0.1988  0.2147  0.1329
   39MOL   C27714033   7.450   1.896   4.368 -0.7153  0.3408 -0.2565
   39MOL   H27814034   7.314   1.796   3.772 -0.0384  1.2020  0.8756
   39MOL   H27914035   7.268   1.856   3.920  1.2029  0.1214 -0.2538
   39MOL   H28014036   7.254   1.564   3.902  1.1878 -0.9654  0.8073
   39MOL   H28114037   7.322   1.565   4.137  1.2825 -0.6299 -2.5875
   39MOL   H28214038   7.199   1.680   4.098 -0.5704 -1.2203 -1.9142
   39MOL   H28314039   7.406   1.842   4.087  2.0796 -0.5013  0.3690
   39MOL   H28414040   7.497   1.711   4.165 -0.0323 -0.5004 -0.3939
   39MOL   H28514041   7.270   1.889   4.258 -0.0133  1.0019  3.1790
   39MOL   H28614042   7.303   1.737   4.339  1.9481 -0.4186  0.6660
   39MOL   H28714043   7.406   1.982   4.417 -1.0678  0.4021 -0.6823
   39MOL   H28814044   7.477   1.826   4.447 -1.6667 -1.5851 -1.5975
   39MOL   H28914045   7.543   1.924   4.320 -1.1099  1.0437 -0.6111
   39MOL   C29014046   7.452   1.619   3.871 -0.5317 -0.2738 -0.2027
   39MOL   C29114047   7.513   1.481   3.917 -0.6931 -0.3942 -0.4286
   39MOL   C29214048   7.430   1.362   3.855 -0.2467 -0.3280  0.0102
   39MOL   C29314049   7.456   1.233   3.931  0.1311  0.3561  0.1404
   39MOL   C29414050   7.358   1.192   4.040  0.8389 -0.0610 -0.3160
   39MOL   C29514051   7.403   1.075   4.126  0.9463 -0.2128  0.0940
   39MOL   H29614052   7.522   1.695   3.902 -0.7522 -0.3436  0.4660
   39MOL   H29714053   7.444   1.624   3.762  2.2490  1.5499 -0.3498
   39MOL   H29814054   7.500   1.461   4.023  0.5363  1.0331  0.0156
   39MOL   H29914055   7.442   1.354   3.747  1.3079  2.4557 -0.0612
   39MOL   H30014056   7.323   1.378   3.862 -0.1806  0.3024 -0.3283
   39MOL   H30114057   7.463   1.153   3.858  0.4124  0.0472  0.5031
   39MOL   H30214058   7.555   1.233   3.976 -0.2884  0.5984  1.0795
   39MOL   H30314059   7.266   1.160   3.990 -1.6074  1.3396  3.0301
   39MOL   H30414060   7.317   1.277   4.095 -0.9872 -0.1733 -1.4425
   39MOL   H30514061   7.511   1.066   4.136  1.0213  0.5235  0.0204
   39MOL   H30614062   7.381   0.976   4.086 -0.0578 -1.1833  2.9132
   39MOL   H30714063   7.363   1.075   4.228  1.0780  0.8684  0.1501
   39MOL   C30814064   7.656   1.467   3.874 -0.3502 -0.8023 -0.0875
   39MOL   C30914065   0.025   1.532   3.978  0.3511  0.0901 -0.0500
   39MOL   C31014066   0.137   1.604   3.901 -0.2560  0.4754 -0.2142
   39MOL   C31114067   0.096   1.737   3.838 -0.1000  0.1568 -0.3253
   39MOL   C31214068   0.202   1.843   3.824 -0.4688  0.4256  0.0821
   39MOL   C31314069   0.267   1.840   3.687 -0.0325 -0.1862  0.4501
   39MOL   H31414070   7.680   1.362   3.857  1.5187 -0.3685 -0.2025
   39MOL   H31514071   7.670   1.511   3.776 -2.4812 -2.6970 -1.2841
   39MOL   H31614072   7.698   1.609   4.034 -0.1573  0.7783 -1.4595
   39MOL   H31714073   0.188   1.536   3.832  0.3941  2.1923 -1.4546
   39MOL   H31814074   0.216   1.621   3.974 -1.7720  0.5551  1.4178
   39MOL   H31914075   0.013   1.782   3.891  1.3729  1.1950  1.1350
   39MOL   H32014076   0.046   1.717   3.743 -0.7596  1.0236 -0.1691
   39MOL   H32114077   0.156   1.941   3.837  0.6479  1.2482 -1.9957
   39MOL   H32214078   0.277   1.838   3.903 -1.9060 -1.4169  1.3697
   39MOL   H32314079   0.222   1.905   3.612 -1.9422  2.4617  3.7249
   39MOL   H32414080   0.274   1.739   3.646  2.7202  0.2385 -0.2464
   39MOL   H32514081   0.369   1.878   3.687 -0.2802  0.4977 -0.0253
   39MOL   C32614082   0.062   1.422   4.084 -0.3228  0.1408  0.1131
   39MOL   C32714083   0.123   1.476   4.209  0.8942 -0.4735  0.1185
   39MOL   C32814084   0.020   1.535   4.313  0.4221  0.1997 -0.3472
   39MOL   C32914085   7.653   1.433   4.379  0.0672 -0.2075 -0.0897
   39MOL   C33014086   7.577   1.493   4.494 -0.1288  0.2014 -0.2973
   39MOL   C33114087   7.512   1.387   4.593  0.0513 -0.1080 -0.3441
   39MOL   H33214088   0.130   1.350   4.036 -0.5320  0.7548 -1.1038
   39MOL   H33314089   7.704   1.358   4.108  0.5970 -0.7929  1.0216
   39MOL   H33414090   0.176   1.566   4.179 -0.9337  0.3822 -0.6694
   39MOL   H33514091   0.081   1.586   4.387 -1.9282  1.7316  0.6210
   39MOL   H33614092   7.696   1.618   4.263  1.6557  1.4539  0.4268
   39MOL   H33714093   7.707   1.342   4.408 -0.0952  0.4227  2.2463
   39MOL   H33814094   7.584   1.394   4.304 -3.2114  1.8420  1.7626
   39MOL   H33914095   7.647   1.557   4.549 -0.8448  0.8154 -0.0963
   39MOL   H34014096   7.495   1.557   4.463 -0.0925  0.3270 -0.1349
   39MOL   H34114097   7.585   1.331   4.651 -0.9509  0.0038  1.0459
   39MOL   H34214098   7.452   1.312   4.541 -0.4156 -1.2803  1.8120
   39MOL   H34314099   7.441   1.429   4.665  0.5893 -2.6840  1.7550
   39MOL   C34414100   0.221   1.378   4.275  0.5901 -0.8591  0.4007
   39MOL   C34514101   0.362   1.382   4.220  0.6508 -0.0319 -1.0168
   39MOL   C34614102   0.466   1.292   4.281  0.0250  0.1638  0.9872
   39MOL   C34714103   0.609   1.354   4.287  0.5676 -0.0562  0.4269
   39MOL   C34814104   0.712   1.252   4.339 -0.3097 -0.3459  0.2434
   39MOL   C34914105   0.713   1.226   4.488 -0.2090 -0.4637  0.5407
   39MOL   H35014106   0.217   1.403   4.381 -0.4735 -1.4619  0.5113
   39MOL   H35114107   0.182   1.276   4.279  0.4032 -0.7736  0.7900
   39MOL   H35214108   0.393   1.486   4.230 -0.1567  0.2755 -1.6700
   39MOL   H35314109   0.435   1.266   4.382  0.6408 -1.2252  0.8362
   39MOL   H35414110   0.463   1.198   4.224 -1.7038  1.8612 -1.8359
   39MOL   H35514111   0.632   1.374   4.182  0.4648  0.3551  0.4826
   39MOL   H35614112   0.610   1.443   4.350  2.4380  0.0089  0.3370
   39MOL   H35714113   0.692   1.155   4.294 -1.9282  0.1925 -0.2153
   39MOL   H35814114   0.813   1.284   4.315 -0.5470  0.4995  0.3855
   39MOL   H35914115   0.703   1.322   4.539  0.1315  0.4624 -1.1206
   39MOL   H36014116   0.625   1.174   4.527 -0.5250 -0.0225  0.4188
   39MOL   H36114117   0.806   1.177   4.517 -0.0748 -1.6030 -1.7251
   39MOL   H36214118   0.355   1.372   4.112  0.6180  4.1397 -1.4896
   40MOL     C114119   5.222   1.885   7.171 -0.1764 -0.4879  0.2459
   40MOL     C214120   5.113   1.995   7.160  0.1094  1.2285 -0.0669
   40MOL     C314121   5.045   2.004   7.025  0.7212  0.2817  0.7843
   40MOL     C414122   4.970   1.873   6.998 -0.3855 -0.2480 -0.0319
   40MOL     C514123   4.887   1.902   6.872 -0.1344  0.1426 -0.0704
   40MOL     C614124   4.803   1.778   6.833  0.0280 -0.6831  0.4079
   40MOL     H714125   5.270   1.893   7.268  0.7796 -0.9447 -0.1863
   40MOL     H814126   5.181   1.784   7.159  0.0655 -0.4636 -0.8391
   40MOL     H914127   5.035   1.957   7.226  0.3096  1.3329  0.2303
   40MOL    H1014128   5.117   2.030   6.948  0.1868 -2.5203 -0.7270
   40MOL    H1114129   4.959   2.071   7.026 -1.2001 -2.1030  1.0808
   40MOL    H1214130   4.905   1.842   7.080  0.1147 -3.3702 -0.7383
   40MOL    H1314131   5.036   1.788   6.980 -0.0614  0.2231 -1.1271
   40MOL    H1414132   4.814   1.981   6.893 -1.5902 -1.1185 -0.2870
   40MOL    H1514133   4.961   1.930   6.797 -0.4664  1.8347  0.2052
   40MOL    H1614134   4.742   1.804   6.747  1.5052  0.5370 -0.2844
   40MOL    H1714135   4.730   1.747   6.908  1.3572 -1.2468  1.5137
   40MOL    H1814136   4.856   1.690   6.795 -1.5369 -0.6952 -1.8531
   40MOL    H1914137   5.304   1.894   7.101 -0.7058  2.0220 -0.1033
   40MOL    C2014138   5.152   2.135   7.207  0.0714  0.3630  0.0582
   40MOL    C2114139   5.043   2.242   7.243 -0.0251 -0.1479  0.3512
   40MOL    C2214140   4.937   2.189   7.341 -0.0162 -0.4048  0.5337
   40MOL    C2314141   4.993   2.149   7.483 -0.6577 -0.4308 -0.2928
   40MOL    C2414142   4.876   2.101   7.575  0.2056  0.0807  0.7476
   40MOL    C2514143   4.916   2.046   7.709  0.0982 -0.0908 -0.5352
   40MOL    H2614144   5.226   2.178   7.140 -2.7091  1.4656 -2.4050
   40MOL    H2714145   5.202   2.114   7.302  0.6665  0.5852 -0.2047
   40MOL    H2814146   4.991   2.264   7.149  2.1084  0.4588 -0.7418
   40MOL    H2914147   4.892   2.105   7.287 -1.1551  1.2500 -1.1600
   40MOL    H3014148   4.859   2.265   7.336 -1.2815 -1.7420 -0.5585
   40MOL    H3114149   5.045   2.234   7.527  0.3873  0.0965 -2.5044
   40MOL    H3214150   5.069   2.073   7.467  0.6522  0.4633  1.4526
   40MOL    H3314151   4.802   2.179   7.596 -2.2169 -1.8770 -0.2634
   40MOL    H3414152   4.825   2.017   7.527 -0.1423  0.6475  0.0968
   40MOL    H3514153   4.966   2.120   0.043  1.9883 -1.4137 -0.4341
   40MOL    H3614154   4.832   2.010   0.041  0.2536 -0.4512 -0.5323
   40MOL    H3714155   4.989   1.966   7.697  0.7604  0.9515 -4.3155
   40MOL    C3814156   5.097   2.384   7.303 -0.1523  0.0510  0.0272
   40MOL    C3914157   5.203   2.467   7.216  0.5658  0.1627  0.1354
   40MOL    C4014158   5.151   2.514   7.077 -0.7970  0.4558 -0.0480
   40MOL    C4114159   5.257   2.589   6.986 -0.7124 -0.4827  0.2226
   40MOL    C4214160   5.192   2.661   6.857 -0.5241 -0.3828 -0.5944
   40MOL    C4314161   5.103   2.779   6.897 -0.1222  0.2547 -0.3741
   40MOL    H4414162   5.148   2.362   7.397  0.5776 -1.3050 -0.6737
   40MOL    H4514163   5.009   2.448   7.316 -0.5218 -0.2066 -1.1704
   40MOL    H4614164   5.284   2.401   7.183  1.5725  0.9366  1.0264
   40MOL    H4714165   5.121   2.425   7.022  0.9789 -0.2169  0.0223
   40MOL    H4814166   5.063   2.572   7.103 -0.5551  1.0938 -0.6459
   40MOL    H4914167   5.305   2.669   7.041 -0.0913 -0.1781 -0.7511
   40MOL    H5014168   5.332   2.526   6.939 -2.5397 -0.3596 -2.9719
   40MOL    H5114169   5.264   2.689   6.781 -0.2064 -2.3815 -1.0667
   40MOL    H5214170   5.125   2.591   6.806 -1.6643  0.6046 -0.4815
   40MOL    H5314171   5.008   2.739   6.931  1.9044 -2.2643  2.5848
   40MOL    H5414172   5.084   2.839   6.808  0.5609  2.0947  0.6704
   40MOL    H5514173   5.152   2.841   6.972  0.1292  0.8428 -1.0181
   40MOL    C5614174   5.272   2.578   7.302 -0.0112 -0.1971 -0.4124
   40MOL    C5714175   5.410   2.536   7.376 -0.0870  0.3328  0.0275
   40MOL    C5814176   5.446   2.624   7.497 -0.6696 -0.4431  0.3123
   40MOL    C5914177   5.479   2.765   7.462  0.5076 -0.3670  0.0991
   40MOL    C6014178   5.513   2.854   7.585  0.5483 -0.0592 -0.4531
   40MOL    C6114179   5.552   3.004   7.570  0.6217 -0.3438 -0.1611
   40MOL    H6214180   5.301   2.664   7.243 -0.8176 -0.3240 -1.0122
   40MOL    H6314181   5.196   2.612   7.373 -0.1931 -1.0659 -0.1745
   40MOL    H6414182   5.380   2.444   7.425  1.5953 -0.5079 -0.4668
   40MOL    H6514183   5.365   2.623   7.569 -1.7439  2.2445 -0.7840
   40MOL    H6614184   5.528   2.585   7.558  0.9455  0.5256 -1.1831
   40MOL    H6714185   5.392   2.816   7.421 -0.1623 -1.4457  0.1561
   40MOL    H6814186   5.564   2.765   7.394 -0.2685  0.3042 -0.8909
   40MOL    H6914187   5.429   2.849   7.654 -0.5146 -1.0327 -1.7799
   40MOL    H7014188   5.596   2.802   7.633 -0.9012 -2.5804 -0.5428
   40MOL    H7114189   5.616   3.036   7.488  1.8880  2.7074  1.8896
   40MOL    H7214190   5.460   3.061   7.575  1.1811  0.9349 -3.5680
   40MOL    H7314191   5.596   3.044   7.662 -0.9503 -0.2940  0.5911
   40MOL    C7414192   5.524   2.503   7.281 -0.2902  0.1435  0.1939
   40MOL    C7514193   5.623   2.394   7.321 -0.4332 -0.7864  0.2476
   40MOL    C7614194   5.569   2.258   7.282 -1.2244  0.3457  0.2749
   40MOL    C7714195   5.592   2.146   7.384  0.0510 -0.2614 -1.2523
   40MOL    C7814196   5.491   2.140   7.503 -0.3971 -0.1374 -0.2432
   40MOL    C7914197   5.535   2.047   7.617 -0.4637  0.3900  0.0467
   40MOL    H8014198   5.499   2.490   7.176 -0.6751 -0.7149  0.3904
   40MOL    H8114199   5.572   2.600   7.269  0.5168 -0.1458  1.0813
   40MOL    H8214200   5.636   2.398   7.430  1.9854  0.8920 -0.0764
   40MOL    H8314201   5.465   2.261   7.247 -0.1963  0.3829 -2.9727
   40MOL    H8414202   5.621   2.238   7.188 -1.2929  0.0451  0.3001
   40MOL    H8514203   5.588   2.051   7.331  1.8517 -0.1063 -1.6901
   40MOL    H8614204   5.696   2.145   7.416 -0.7703  1.8879  1.6812
   40MOL    H8714205   5.396   2.110   7.458 -1.0479  2.6394 -0.8080
   40MOL    H8814206   5.468   2.239   7.542 -0.6385 -0.7456  1.1633
   40MOL    H8914207   5.634   2.074   7.655 -0.4435  1.0093 -0.4369
   40MOL    H9014208   5.470   2.071   7.701  2.0133  2.7825  1.3961
   40MOL    H9114209   5.531   1.941   7.593  0.5936  0.3746 -0.0943
   40MOL    C9214210   5.767   2.410   7.257 -0.2984  0.2056 -0.0769
   40MOL    C9314211   5.862   2.509   7.325  0.3613 -0.2521 -0.2781
   40MOL    C9414212   5.902   2.471   7.474  0.0591  0.0972  0.2781
   40MOL    C9514213   5.969   2.337   7.497  0.0121 -0.3683 -0.2639
   40MOL    C9614214   6.011   2.316   7.642  0.1458  0.1439 -0.0624
   40MOL    C9714215   6.035   2.172   7.682 -0.2788 -0.1867 -0.4888
   40MOL    H9814216   5.810   2.310   7.262  1.9176  1.0943 -0.8965
   40MOL    H9914217   5.754   2.432   7.151 -1.5794 -0.4341 -0.0632
   40MOL   H10014218   5.801   2.598   7.336  2.3464  1.1111 -0.1201
   40MOL   H10114219   5.813   2.470   7.537 -0.1088  1.0769  0.0648
   40MOL   H10214220   5.968   2.553   7.502 -0.7469  0.7280  0.3702
   40MOL   H10314221   5.892   2.264   7.473 -0.8819  0.6442 -0.5311
   40MOL   H10414222   6.048   2.328   7.423  0.0880  0.9422 -0.3639
   40MOL   H10514223   6.107   2.367   7.659 -0.1308  0.5964  0.1573
   40MOL   H10614224   5.939   2.359   7.711 -0.7080  1.8853 -1.9796
   40MOL   H10714225   6.097   2.115   7.613 -1.7750 -1.7515 -0.5852
   40MOL   H10814226   6.078   2.167   0.054 -1.6771 -3.2416  0.0088
   40MOL   H10914227   5.933   2.132   7.675 -0.4954  0.0836  1.0373
   40MOL   C11014228   5.983   2.550   7.234 -0.6506 -0.3440  0.4717
   40MOL   C11114229   5.974   2.669   7.135 -0.3640 -0.0795  0.1665
   40MOL   C11214230   5.933   2.801   7.200 -0.2659 -0.1302 -0.5151
   40MOL   C11314231   6.037   2.840   7.308  0.0847  0.5461  0.3597
   40MOL   C11414232   5.981   2.962   7.377 -0.1841 -0.7981  0.1590
   40MOL   C11514233   6.065   3.004   7.499 -0.1953 -0.0410  0.7494
   40MOL   H11614234   6.064   2.567   7.304 -1.1216 -0.5399  1.0701
   40MOL   H11714235   6.008   2.463   7.173  1.8545 -1.0087  2.4049
   40MOL   H11814236   6.078   2.688   7.108 -0.8610  1.0151 -1.0206
   40MOL   H11914237   5.837   2.779   7.247 -1.2058  2.0507 -1.3380
   40MOL   H12014238   5.920   2.878   7.124  2.4070  0.0485 -0.8512
   40MOL   H12114239   6.135   2.868   7.270  0.0459 -0.2983 -0.3795
   40MOL   H12214240   6.039   2.762   7.383 -1.4727 -1.4060 -1.5534
   40MOL   H12314241   5.884   2.939   7.422 -0.5670 -1.7866 -1.1418
   40MOL   H12414242   5.974   3.046   7.309 -1.1257 -1.8311 -1.0354
   40MOL   H12514243   6.161   3.038   7.459 -1.0473  2.8789  1.0660
   40MOL   H12614244   6.024   3.085   7.559  0.1996  1.0854 -0.4649
   40MOL   H12714245   6.085   2.916   7.559 -0.9274 -1.7579 -1.4335
   40MOL   C12814246   5.914   2.646   7.002 -0.6382  0.1203  0.2450
   40MOL   C12914247   5.946   2.734   6.881 -0.3830 -0.0607 -0.3176
   40MOL   C13014248   5.825   2.721   6.780 -0.3913 -0.3122  0.1831
   40MOL   C13114249   5.828   2.580   6.705 -0.1809  0.5237 -0.3268
   40MOL   C13214250   5.723   2.561   6.587  0.2965 -0.6388  0.1920
   40MOL   C13314251   5.736   2.661   6.466  1.1245  1.1721 -0.3199
   40MOL   H13414252   5.808   2.660   7.022 -0.8589  1.2027 -1.5487
   40MOL   H13514253   5.937   2.542   6.978  0.0900  0.2742  0.2696
   40MOL   H13614254   5.935   2.838   6.913  0.8636 -0.4771  1.5713
   40MOL   H13714255   5.738   2.735   6.843  1.7264  1.4990  2.7967
   40MOL   H13814256   5.832   2.801   6.706  1.7480  1.3025  2.0631
   40MOL   H13914257   5.821   2.489   6.763  1.0124 -0.7608 -2.1427
   40MOL   H14014258   5.921   2.570   6.649  0.5687  0.9230  0.8312
   40MOL   H14114259   5.750   2.467   6.538 -1.6338  0.5814 -3.4200
   40MOL   H14214260   5.621   2.561   6.625  1.1729  0.8947  2.6511
   40MOL   H14314261   5.680   2.624   6.380 -0.1063  0.0219  0.9473
   40MOL   H14414262   5.843   2.665   6.445  1.3169  0.2468  0.4531
   40MOL   H14514263   5.693   2.755   6.498  2.0660  2.1033 -1.7500
   40MOL   C14614264   6.084   2.723   6.816 -0.1752 -0.3018 -0.0386
   40MOL   C14714265   6.117   2.824   6.696 -0.5544  0.1011  0.3816
   40MOL   C14814266   6.248   2.793   6.615  0.4104  0.3854 -0.0959
   40MOL   C14914267   6.271   2.642   6.601 -0.3614 -0.2571 -0.2138
   40MOL   C15014268   6.399   2.622   6.523 -0.0398  0.9086  0.3437
   40MOL   C15114269   6.394   2.671   6.375 -0.0380 -0.4521  0.3617
   40MOL   H15214270   6.164   2.740   6.887 -0.2520  1.9302 -0.4558
   40MOL   H15314271   6.093   2.617   6.789  0.1134  0.1143 -1.6046
   40MOL   H15414272   6.036   2.805   6.625 -0.7532  1.1831  0.3166
   40MOL   H15514273   6.337   2.843   6.652  1.4650 -0.2524 -1.6870
   40MOL   H15614274   6.234   2.847   6.521  0.6188 -0.4750 -0.6340
   40MOL   H15714275   6.294   2.606   6.701  1.0371  2.3726  0.4499
   40MOL   H15814276   6.189   2.587   6.555 -0.9207 -0.1014  0.6051
   40MOL   H15914277   6.432   2.518   6.512  0.8034  1.3434 -1.3400
   40MOL   H16014278   6.481   2.678   6.569 -0.0470  1.3050 -0.1346
   40MOL   H16114279   6.483   2.663   6.312  0.0419 -0.7500  0.5150
   40MOL   H16214280   6.307   2.623   6.330  1.6119 -0.3646 -3.1460
   40MOL   H16314281   6.365   2.776   6.371 -2.1822 -1.0938 -2.0511
   40MOL   C16414282   6.114   2.974   6.738 -0.2084 -0.1672 -0.0169
   40MOL   C16514283   6.119   3.076   6.621 -0.0605  0.5250  0.2350
   40MOL   C16614284   5.979   3.098   6.565  0.7483  0.6031  0.3076
   40MOL   C16714285   5.977   3.162   6.424  0.3907 -0.3239  0.3713
   40MOL   C16814286   5.838   3.132   6.357 -0.0366 -0.1149  0.1311
   40MOL   C16914287   5.729   3.229   6.410 -0.0740  0.1365 -0.3150
   40MOL   H17014288   6.038   2.996   6.813  0.7273 -3.5706  2.1055
   40MOL   H17114289   6.211   2.993   6.785  0.1974  0.5532 -1.1437
   40MOL   H17214290   6.177   3.044   6.535 -1.8395 -1.6692 -0.1944
   40MOL   H17314291   5.915   3.152   6.635 -0.1278 -0.0245 -0.0042
   40MOL   H17414292   5.931   3.001   6.560  0.1322  0.9863 -2.1772
   40MOL   H17514293   6.048   3.113   6.356 -0.6799  0.1341 -1.1028
   40MOL   H17614294   5.996   3.268   6.412  0.7542 -0.4204  0.0669
   40MOL   H17714295   5.824   3.026   6.378 -0.8472  0.2226  1.4204
   40MOL   H17814296   5.841   3.144   6.249 -0.1801  0.4910  0.1923
   40MOL   H17914297   5.752   3.335   6.414  0.2123  0.0683 -0.1410
   40MOL   H18014298   5.717   3.206   6.516 -0.6060 -0.5979 -0.5256
   40MOL   H18114299   5.634   3.222   6.357  0.0618 -0.6444 -0.4664
   40MOL   C18214300   6.178   3.211   6.665  0.0662  0.2140 -0.2354
   40MOL   C18314301   6.330   3.224   6.683  0.5957  0.1625  0.2221
   40MOL   C18414302   6.356   3.348   6.777 -0.4709  0.1212 -0.1381
   40MOL   C18514303   6.323   3.326   6.922  0.3953  0.1993  0.7323
   40MOL   C18614304   6.417   3.234   7.002  0.2762  0.0299 -0.0672
   40MOL   C18714305   6.369   3.201   7.144 -0.3157  0.3168 -0.2239
   40MOL   H18814306   6.144   3.289   6.597 -1.8186 -0.6641 -0.3215
   40MOL   H18914307   6.126   3.232   6.759  0.0949  1.6328 -0.5167
   40MOL   H19014308   6.358   3.134   6.738  1.7146  0.1347 -0.3717
   40MOL   H19114309   6.458   3.385   6.776 -0.3032 -0.3252  0.3736
   40MOL   H19214310   6.289   3.424   6.736 -0.2091 -0.6615 -2.1024
   40MOL   H19314311   6.218   3.297   6.932 -0.7859  4.7236  2.7302
   40MOL   H19414312   6.331   3.429   6.956 -0.5458  0.2414  0.8235
   40MOL   H19514313   6.511   3.289   7.005 -0.0110  0.4720  1.3798
   40MOL   H19614314   6.436   3.145   6.942 -0.4237 -0.4624  0.4315
   40MOL   H19714315   6.452   3.142   7.184  0.9711  0.8716 -2.0230
   40MOL   H19814316   6.270   3.154   7.140 -0.4504  0.5907 -0.1363
   40MOL   H19914317   6.352   3.290   7.204 -3.3228  0.2408 -0.8763
   40MOL   C20014318   6.396   3.243   6.542  0.1281  0.1983  0.6152
   40MOL   C20114319   6.550   3.217   6.537  0.0074  0.5376 -0.4153
   40MOL   C20214320   6.597   3.079   6.482 -0.5375  0.5719  0.2661
   40MOL   C20314321   6.609   3.086   6.333 -0.1542  0.6178  0.1388
   40MOL   C20414322   6.662   2.947   6.292  0.6137  0.4069 -0.1035
   40MOL   C20514323   6.678   2.943   6.138 -0.5041 -0.4671 -0.7130
   40MOL   H20614324   6.368   3.340   6.501  2.1834  0.5028 -0.1025
   40MOL   H20714325   6.353   3.174   6.469  1.1129 -1.0784  1.2249
   40MOL   H20814326   6.565   3.216   6.645  0.9945 -0.6709 -0.5466
   40MOL   H20914327   6.536   3.000   6.525  0.1991 -0.3652 -0.3945
   40MOL   H21014328   6.697   3.075   6.526 -0.7687 -1.2198  0.6795
   40MOL   H21114329   6.676   3.167   6.305  0.0404 -0.0728 -1.5034
   40MOL   H21214330   6.514   3.120   6.290 -0.1963 -0.0789 -0.3393
   40MOL   H21314331   6.593   2.874   6.333  1.4823  0.7405  1.9862
   40MOL   H21414332   6.761   2.943   6.336 -0.3035 -2.6621  1.8390
   40MOL   H21514333   6.586   2.938   6.080  0.9558 -2.8119 -2.8890
   40MOL   H21614334   6.727   3.035   6.107 -1.8581  0.5278  0.0438
   40MOL   H21714335   6.740   2.856   6.118  0.4268  0.2171 -0.8563
   40MOL   C21814336   6.623   3.347   6.503 -0.4836 -0.5002  0.4815
   40MOL   C21914337   6.777   3.355   6.522  0.0156  0.1468  0.0358
   40MOL   C22014338   6.821   3.406   6.665 -0.6619  0.0410  0.3699
   40MOL   C22114339   6.968   3.370   6.704  0.1267 -0.1698  0.8731
   40MOL   C22214340   7.006   3.362   6.854 -0.5530 -0.0081  0.4146
   40MOL   C22314341   6.994   3.501   6.919 -0.1833 -0.5098  0.4141
   40MOL   H22414342   6.598   3.371   6.400 -1.2115 -0.2893  0.7030
   40MOL   H22514343   6.583   3.431   6.559  1.7744  1.7137 -1.1300
   40MOL   H22614344   6.815   3.253   6.515 -0.2344 -0.0015  0.7936
   40MOL   H22714345   6.756   3.372   6.746 -1.1120  0.5776  0.2363
   40MOL   H22814346   6.802   3.513   6.668 -5.1304 -0.6178 -0.1741
   40MOL   H22914347   7.036   3.440   6.657  1.6896 -0.7363  2.2282
   40MOL   H23014348   7.003   3.278   6.656 -0.8326 -0.1303  0.0752
   40MOL   H23114349   6.952   3.289   6.915  0.8587  0.1096  1.8492
   40MOL   H23214350   7.108   3.324   6.861 -0.5899 -0.1225  0.3445
   40MOL   H23314351   7.040   3.496   7.018 -1.3738 -0.6759  0.9696
   40MOL   H23414352   6.888   3.522   6.933 -0.4278 -0.8612 -0.9032
   40MOL   H23514353   7.049   3.573   6.860 -0.5001 -0.3425  0.3231
   40MOL   C23614354   6.838   3.440   6.406  0.0242  0.5992  0.2310
   40MOL   C23714355   6.844   3.376   6.264 -0.4545 -0.4871 -0.1633
   40MOL   C23814356   6.933   3.250   6.265  0.3132  0.5645 -0.0204
   40MOL   C23914357   7.084   3.266   6.294 -0.0693 -1.0767 -0.2291
   40MOL   C24014358   7.145   3.129   6.251  0.4081 -0.7961 -0.1002
   40MOL   C24114359   7.100   3.017   6.344  0.2190 -0.1282 -0.4549
   40MOL   H24214360   6.774   3.528   6.414 -0.1868  0.3288  1.6838
   40MOL   H24314361   6.934   3.475   6.444 -0.2970 -1.6979  3.2896
   40MOL   H24414362   6.739   3.357   6.243 -0.8915  0.8760  0.6514
   40MOL   H24514363   6.893   3.167   6.323 -0.0452  0.6312 -0.1703
   40MOL   H24614364   6.916   3.226   6.160 -0.6416  0.3274  0.1825
   40MOL   H24714365   7.111   3.281   6.398  0.3376 -0.5425 -0.4069
   40MOL   H24814366   7.114   3.351   6.233 -3.5065  0.7501  0.5321
   40MOL   H24914367   7.121   3.103   6.148 -0.8530  1.4056 -0.3887
   40MOL   H25014368   7.254   3.135   6.254  0.2542  2.6472  0.9614
   40MOL   H25114369   7.166   2.931   6.345 -1.4564 -1.5311  4.1319
   40MOL   H25214370   7.085   3.045   6.448  0.3160 -1.5008 -0.0546
   40MOL   H25314371   7.000   2.974   6.330  0.2526 -0.4146  0.1569
   40MOL   C25414372   6.892   3.497   6.173 -0.2742  0.1109 -0.4881
   40MOL   C25514373   6.898   3.463   6.022  0.1882  0.1187 -0.1357
   40MOL   C25614374   6.998   3.555   5.955 -0.2400 -0.2517  1.0433
   40MOL   C25714375   7.138   3.567   6.013 -0.3303 -0.2742  0.1039
   40MOL   C25814376   7.242   3.630   5.922  0.0823 -0.4128  0.3838
   40MOL   C25914377   7.195   3.760   5.853  0.1123  0.5324  0.4838
   40MOL   H26014378   6.986   3.525   6.220  0.4283 -3.0866  0.1569
   40MOL   H26114379   6.839   3.592   6.175  1.3371  1.0125  0.5243
   40MOL   H26214380   6.932   3.360   6.011 -1.2819 -0.2797 -1.1676
   40MOL   H26314381   7.004   3.523   5.851  1.5587 -0.6138  1.2449
   40MOL   H26414382   6.960   3.657   5.959 -0.5149 -0.3395  0.7147
   40MOL   H26514383   7.138   3.619   6.108 -0.2760  0.1531 -0.1265
   40MOL   H26614384   7.181   3.470   6.041  1.3616  0.5008  0.2598
   40MOL   H26714385   7.274   3.567   5.839  2.2927 -0.3087  1.1257
   40MOL   H26814386   7.338   3.653   5.968  0.9672  0.1295 -1.6674
   40MOL   H26914387   7.265   3.800   5.780 -3.1687  1.0117 -2.5073
   40MOL   H27014388   7.173   3.831   5.933  1.1638  2.2568 -0.7311
   40MOL   H27114389   7.105   3.743   5.794  0.4908 -1.7299  0.5098
   40MOL   C27214390   6.757   3.469   5.959 -0.0427 -0.1930 -0.2371
   40MOL   C27314391   6.728   3.393   5.821 -0.3047 -0.2959 -0.3990
   40MOL   C27414392   6.628   3.466   5.735 -0.4761 -0.4700  0.2664
   40MOL   C27514393   6.693   3.598   5.670 -0.5137 -0.6243  0.4203
   40MOL   C27614394   6.591   3.688   5.595  0.0654 -0.2930  0.4842
   40MOL   C27714395   6.658   3.814   5.541  1.6968 -1.0531 -0.2495
   40MOL   H27814396   6.685   3.427   6.029 -1.0276  1.0343 -0.4865
   40MOL   H27914397   6.732   3.575   5.952  1.3528  0.0308 -2.5336
   40MOL   H28014398   6.814   3.377   5.756 -1.1324 -2.5854 -0.9769
   40MOL   H28114399   6.538   3.491   5.791  0.4270  1.6675  0.7946
   40MOL   H28214400   6.599   3.402   5.651  1.6176 -1.1946  0.0477
   40MOL   H28314401   6.759   3.558   5.593  1.2864 -0.8366  2.0291
   40MOL   H28414402   6.759   3.648   5.741 -1.2482 -0.3590  0.9280
   40MOL   H28514403   6.561   3.626   5.511  0.4716  0.3015 -0.1029
   40MOL   H28614404   6.500   3.703   5.653  1.1501  0.0752  2.1406
   40MOL   H28714405   6.580   3.860   5.480  1.4430 -0.7216  0.3154
   40MOL   H28814406   6.690   3.896   5.605 -0.0415  0.0781 -0.7768
   40MOL   H28914407   6.736   3.798   5.467  2.1170  1.0998 -0.3277
   40MOL   C29014408   6.677   3.252   5.857 -0.3292 -0.4611 -0.2493
   40MOL   C29114409   6.695   3.149   5.742  0.5073  0.1545  0.4689
   40MOL   C29214410   6.840   3.093   5.761  0.6129  0.4742 -0.4639
   40MOL   C29314411   6.907   3.043   5.631  0.4499  0.0256 -0.0898
   40MOL   C29414412   7.048   2.986   5.665  0.5513  0.4999  0.4022
   40MOL   C29514413   7.129   2.950   5.540  0.2652 -0.3187 -0.4362
   40MOL   H29614414   6.572   3.253   5.886 -0.6926 -2.2046 -1.4321
   40MOL   H29714415   6.732   3.211   5.942 -0.5245  0.7337  0.4757
   40MOL   H29814416   6.691   3.198   5.644  2.9856  1.7104  1.1107
   40MOL   H29914417   6.838   3.015   5.837  3.6157  0.5967 -0.2094
   40MOL   H30014418   6.920   3.159   5.796 -1.5069  1.9563  1.7507
   40MOL   H30114419   6.851   2.964   5.581  1.1476 -1.8328  1.9274
   40MOL   H30214420   6.925   3.128   5.566 -0.2384 -0.5500 -1.0407
   40MOL   H30314421   7.047   2.890   5.717  1.8223  0.0200 -0.4269
   40MOL   H30414422   7.098   3.057   5.731  1.6879  1.7634 -1.7731
   40MOL   H30514423   7.071   2.881   5.479 -0.7018 -2.6787  2.9996
   40MOL   H30614424   7.225   2.906   5.566 -0.5197 -2.6936 -1.4261
   40MOL   H30714425   7.140   3.046   5.490 -1.2619 -0.5943 -1.3222
   40MOL   C30814426   6.599   3.034   5.741  0.0907  0.5178 -0.1410
   40MOL   C30914427   6.467   3.071   5.665 -0.5301 -0.0383 -0.4904
   40MOL   C31014428   6.346   3.016   5.748  0.2126  0.0021 -0.3913
   40MOL   C31114429   6.328   3.091   5.878 -0.5310  0.3584  0.3688
   40MOL   C31214430   6.221   3.020   5.965 -0.4443 -0.1418  0.5646
   40MOL   C31314431   6.285   2.912   6.054  0.1795  0.1417  0.0670
   40MOL   H31414432   6.645   2.947   5.692 -1.9133  0.5795 -2.2019
   40MOL   H31514433   6.591   2.984   5.837 -2.4734 -0.5298 -0.8624
   40MOL   H31614434   6.455   3.179   5.666 -1.5708 -0.1504  0.3864
   40MOL   H31714435   6.358   2.910   5.772 -0.9970  0.4186  2.1669
   40MOL   H31814436   6.250   3.022   5.696  0.0374  0.4396 -0.0187
   40MOL   H31914437   6.292   3.193   5.861 -0.9083  0.1903  0.1512
   40MOL   H32014438   6.421   3.095   5.935 -0.2462  0.5110 -0.1067
   40MOL   H32114439   6.168   3.084   6.036  1.0638 -0.3561  1.9121
   40MOL   H32214440   6.149   2.973   5.898  0.1984  1.0539 -0.9753
   40MOL   H32314441   6.215   2.859   6.118  0.4431  0.9597  1.0439
   40MOL   H32414442   6.362   2.961   6.114  2.0308 -1.4535 -0.9282
   40MOL   H32514443   6.334   2.830   6.002  1.1270  0.0972  1.0055
   40MOL   C32614444   6.470   3.009   5.523 -0.2372  0.0207 -0.4819
   40MOL   C32714445   6.580   3.056   5.426 -0.4301 -0.4975 -0.3627
   40MOL   C32814446   6.602   2.968   5.299  0.3951  0.1886 -0.3030
   40MOL   C32914447   6.649   2.826   5.326 -0.2394  0.4945  0.7909
   40MOL   C33014448   6.645   2.746   5.197 -0.3096  0.0141  0.5676
   40MOL   C33114449   6.685   2.595   5.216 -0.2787  0.2764  1.2528
   40MOL   H33214450   6.374   3.027   5.473 -1.1250 -0.4318  1.0484
   40MOL   H33314451   6.469   2.901   5.535  0.0525  0.0817  0.0983
   40MOL   H33414452   6.676   3.060   5.477 -0.5716 -0.7923 -0.0772
   40MOL   H33514453   6.499   2.964   5.263 -0.0321 -0.3988  0.9459
   40MOL   H33614454   6.670   3.010   5.226 -0.8190 -1.8300 -2.6749
   40MOL   H33714455   6.587   2.776   5.400 -1.5261  0.8900 -0.0019
   40MOL   H33814456   6.750   2.828   5.367 -0.1841 -0.7052  0.7282
   40MOL   H33914457   6.547   2.754   5.152  0.4390 -0.7495 -1.2409
   40MOL   H34014458   6.716   2.776   5.120  0.0178  0.1371  0.9139
   40MOL   H34114459   6.612   2.553   5.285 -0.5674 -2.5077 -0.6353
   40MOL   H34214460   6.785   2.595   5.259 -0.0616 -1.6094  0.8192
   40MOL   H34314461   6.684   2.537   5.124  0.5538 -0.7699  1.8954
   40MOL   C34414462   6.547   3.198   5.375 -0.7197  0.3813  0.0229
   40MOL   C34514463   6.670   3.282   5.323 -0.2183  0.4709  0.4546
   40MOL   C34614464   6.621   3.431   5.312  0.9059  0.5102 -0.5817
   40MOL   C34714465   6.570   3.481   5.175 -0.1746  0.0878 -0.0868
   40MOL   C34814466   6.512   3.620   5.163 -0.6773  0.2981 -1.2574
   40MOL   C34914467   6.497   3.677   5.015 -0.6439  0.3950  0.1833
   40MOL   H35014468   6.457   3.201   5.313 -0.7612  1.3637  0.1083
   40MOL   H35114469   6.525   3.251   5.469  0.5538  0.7951  0.0947
   40MOL   H35214470   6.714   3.255   5.227 -0.0962 -0.2506  0.7136
   40MOL   H35314471   6.542   3.446   5.386  1.4211 -1.5064  0.4161
   40MOL   H35414472   6.701   3.498   5.341  0.9040  0.2351  0.0629
   40MOL   H35514473   6.656   3.479   5.108 -1.3065  0.5161 -1.5718
   40MOL   H35614474   6.500   3.408   5.136 -0.3065 -1.3326  2.6507
   40MOL   H35714475   6.414   3.616   5.210 -0.3596  2.7451 -0.2761
   40MOL   H35814476   6.574   3.687   5.222 -1.0681 -0.7744  0.3883
   40MOL   H35914477   6.415   3.620   4.971 -1.3880  0.2874  1.6547
   40MOL   H36014478   6.461   3.778   5.033 -3.3901 -0.5947  0.4305
   40MOL   H36114479   6.588   3.664   4.957 -0.4941  0.2364  0.4518
   40MOL   H36214480   6.744   3.286   5.403 -0.5079 -1.1436  0.8293
   41MOL     C114481   7.391   5.684   1.812  0.2266  0.0830 -0.8673
   41MOL     C214482   7.519   5.767   1.842  0.6130  0.4349  0.8017
   41MOL     C314483   7.648   5.707   1.774  0.8641  0.3781 -0.3538
   41MOL     C414484   7.641   5.704   1.616 -0.6756  0.3559  0.2533
   41MOL     C514485   0.048   5.716   1.544  0.7647 -0.5197  0.1052
   41MOL     C614486   0.026   5.725   1.395 -0.4209 -0.6781  0.5405
   41MOL     H714487   7.402   5.583   1.851  4.0811  1.2263  1.3151
   41MOL     H814488   7.311   5.721   1.875 -0.4798  0.2064 -1.8266
   41MOL     H914489   7.501   5.868   1.805 -0.0180  0.6218  1.5979
   41MOL    H1014490   7.669   5.607   1.812  0.0555 -0.1350 -1.2238
   41MOL    H1114491   0.000   5.773   1.809  3.1346 -2.5916  0.3230
   41MOL    H1214492   7.573   5.786   1.595 -0.7927  0.4321  0.9273
   41MOL    H1314493   7.597   5.617   1.567 -2.5339  0.5721  1.4979
   41MOL    H1414494   0.099   5.806   1.578 -1.9200  0.2370  2.3687
   41MOL    H1514495   0.108   5.629   1.573  0.3277 -0.2859  1.8009
   41MOL    H1614496   0.128   5.722   1.356 -1.2321 -1.6736 -1.5679
   41MOL    H1714497   7.705   5.819   1.370 -1.2313 -0.3846  3.0601
   41MOL    H1814498   7.687   5.652   1.348 -0.0947 -1.4856  1.3187
   41MOL    H1914499   7.358   5.688   1.708  0.8820 -0.5311 -1.1078
   41MOL    C2014500   7.543   5.785   1.992  0.4231 -0.3138 -0.0255
   41MOL    C2114501   7.457   5.894   2.057  0.0599  0.5400  0.3223
   41MOL    C2214502   7.407   5.858   2.200  0.7864 -0.6170 -0.4933
   41MOL    C2314503   7.510   5.873   2.307  0.4591  0.1215  0.1855
   41MOL    C2414504   7.474   5.827   2.448 -0.0323  0.0119 -0.3003
   41MOL    C2514505   7.428   5.684   2.463 -0.3421 -0.1429  0.2612
   41MOL    H2614506   7.648   5.782   2.022  0.0566 -1.8921  1.1872
   41MOL    H2714507   7.517   5.687   2.032 -0.1085 -0.9769 -1.9247
   41MOL    H2814508   7.366   5.899   1.998  0.3401  2.5520  0.0120
   41MOL    H2914509   7.359   5.760   2.190  0.0852 -0.6001  2.1682
   41MOL    H3014510   7.320   5.921   2.219 -0.8794 -3.0223  0.0964
   41MOL    H3114511   7.538   5.978   2.299 -1.9262  0.6645 -1.7802
   41MOL    H3214512   7.595   5.814   2.273  0.3422 -1.9775  3.3468
   41MOL    H3314513   7.560   5.857   2.508  0.3749  0.7610 -1.2523
   41MOL    H3414514   7.395   5.889   2.490 -0.5928 -0.3862 -0.7580
   41MOL    H3514515   7.341   5.667   2.399  0.3024 -1.5297 -0.2827
   41MOL    H3614516   7.512   5.615   2.448  0.0759  0.4819 -0.3160
   41MOL    H3714517   7.406   5.678   2.569  0.4868  0.7661  0.4928
   41MOL    C3814518   7.511   6.031   2.044 -0.1650 -0.2001 -0.0610
   41MOL    C3914519   7.424   6.153   2.077 -0.2649 -0.3643  0.0427
   41MOL    C4014520   7.511   6.278   2.113 -0.3073 -0.3264  0.1015
   41MOL    C4114521   7.612   6.323   2.006  0.4554  0.2720  0.3706
   41MOL    C4214522   7.692   6.451   2.030  0.0480 -0.2554  1.0863
   41MOL    C4314523   0.074   6.443   2.138 -0.7054 -0.2729  0.4205
   41MOL    H4414524   7.521   6.046   1.937 -0.4347  2.8933  0.2851
   41MOL    H4514525   7.611   6.026   2.087  0.6729 -0.5708 -2.0163
   41MOL    H4614526   7.372   6.133   2.171  0.3179 -0.7540  0.2854
   41MOL    H4714527   7.447   6.356   2.155  2.3738  1.8763  0.1873
   41MOL    H4814528   7.570   6.251   2.201 -1.6729 -4.5074 -0.1543
   41MOL    H4914529   7.678   6.240   1.982 -1.8174 -1.5161  0.2044
   41MOL    H5014530   7.558   6.351   1.916  1.0446  0.0789 -0.0478
   41MOL    H5114531   0.005   6.500   1.941 -0.2916  1.0472  1.6344
   41MOL    H5214532   7.617   6.526   2.058  0.3172  0.8827 -1.1654
   41MOL    H5314533   0.037   6.416   2.237 -2.7622 -0.5497 -0.3996
   41MOL    H5414534   0.125   6.535   2.166 -0.9819 -0.4759  1.6132
   41MOL    H5514535   0.143   6.362   2.114 -1.1818 -1.2330  2.2010
   41MOL    C5614536   7.313   6.174   1.971  0.0292 -0.1647 -0.4529
   41MOL    C5714537   7.192   6.266   2.004  0.8836  0.0109  0.3903
   41MOL    C5814538   7.088   6.183   2.084 -0.0801  0.2654 -0.0022
   41MOL    C5914539   6.948   6.251   2.129 -0.1136 -0.0606  0.4790
   41MOL    C6014540   6.887   6.168   2.242  0.4353  0.3025 -0.3478
   41MOL    C6114541   6.742   6.200   2.259 -0.1005  0.7593  1.1659
   41MOL    H6214542   7.362   6.211   1.880  1.1480  0.7995  0.5173
   41MOL    H6314543   7.272   6.082   1.930  1.2942 -0.7883 -0.3394
   41MOL    H6414544   7.216   6.342   2.078  0.7414 -0.1773  0.6267
   41MOL    H6514545   7.068   6.085   2.043 -0.7076  1.0199 -1.5331
   41MOL    H6614546   7.153   6.159   2.168 -0.1274  2.2878  0.6420
   41MOL    H6714547   6.892   6.241   2.035  1.3433 -2.4736 -0.1826
   41MOL    H6814548   6.957   6.356   2.154 -1.8417  0.4055 -0.6962
   41MOL    H6914549   6.906   6.066   2.211  0.4382 -0.1536  1.1323
   41MOL    H7014550   6.946   6.169   2.333 -3.6315 -1.9612  2.4216
   41MOL    H7114551   6.688   6.181   2.166 -0.1617  1.8793  0.9608
   41MOL    H7214552   6.698   6.131   2.332  1.3334 -1.4017  0.0402
   41MOL    H7314553   6.716   6.303   2.285 -0.3501  0.7709  0.8720
   41MOL    C7414554   7.129   6.331   1.882  0.3448 -0.3959 -0.0736
   41MOL    C7514555   7.083   6.480   1.896 -0.1395 -0.2980  0.2041
   41MOL    C7614556   7.192   6.578   1.948  0.3444 -0.6608 -0.5639
   41MOL    C7714557   7.302   6.627   1.855 -0.1371 -0.3457  0.3147
   41MOL    C7814558   7.383   6.741   1.913  0.4122 -0.2803 -0.1291
   41MOL    C7914559   7.502   6.781   1.828 -0.4383 -0.0936 -0.0528
   41MOL    H8014560   7.202   6.335   1.800  0.0444  1.0245 -0.2835
   41MOL    H8114561   7.041   6.274   1.853 -2.9718  3.4765  1.9738
   41MOL    H8214562   7.006   6.485   1.974 -0.5255  0.2849 -0.2156
   41MOL    H8314563   7.150   6.670   1.988 -1.0114 -0.8320 -1.5324
   41MOL    H8414564   7.242   6.539   2.037  0.8015  1.1082 -0.0384
   41MOL    H8514565   7.361   6.538   1.831  0.7203  0.3993 -0.3320
   41MOL    H8614566   7.258   6.648   1.758 -1.9047  1.8572  1.5494
   41MOL    H8714567   7.415   6.707   2.011  1.2130  0.4257 -0.1444
   41MOL    H8814568   7.332   6.837   1.927  2.3041  0.9886 -1.7249
   41MOL    H8914569   7.542   6.879   1.852  3.0027 -0.9545 -1.8740
   41MOL    H9014570   7.579   6.704   1.835 -0.0925  0.3100  0.5316
   41MOL    H9114571   7.473   6.804   1.726 -0.6004  3.5141  0.7504
   41MOL    C9214572   7.016   6.540   1.768  0.8132 -0.0359  0.5629
   41MOL    C9314573   6.883   6.467   1.723  0.8244 -0.2933  0.4463
   41MOL    C9414574   6.779   6.485   1.832 -0.0803 -0.2123  0.1703
   41MOL    C9514575   6.649   6.401   1.799  0.4144 -0.1728 -0.3117
   41MOL    C9614576   6.555   6.411   1.922 -0.3830 -0.4538 -0.0096
   41MOL    C9714577   6.417   6.347   1.886 -0.1311 -0.5590  0.1425
   41MOL    H9814578   6.990   6.645   1.779  1.7946  0.1614  1.0079
   41MOL    H9914579   7.077   6.542   1.678 -1.4218  0.7632 -0.9812
   41MOL   H10014580   6.894   6.360   1.706  1.4272 -0.2406  0.5185
   41MOL   H10114581   6.754   6.590   1.846  1.4665  0.2101 -0.0890
   41MOL   H10214582   6.815   6.446   1.927 -1.1823  1.5454  1.3278
   41MOL   H10314583   6.594   6.454   1.722  0.7790 -0.6933 -0.9419
   41MOL   H10414584   6.682   6.301   1.769  0.8869  1.3616 -5.3949
   41MOL   H10514585   6.605   6.361   2.005  3.6067  0.4177 -1.7476
   41MOL   H10614586   6.530   6.514   1.946 -0.1278 -0.3306 -0.2645
   41MOL   H10714587   6.423   6.254   1.828  0.6757 -1.2115  1.2694
   41MOL   H10814588   6.349   6.343   1.971  0.5452  1.6167  0.8063
   41MOL   H10914589   6.358   6.413   1.822  2.0623  0.0810 -1.2594
   41MOL   C11014590   6.826   6.526   1.589  0.1120  0.1623 -0.0063
   41MOL   C11114591   6.927   6.545   1.467 -0.2961 -0.2634 -0.1815
   41MOL   C11214592   6.981   6.694   1.468  0.0747 -0.1182 -0.3796
   41MOL   C11314593   7.100   6.732   1.368 -0.5343 -0.1511 -0.2424
   41MOL   C11414594   7.159   6.871   1.399  0.3029 -0.1026 -0.6289
   41MOL   C11514595   7.271   6.867   1.509 -0.5488  0.2757  0.1753
   41MOL   H11614596   6.741   6.473   1.547 -0.8167  0.6187  1.2607
   41MOL   H11714597   6.780   6.623   1.611  0.1512  0.0214  0.7008
   41MOL   H11814598   7.004   6.468   1.483 -0.4003 -0.4090 -0.3826
   41MOL   H11914599   7.007   6.731   1.567 -0.9036 -2.1128  0.6575
   41MOL   H12014600   6.903   6.766   1.444  0.4346  0.4471  0.1334
   41MOL   H12114601   7.070   6.725   1.264  2.0344 -0.3314 -0.9989
   41MOL   H12214602   7.189   6.670   1.378 -0.3037  0.5307  2.3182
   41MOL   H12314603   7.080   6.939   1.430 -1.7686 -1.4262 -2.8366
   41MOL   H12414604   7.196   6.914   1.306  0.9072  0.1209 -0.2890
   41MOL   H12514605   7.356   6.800   1.497 -2.0805 -1.7025  0.0562
   41MOL   H12614606   7.313   6.967   1.516  2.9458 -1.1063 -0.1667
   41MOL   H12714607   7.240   6.836   1.609 -0.1559  2.1684  0.9091
   41MOL   C12814608   6.885   6.505   1.325  0.0452 -0.3361  0.3295
   41MOL   C12914609   6.843   6.357   1.308 -0.0975  0.3406 -0.0496
   41MOL   C13014610   6.969   6.262   1.288  0.0243  0.3987 -0.1761
   41MOL   C13114611   7.046   6.280   1.153  0.3106  0.2201  0.6933
   41MOL   C13214612   7.168   6.193   1.127  0.7431 -0.0311 -0.5849
   41MOL   C13314613   7.209   6.186   0.981  0.6870  0.0081 -0.5406
   41MOL   H13414614   6.962   6.528   1.252 -0.5590 -3.2146 -1.2871
   41MOL   H13514615   6.809   6.575   1.290 -0.0125 -0.1569  0.8022
   41MOL   H13614616   6.800   6.330   1.404 -2.1089 -2.2834 -1.6238
   41MOL   H13714617   7.032   6.283   1.374 -2.2754  0.6918  1.4813
   41MOL   H13814618   6.922   6.164   1.301  0.2980  0.5109  1.7660
   41MOL   H13914619   7.072   6.385   1.148 -1.8180  0.7201 -0.3884
   41MOL   H14014620   6.976   6.267   1.070  1.9268  0.6658 -0.7695
   41MOL   H14114621   7.257   6.216   1.186 -0.1848 -1.1721  1.3075
   41MOL   H14214622   7.145   6.092   1.162  3.0965 -1.1339 -2.0321
   41MOL   H14314623   7.131   6.163   0.909  0.6170 -1.5310  0.0080
   41MOL   H14414624   7.281   6.106   0.966 -1.5566 -2.2493  0.4984
   41MOL   H14514625   7.254   6.278   0.942  0.4506 -0.5761 -2.2259
   41MOL   C14614626   6.731   6.335   1.203  0.4695 -0.8229 -0.3650
   41MOL   C14714627   6.587   6.364   1.237 -0.3912  0.3351  0.1780
   41MOL   C14814628   6.522   6.248   1.318 -0.1572  0.3205  0.3885
   41MOL   C14914629   6.392   6.285   1.390 -0.5606 -1.1907  1.1072
   41MOL   C15014630   6.333   6.187   1.489 -0.3070 -0.0050 -0.3875
   41MOL   C15114631   6.195   6.239   1.540  0.0581  0.8040 -0.4790
   41MOL   H15214632   6.760   6.382   1.109 -1.2921  3.0028  0.9193
   41MOL   H15314633   6.730   6.233   1.165 -1.5733 -0.6370 -0.8268
   41MOL   H15414634   6.576   6.457   1.292  2.6237  1.3001 -0.7815
   41MOL   H15514635   6.595   6.202   1.385 -1.9506 -0.2143  2.0151
   41MOL   H15614636   6.485   6.179   1.242  0.4822  1.6812 -1.1965
   41MOL   H15714637   6.402   6.382   1.438  0.3528 -0.4250 -0.5922
   41MOL   H15814638   6.320   6.290   1.309 -0.3279  1.7670  1.0245
   41MOL   H15914639   6.400   6.176   1.575  0.7773 -0.5000 -1.2855
   41MOL   H16014640   6.326   6.090   1.442  0.7289 -0.3633  0.1870
   41MOL   H16114641   6.140   6.164   1.597  1.1017  0.2081 -0.2441
   41MOL   H16214642   6.212   6.321   1.610  2.3187 -1.1731  1.3416
   41MOL   H16314643   6.128   6.283   1.466 -0.5169 -1.8667 -1.5904
   41MOL   C16414644   6.501   6.411   1.114 -0.3668  0.6757  0.3880
   41MOL   C16514645   6.489   6.314   0.996 -0.0235  0.0535 -0.5838
   41MOL   C16614646   6.375   6.207   1.000 -0.1288  0.1497  0.7984
   41MOL   C16714647   6.398   6.085   0.907  0.0434 -0.5360 -0.2537
   41MOL   C16814648   6.307   5.968   0.935  0.6819 -0.1984  0.1758
   41MOL   C16914649   6.157   5.997   0.901  1.0975  0.1040 -0.2916
   41MOL   H17014650   6.398   6.434   1.143 -0.4084  0.8192  0.1225
   41MOL   H17114651   6.542   6.505   1.080 -0.0054  0.0275 -0.9818
   41MOL   H17214652   6.581   6.255   0.998  0.2303  0.4705 -0.1599
   41MOL   H17314653   6.282   6.256   0.971  1.1535  1.1874 -1.6538
   41MOL   H17414654   6.359   6.163   1.099 -1.8058 -0.5925  0.2169
   41MOL   H17514655   6.497   6.041   0.914  0.1765 -0.3815 -1.0450
   41MOL   H17614656   6.385   6.121   0.805  3.4096 -1.1830 -0.9631
   41MOL   H17714657   6.319   5.944   1.041 -0.6692 -0.1386  0.3464
   41MOL   H17814658   6.338   5.879   0.880 -2.8592 -1.9323  0.8471
   41MOL   H17914659   6.089   5.945   0.968  2.0324 -1.9664 -0.9084
   41MOL   H18014660   6.124   5.976   0.799  0.5820  0.3091 -0.1678
   41MOL   H18114661   6.126   6.098   0.928 -0.4906 -0.3739 -0.2730
   41MOL   C18214662   6.496   6.401   0.858 -0.3889  0.4733 -0.3089
   41MOL   C18314663   6.641   6.408   0.793 -0.1426 -0.3844 -0.4621
   41MOL   C18414664   6.642   6.498   0.663 -0.0531  0.2640  0.4497
   41MOL   C18514665   6.543   6.455   0.554  0.0770  0.3116 -0.4804
   41MOL   C18614666   6.547   6.531   0.427 -0.2210  0.3950 -0.1636
   41MOL   C18714667   6.446   6.476   0.326 -0.3140 -0.5045 -0.4261
   41MOL   H18814668   6.429   6.351   0.789 -1.2395 -1.3769  1.7855
   41MOL   H18914669   6.457   6.502   0.868  0.2164  0.9181 -2.2804
   41MOL   H19014670   6.711   6.451   0.864 -1.6981  1.7405 -0.1753
   41MOL   H19114671   6.598   6.595   0.684  1.1398  1.1463 -1.0429
   41MOL   H19214672   6.739   6.515   0.617  0.4701 -1.7815  0.7389
   41MOL   H19314673   6.445   6.469   0.599 -1.2774 -1.1065 -2.8745
   41MOL   H19414674   6.558   6.350   0.529 -0.6788  0.3003 -0.9251
   41MOL   H19514675   6.652   6.532   0.400 -0.0846  2.8720  0.3287
   41MOL   H19614676   6.526   6.637   0.437 -1.6660  0.5070 -3.6127
   41MOL   H19714677   6.469   6.374   0.298 -0.6894 -0.9507  0.8361
   41MOL   H19814678   6.450   6.536   0.235  1.0780 -1.1885 -0.8403
   41MOL   H19914679   6.346   6.482   0.369  0.2487  1.4456  0.7120
   41MOL   C20014680   6.700   6.266   0.772  0.3539  0.0567 -0.5746
   41MOL   C20114681   6.813   6.245   0.665 -0.1724  0.5486  0.3908
   41MOL   C20214682   6.943   6.330   0.697 -0.0301 -0.5176 -0.5598
   41MOL   C20314683   7.032   6.344   0.574  0.4035  0.0999 -0.2238
   41MOL   C20414684   7.165   6.425   0.608  0.2242  0.2414 -0.0254
   41MOL   C20514685   7.149   6.580   0.613  0.1590  0.4240  0.3892
   41MOL   H20614686   6.613   6.202   0.754 -0.7286  0.9368  1.3442
   41MOL   H20714687   6.742   6.233   0.868 -0.9156 -0.0856 -0.0486
   41MOL   H20814688   6.776   6.291   0.573 -2.0824  0.4536  1.0692
   41MOL   H20914689   7.002   6.282   0.775 -1.2318 -1.3891 -0.1696
   41MOL   H21014690   6.928   6.433   0.729  1.1169 -0.6368  0.3994
   41MOL   H21114691   6.979   6.394   0.493 -0.5575  0.2570  0.4961
   41MOL   H21214692   7.058   6.250   0.526 -3.6708 -0.9561 -0.5334
   41MOL   H21314693   7.228   6.400   0.523  0.1776 -0.8324  0.2436
   41MOL   H21414694   7.214   6.386   0.697  0.1168 -0.0143 -0.0779
   41MOL   H21514695   7.250   6.620   0.623  0.4395 -0.3247  0.6048
   41MOL   H21614696   7.088   6.623   0.534  0.8051 -0.8593 -0.8358
   41MOL   H21714697   7.092   6.608   0.702 -1.6680  2.9752 -1.5309
   41MOL   C21814698   6.836   6.094   0.636 -0.1503  0.2707 -0.0821
   41MOL   C21914699   6.735   6.023   0.540 -0.5116  0.1953  0.2166
   41MOL   C22014700   6.686   5.886   0.595  0.1891  0.5024 -0.6460
   41MOL   C22114701   6.594   5.893   0.720 -0.1546 -0.0607 -1.0311
   41MOL   C22214702   6.576   5.764   0.790  0.0207  0.5966 -0.1017
   41MOL   C22314703   6.478   5.676   0.721  0.0372  0.3872 -0.1306
   41MOL   H22414704   6.937   6.076   0.601 -0.6989 -1.2929 -0.9151
   41MOL   H22514705   6.844   6.047   0.734  1.3857  1.4131  0.3624
   41MOL   H22614706   6.648   6.085   0.522 -0.3958 -0.1862 -1.7524
   41MOL   H22714707   6.773   5.822   0.612 -0.6029 -0.4190  0.0684
   41MOL   H22814708   6.630   5.827   0.523  0.1482 -0.4268  0.1260
   41MOL   H22914709   6.498   5.940   0.699  0.0874  0.9423  0.0990
   41MOL   H23014710   6.652   5.953   0.790 -1.8723  0.3814  0.0465
   41MOL   H23114711   6.669   5.708   0.802 -0.7327 -1.0793 -1.8791
   41MOL   H23214712   6.535   5.767   0.891  0.3708  1.2727  0.0279
   41MOL   H23314713   6.515   5.637   0.626  0.8530 -0.7621  0.6377
   41MOL   H23414714   6.388   5.737   0.709  1.8480  3.0801 -0.2120
   41MOL   H23514715   6.459   5.598   0.795  0.7042  0.4761  0.1318
   41MOL   C23614716   6.797   6.014   0.393 -0.6611 -0.2988 -0.2338
   41MOL   C23714717   6.730   5.944   0.274 -0.0854 -0.2041 -0.4225
   41MOL   C23814718   6.829   5.932   0.160 -0.5813 -0.4841 -0.6579
   41MOL   C23914719   6.792   5.831   0.044  0.1607  0.1111  0.0321
   41MOL   C24014720   6.925   5.803   7.689  0.1875 -0.3595 -0.1338
   41MOL   C24114721   6.898   5.700   7.585 -0.1144 -0.1077  0.4167
   41MOL   H24214722   6.836   6.113   0.371 -1.5909  0.4538  1.3840
   41MOL   H24314723   6.894   5.968   0.411 -0.8318 -1.0801 -1.2806
   41MOL   H24414724   6.716   5.843   0.313  1.3876 -0.5383 -0.7148
   41MOL   H24514725   6.836   6.029   0.110 -1.4372  1.3398  2.6352
   41MOL   H24614726   6.930   5.916   0.198 -0.7194 -3.5898 -1.4575
   41MOL   H24714727   6.705   5.859   7.711  1.6874  1.9037 -1.3882
   41MOL   H24814728   6.764   5.735   0.089  0.1292  0.6703  1.2323
   41MOL   H24914729   6.950   5.889   7.626 -3.2522  1.4767  0.8657
   41MOL   H25014730   7.014   5.772   0.017  0.9722  2.5474  0.3088
   41MOL   H25114731   6.820   5.732   7.517 -0.4273 -0.1915  0.7363
   41MOL   H25214732   6.989   5.681   7.528  1.3165  0.0924  2.5647
   41MOL   H25314733   6.868   5.612   7.642  0.2015  0.4597  1.4724
   41MOL   C25414734   6.590   6.018   0.252  0.1904 -0.1426 -0.0655
   41MOL   C25514735   6.483   5.951   0.170 -0.0572  0.1428 -0.6795
   41MOL   C25614736   6.358   6.036   0.132  0.0266  1.0733 -0.1095
   41MOL   C25714737   6.395   6.173   0.074 -0.8477  0.5546 -0.4471
   41MOL   C25814738   6.273   6.252   0.020  0.0750 -0.2457  0.0298
   41MOL   C25914739   6.307   6.392   7.696  0.7747  0.1989 -0.7560
   41MOL   H26014740   6.621   6.114   0.209  0.1177 -0.3326 -0.5495
   41MOL   H26114741   6.547   6.049   0.347  0.8616  0.4894  0.0382
   41MOL   H26214742   6.528   5.918   0.076  1.2739 -0.5182  0.1690
   41MOL   H26314743   6.296   5.985   0.058  3.1018 -1.1207 -1.2628
   41MOL   H26414744   6.297   6.055   0.220  2.0089  3.2828  0.8507
   41MOL   H26514745   6.452   6.234   0.144  0.6354 -1.5445  0.2013
   41MOL   H26614746   6.470   6.168   7.723  1.1307 -0.5204  1.4843
   41MOL   H26714747   6.194   6.257   0.095  1.7521  0.3916  1.8267
   41MOL   H26814748   6.230   6.192   7.667  2.6530 -1.7879 -0.2835
   41MOL   H26914749   6.219   6.453   7.675  2.5704  2.7102 -1.2812
   41MOL   H27014750   6.379   6.372   7.617  1.1122  0.8632 -0.6215
   41MOL   H27114751   6.355   6.460   0.040  1.7728  0.5408 -1.7522
   41MOL   C27214752   6.441   5.818   0.243  0.0712 -0.2080  0.3649
   41MOL   C27314753   6.343   5.722   0.159 -0.2205  0.4575 -1.1985
   41MOL   C27414754   6.276   5.612   0.239  0.8874  0.1834 -0.1195
   41MOL   C27514755   6.163   5.663   0.327  0.2694 -0.1895 -0.4440
   41MOL   C27614756   6.074   5.547   0.379  0.4060  0.4829  0.0427
   41MOL   C27714757   5.951   5.604   0.468 -0.0163  0.1693  0.0628
   41MOL   H27814758   6.517   5.749   0.281 -0.8096 -0.7389  1.2181
   41MOL   H27914759   6.387   5.842   0.335 -0.8124 -1.4144  0.1716
   41MOL   H28014760   6.271   5.781   0.102 -1.2218  1.1570  0.7719
   41MOL   H28114761   6.334   5.553   0.310  0.1008  0.0561  0.4251
   41MOL   H28214762   6.224   5.549   0.167  1.1765  1.0951 -1.1244
   41MOL   H28314763   6.102   5.741   0.282  1.5963  0.8840 -0.4068
   41MOL   H28414764   6.206   5.707   0.417  2.4021 -1.2487 -0.8977
   41MOL   H28514765   6.038   5.473   0.308  1.2414 -3.4534  3.5071
   41MOL   H28614766   6.143   5.484   0.434 -0.2858 -1.5046 -1.3431
   41MOL   H28714767   5.983   5.701   0.508  0.8537  0.4491 -1.2787
   41MOL   H28814768   5.867   5.623   0.402 -0.1115  1.0208  0.4265
   41MOL   H28914769   5.912   5.543   0.549  0.1026 -0.2211 -0.1750
   41MOL   C29014770   6.424   5.652   0.047  0.1368 -0.1807  0.6671
   41MOL   C29114771   6.360   5.605   7.641 -0.5662  0.7411  0.0046
   41MOL   C29214772   6.287   5.722   7.566  0.2104  0.2324  0.3935
   41MOL   C29314773   6.382   5.842   7.524  0.2196  0.3251 -0.0478
   41MOL   C29414774   6.312   5.970   7.478  0.2672  0.1334 -0.5531
   41MOL   C29514775   6.399   6.090   7.437 -0.1466  0.3833 -0.0501
   41MOL   H29614776   6.469   5.563   0.091  3.2143  1.5948  1.3009
   41MOL   H29714777   6.513   5.710   0.020 -1.0536  1.0423 -0.7550
   41MOL   H29814778   6.282   5.531   7.657 -0.3832  0.8254  1.3697
   41MOL   H29914779   6.193   5.755   7.609 -0.0332  2.3399 -1.6742
   41MOL   H30014780   6.254   5.687   7.468 -0.3926  2.3303 -0.1862
   41MOL   H30114781   6.444   5.865   7.611  0.9621 -0.4761 -0.3557
   41MOL   H30214782   6.455   5.817   7.447  1.3292 -0.0664  1.1052
   41MOL   H30314783   6.244   6.004   7.556  0.1231  1.8677 -1.4185
   41MOL   H30414784   6.258   5.945   7.386 -0.6232 -0.1815  0.0435
   41MOL   H30514785   6.341   6.182   7.452 -0.3673  0.0969  0.8520
   41MOL   H30614786   6.429   6.087   7.332  1.6663 -0.6019  0.4917
   41MOL   H30714787   6.487   6.091   7.500  1.4164 -0.1326 -2.1824
   41MOL   C30814788   6.478   5.545   7.558 -0.4561  0.0568  0.0691
   41MOL   C30914789   6.440   5.466   7.431 -0.0151 -0.6138  0.0637
   41MOL   C31014790   6.381   5.328   7.467  0.2307  0.3761 -0.0064
   41MOL   C31114791   6.316   5.254   7.352  0.4833 -0.0969  0.5111
   41MOL   C31214792   6.251   5.123   7.395 -0.0675 -0.1127 -0.2451
   41MOL   C31314793   6.165   5.059   7.293  0.6627  0.9393  0.8281
   41MOL   H31414794   6.547   5.624   7.528 -1.5522  1.5790  1.4973
   41MOL   H31514795   6.545   5.481   7.616  1.0376  3.2713  2.0112
   41MOL   H31614796   6.357   5.517   7.383 -0.1511 -0.0474  0.9039
   41MOL   H31714797   6.307   5.323   7.548  1.1998  1.3047  0.9497
   41MOL   H31814798   6.460   5.256   7.490 -2.1954 -1.9367  1.3761
   41MOL   H31914799   6.392   5.233   7.277  1.5735 -0.1895  1.6415
   41MOL   H32014800   6.240   5.319   7.309 -1.3331 -1.1868  1.9869
   41MOL   H32114801   6.331   5.051   7.414  1.4689  1.3333 -1.1152
   41MOL   H32214802   6.195   5.131   7.488  0.3786 -0.9812  0.1056
   41MOL   H32314803   6.088   5.124   7.251 -0.8727 -2.4347 -1.8046
   41MOL   H32414804   6.137   4.956   7.313  4.7605 -0.3608  0.3059
   41MOL   H32514805   6.226   5.044   7.204  0.2963 -0.1537  0.7564
   41MOL   C32614806   6.560   5.458   7.327 -0.9434  0.2157  0.0583
   41MOL   C32714807   6.527   5.503   7.181 -0.5220  0.0621  0.1781
   41MOL   C32814808   6.512   5.657   7.169  0.0911  0.2144  0.2040
   41MOL   C32914809   6.632   5.742   7.210  0.9708  0.0351 -0.1824
   41MOL   C33014810   6.592   5.894   7.185 -1.1580 -0.0821  0.2150
   41MOL   C33114811   6.690   5.989   7.247 -0.3280 -0.0938 -0.1467
   41MOL   H33214812   6.595   5.354   7.329  1.5047  0.9987 -0.0790
   41MOL   H33314813   6.652   5.504   7.364 -1.1263 -2.4206  4.0869
   41MOL   H33414814   6.438   5.449   7.148 -1.2304  1.9605 -1.1566
   41MOL   H33514815   6.488   5.687   7.067 -0.6964  2.5817  1.0529
   41MOL   H33614816   6.431   5.689   7.234  0.3357  0.4230  0.4035
   41MOL   H33714817   6.720   5.721   7.148 -0.3533  0.0682 -2.1106
   41MOL   H33814818   6.644   5.725   7.317 -2.8629 -3.4997 -0.2075
   41MOL   H33914819   6.597   5.915   7.078  0.7361 -1.5563 -0.0162
   41MOL   H34014820   6.487   5.912   7.206 -1.6424  0.5414 -2.5401
   41MOL   H34114821   6.670   5.999   7.354  1.6686 -0.6623  0.3068
   41MOL   H34214822   6.678   6.091   7.210 -1.3777 -0.7276 -1.5732
   41MOL   H34314823   6.793   5.958   7.233 -0.6103 -1.6572  1.1835
   41MOL   C34414824   6.633   5.442   7.087  0.4465  0.0614  0.4213
   41MOL   C34514825   6.599   5.452   6.938 -0.2815  0.2867 -0.6076
   41MOL   C34614826   6.704   5.377   6.861  0.2237 -0.6031  0.0888
   41MOL   C34714827   6.676   5.377   6.715  0.8279  0.5158  0.1749
   41MOL   C34814828   6.794   5.315   6.635  0.0243  0.1454 -0.3589
   41MOL   C34914829   6.770   5.342   6.483  0.2718 -0.0205 -0.0560
   41MOL   H35014830   6.733   5.480   7.109  1.4680 -1.5434 -1.3452
   41MOL   H35114831   6.629   5.334   7.101  0.8051 -0.1124 -0.6972
   41MOL   H35214832   6.590   5.556   6.906 -0.7814  0.7063  0.8262
   41MOL   H35314833   6.803   5.418   6.883 -0.2044 -0.3630  1.6508
   41MOL   H35414834   6.700   5.274   6.899 -2.1526 -1.1883 -1.6530
   41MOL   H35514835   6.575   5.339   6.698  0.1975  1.5321  1.5864
   41MOL   H35614836   6.661   5.483   6.694 -0.9034  0.0175 -1.2273
   41MOL   H35714837   6.889   5.361   6.663 -0.6019  1.1471  0.1677
   41MOL   H35814838   6.814   5.210   6.656  0.1849  0.5396  1.5389
   41MOL   H35914839   6.757   5.447   6.457  0.1963 -0.4354 -1.7836
   41MOL   H36014840   6.854   5.314   6.419  0.9461  0.4943  0.5850
   41MOL   H36114841   6.689   5.284   6.438  0.8589 -3.0169  2.5751
   41MOL   H36214842   6.504   5.404   6.914 -0.1623 -1.3021  1.9971
   42MOL     C114843   6.026   6.206   5.078 -0.2247 -0.4249 -0.2120
   42MOL     C214844   6.133   6.274   5.156 -0.3298  0.1348 -0.0017
   42MOL     C314845   6.160   6.221   5.299  0.5856 -0.2228  0.2206
   42MOL     C414846   6.234   6.091   5.301  0.2968  0.2110 -0.2228
   42MOL     C514847   6.266   6.034   5.436 -0.0474  0.5535  0.2596
   42MOL     C614848   6.400   5.962   5.438 -0.9330 -0.7413  0.1651
   42MOL     H714849   6.032   6.223   4.971 -1.3875  0.3230 -0.1647
   42MOL     H814850   6.026   6.098   5.094 -0.5849 -0.4423 -0.3356
   42MOL     H914851   6.221   6.269   5.092  0.7833  0.0267  1.5131
   42MOL    H1014852   6.065   6.210   5.350 -1.4982  3.3034 -2.6632
   42MOL    H1114853   6.217   6.291   5.360 -1.2525  1.0966  0.4438
   42MOL    H1214854   6.332   6.111   5.259  0.1390 -0.6468 -1.0064
   42MOL    H1314855   6.186   6.018   5.236 -0.3104 -0.1574  0.6295
   42MOL    H1414856   6.273   6.111   5.513 -1.7129 -0.7279  1.7223
   42MOL    H1514857   6.194   5.959   5.469 -0.9558  0.3857 -2.0071
   42MOL    H1614858   6.435   5.903   5.523 -0.3776 -0.3004  0.2454
   42MOL    H1714859   6.480   6.035   5.425 -0.8852 -0.5338  1.4986
   42MOL    H1814860   6.405   5.898   5.350 -0.1666  0.1264 -0.4284
   42MOL    H1914861   5.927   6.239   5.109 -0.6350 -0.9578 -0.9529
   42MOL    C2014862   6.092   6.419   5.170 -0.2669  0.5284  0.4278
   42MOL    C2114863   6.067   6.515   5.049 -0.1765 -0.2699  0.4748
   42MOL    C2214864   5.989   6.647   5.075 -0.6578 -0.7753 -0.7798
   42MOL    C2314865   6.066   6.748   5.161 -0.3565  0.2507 -0.2667
   42MOL    C2414866   5.989   6.870   5.221  0.7370 -0.4096  0.1982
   42MOL    C2514867   5.934   6.970   5.117  0.4696  0.2227  0.4403
   42MOL    H2614868   6.169   6.461   5.234  2.8422 -1.8410 -1.6217
   42MOL    H2714869   6.001   6.408   5.229 -0.1950 -4.2121 -0.1626
   42MOL    H2814870   5.998   6.450   4.996  1.5997 -0.9418 -1.0486
   42MOL    H2914871   5.903   6.620   5.136  0.2963  0.3665  1.1228
   42MOL    H3014872   5.952   6.694   4.984 -0.0159  0.5767 -0.3458
   42MOL    H3114873   6.157   6.781   5.111 -0.3732 -0.1844 -0.5949
   42MOL    H3214874   6.097   6.699   5.253 -0.5349  1.1632  0.2781
   42MOL    H3314875   5.897   6.831   5.263  1.4439 -2.1920  0.1290
   42MOL    H3414876   6.055   6.920   5.291 -0.7084  0.9711  0.6109
   42MOL    H3514877   5.890   6.931   5.025 -0.2733  0.7909  0.5511
   42MOL    H3614878   5.870   7.037   5.175  1.1360  1.6863 -0.4691
   42MOL    H3714879   6.017   7.029   5.077  1.0737 -0.2710  0.9670
   42MOL    C3814880   6.194   6.542   4.963 -1.1604 -0.3826  0.0055
   42MOL    C3914881   6.180   6.575   4.810 -0.5414 -0.9392  0.0851
   42MOL    C4014882   6.301   6.662   4.777 -0.2054 -0.5863  0.3284
   42MOL    C4114883   6.322   6.710   4.626 -0.2973 -0.4300 -0.2362
   42MOL    C4214884   6.455   6.787   4.600 -0.0454 -0.4972  0.6309
   42MOL    C4314885   6.459   6.854   4.457  0.0933  0.6219  0.3360
   42MOL    H4414886   6.271   6.465   4.967 -0.4610  0.3391  0.6845
   42MOL    H4514887   6.247   6.617   5.021 -0.8367  1.0534 -2.0876
   42MOL    H4614888   6.093   6.636   4.787  0.2949  0.4918  0.6136
   42MOL    H4714889   6.308   6.751   4.840 -0.6578  0.7017 -1.3967
   42MOL    H4814890   6.395   6.615   4.803  0.4518  1.5227  1.8695
   42MOL    H4914891   6.311   6.635   4.548  0.3371 -0.5333 -0.2342
   42MOL    H5014892   6.240   6.779   4.607 -0.4659  0.4373  3.3192
   42MOL    H5114893   6.482   6.855   4.681 -1.4240 -1.0946  1.6253
   42MOL    H5214894   6.542   6.722   4.606  0.7564  0.4317 -0.7873
   42MOL    H5314895   6.427   6.779   4.385  4.4476 -2.6182  1.5734
   42MOL    H5414896   6.560   6.863   4.418 -0.6232 -0.0405 -1.7320
   42MOL    H5514897   6.405   6.949   4.450 -1.2919 -0.2669 -1.2958
   42MOL    C5614898   6.179   6.455   4.721  0.6815  0.4433 -0.1935
   42MOL    C5714899   6.108   6.461   4.583 -0.2396  0.2113  0.2565
   42MOL    C5814900   5.955   6.470   4.589 -0.1899  0.6008  0.1318
   42MOL    C5914901   5.876   6.348   4.644 -0.2403  0.3920  0.1574
   42MOL    C6014902   5.740   6.381   4.694 -0.6209 -0.1804  0.3955
   42MOL    C6114903   5.733   6.476   4.804 -0.2405 -0.2549 -0.8074
   42MOL    H6214904   6.281   6.421   4.704 -0.5112 -1.8680 -3.0609
   42MOL    H6314905   6.126   6.370   4.765 -0.3542  0.3711 -1.5420
   42MOL    H6414906   6.129   6.563   4.550 -0.7535  0.2635  0.0755
   42MOL    H6514907   5.931   6.561   4.644 -0.5902 -0.2607  1.4053
   42MOL    H6614908   5.914   6.504   4.494  0.6940 -2.7064 -1.4947
   42MOL    H6714909   5.924   6.317   4.737  0.4084 -0.4390 -0.4375
   42MOL    H6814910   5.880   6.277   4.561  0.0541  0.3005  0.2484
   42MOL    H6914911   5.676   6.409   4.609  1.4590 -0.5441 -1.3292
   42MOL    H7014912   5.691   6.287   4.721  1.9667 -1.2814  1.3319
   42MOL    H7114913   5.788   6.442   4.892  1.3682  0.4087 -1.5165
   42MOL    H7214914   5.768   6.578   4.787  2.8190 -1.1566 -0.3408
   42MOL    H7314915   5.627   6.498   4.817 -0.3413 -1.1572 -0.0630
   42MOL    C7414916   6.166   6.349   4.491 -0.2125 -0.1761  0.3700
   42MOL    C7514917   6.145   6.383   4.339  0.0929  0.2519 -0.6077
   42MOL    C7614918   6.280   6.451   4.282  0.3261 -0.4101 -0.0009
   42MOL    C7714919   6.257   6.563   4.178 -0.1274  0.2683  0.0403
   42MOL    C7814920   6.396   6.604   4.123 -0.1633 -0.4631 -0.3130
   42MOL    C7914921   6.390   6.708   4.016 -0.7634 -0.2036  0.4678
   42MOL    H8014922   6.274   6.338   4.507  0.2556  2.0587 -0.9875
   42MOL    H8114923   6.124   6.250   4.511 -1.3273 -0.0417 -1.1492
   42MOL    H8214924   6.073   6.464   4.325 -1.6761 -1.4676 -1.5813
   42MOL    H8314925   6.332   6.501   4.363 -0.8379  1.0237 -0.1002
   42MOL    H8414926   6.355   6.381   4.246  1.6040 -0.5139  2.7284
   42MOL    H8514927   6.199   6.535   4.090 -0.8489  1.6720  0.0514
   42MOL    H8614928   6.211   6.650   4.224 -0.2756 -0.0420  0.4850
   42MOL    H8714929   6.446   6.513   4.089  1.6993  0.9719 -1.4898
   42MOL    H8814930   6.475   6.636   4.191  0.3093  1.4273 -1.7026
   42MOL    H8914931   6.325   6.686   3.932 -0.7781 -1.0821  0.7039
   42MOL    H9014932   6.360   6.809   4.044 -1.8465 -0.5952  0.7058
   42MOL    H9114933   6.490   6.729   3.976 -1.3289  0.0667 -0.8388
   42MOL    C9214934   6.125   6.262   4.249 -0.7410  0.1262 -0.6888
   42MOL    C9314935   5.987   6.183   4.265  0.8798 -0.1933 -0.4977
   42MOL    C9414936   5.864   6.273   4.243 -0.4623  0.6326  0.2807
   42MOL    C9514937   5.745   6.204   4.307 -0.3110  0.1359  0.2468
   42MOL    C9614938   5.630   6.301   4.341 -0.3484 -0.2677  0.2401
   42MOL    C9714939   5.506   6.235   4.388  0.8224 -0.2970 -0.3360
   42MOL    H9814940   6.138   6.279   4.142 -2.3037  0.3375 -0.8543
   42MOL    H9914941   6.208   6.194   4.268  0.1371  0.9708 -1.4505
   42MOL   H10014942   5.992   6.153   4.370 -0.3352  1.9199  0.1922
   42MOL   H10114943   5.836   6.291   4.139 -1.8029 -0.2462  0.4690
   42MOL   H10214944   5.869   6.371   4.290 -1.1947  0.1585  1.3590
   42MOL   H10314945   5.700   6.132   4.239  0.1587  0.8348 -0.8217
   42MOL   H10414946   5.772   6.141   4.391  0.4320 -1.0975 -0.9017
   42MOL   H10514947   5.665   6.379   4.408 -0.4085 -0.5446  0.5998
   42MOL   H10614948   5.606   6.351   4.247 -1.9003  1.2208  1.3978
   42MOL   H10714949   5.453   6.181   4.309  1.7103 -2.6834  0.6295
   42MOL   H10814950   5.520   6.170   4.474  0.4536 -0.6157 -0.5150
   42MOL   H10914951   5.437   6.312   4.420 -0.1515 -0.5900 -1.6545
   42MOL   C11014952   5.989   6.058   4.179 -0.2906  0.8894  0.0225
   42MOL   C11114953   6.092   5.948   4.213 -0.6650  0.0312 -0.1934
   42MOL   C11214954   6.116   5.847   4.106 -0.0346 -0.2557 -0.6768
   42MOL   C11314955   6.172   5.915   3.975 -0.1204 -0.6017  0.0446
   42MOL   C11414956   6.225   5.830   3.857  0.3325 -0.0005  0.2766
   42MOL   C11514957   6.328   5.728   3.911 -0.2602  0.1603 -0.0522
   42MOL   H11614958   5.892   6.011   4.194  0.2562  0.2229  1.5362
   42MOL   H11714959   5.983   6.085   4.073 -0.3268 -2.7797 -0.9612
   42MOL   H11814960   6.187   5.994   4.237 -0.4533 -0.5522  0.1063
   42MOL   H11914961   6.026   5.790   4.084  1.4066 -2.1164 -1.9214
   42MOL   H12014962   6.188   5.773   4.141 -0.1130 -0.1806 -0.3553
   42MOL   H12114963   6.252   5.987   3.991  0.2805 -0.8787 -0.6587
   42MOL   H12214964   6.088   5.973   3.936  0.6555  0.8579  0.5183
   42MOL   H12314965   6.270   5.894   3.781  1.0099  1.2748  1.7303
   42MOL   H12414966   6.142   5.781   3.806  0.2264  2.8068 -2.3919
   42MOL   H12514967   6.343   5.651   3.836 -1.0419 -1.7554  1.7114
   42MOL   H12614968   6.420   5.782   3.934  1.5553 -2.2361 -1.4415
   42MOL   H12714969   6.300   5.680   4.005 -1.5047 -0.6662 -0.8365
   42MOL   C12814970   6.046   5.867   4.339 -0.4069  0.7156  0.1974
   42MOL   C12914971   6.162   5.814   4.433 -0.4921 -0.1882  0.1213
   42MOL   C13014972   6.128   5.705   4.543  0.3278 -0.3658  0.3316
   42MOL   C13114973   6.053   5.583   4.493 -0.4816  0.3128  0.8501
   42MOL   C13214974   6.030   5.483   4.597 -0.0079 -0.1171 -0.5806
   42MOL   C13314975   5.968   5.358   4.542 -0.2200  0.1438  0.3254
   42MOL   H13414976   5.980   5.782   4.323  0.2939  0.0248  0.8949
   42MOL   H13514977   5.980   5.935   4.393  0.0135  3.4711 -2.6427
   42MOL   H13614978   6.233   5.758   4.372 -1.7967 -0.2923 -1.3522
   42MOL   H13714979   6.222   5.664   4.580  0.7917 -1.4700 -1.9524
   42MOL   H13814980   6.083   5.742   4.635 -0.9563 -2.3967  0.5527
   42MOL   H13914981   6.104   5.542   4.406  0.3909 -0.3736  1.6719
   42MOL   H14014982   5.958   5.617   4.452  0.8974  0.6830 -2.1921
   42MOL   H14114983   6.121   5.466   4.656 -1.4647  2.6352  2.6441
   42MOL   H14214984   5.964   5.520   4.675  0.6466  0.4995 -0.3158
   42MOL   H14314985   5.917   5.382   4.449  0.8276 -0.5700 -0.4533
   42MOL   H14414986   5.895   5.308   4.607 -1.3961 -1.2825 -2.0396
   42MOL   H14514987   6.048   5.284   4.541 -1.4368 -1.2259 -3.3812
   42MOL   C14614988   6.223   5.930   4.509  0.3535  0.5156 -0.0852
   42MOL   C14714989   6.372   5.925   4.546 -0.4721 -0.4587  0.3937
   42MOL   C14814990   6.405   6.038   4.649 -0.3694  0.0058  0.0765
   42MOL   C14914991   6.391   5.990   4.793  0.4744 -0.2299 -0.4332
   42MOL   C15014992   6.397   6.119   4.878 -0.1494  0.1406  0.9484
   42MOL   C15114993   6.535   6.186   4.873  0.2068 -0.6355  0.4312
   42MOL   H15214994   6.202   6.020   4.453 -1.6359  1.6983  2.4483
   42MOL   H15314995   6.169   5.943   4.603 -1.2016  0.8886 -1.0175
   42MOL   H15414996   6.407   5.834   4.594 -0.8936 -1.0956 -0.4857
   42MOL   H15514997   6.342   6.123   4.625 -0.3693 -0.1029 -0.3090
   42MOL   H15614998   6.511   6.066   4.645 -0.0291 -1.0990  1.0180
   42MOL   H15714999   6.292   5.946   4.811  0.6051  0.2517  1.5673
   42MOL   H15815000   6.454   5.905   4.817  0.4355 -0.0198  0.4172
   42MOL   H15915001   6.376   6.097   4.982 -1.9381  1.5413  0.9148
   42MOL   H16015002   6.322   6.194   4.851 -0.2681  0.0396  0.9994
   42MOL   H16115003   6.533   6.262   4.951 -0.8722  0.8876 -1.0477
   42MOL   H16215004   6.619   6.116   4.877 -0.0892 -1.0169  0.0063
   42MOL   H16315005   6.547   6.240   4.779  1.3932 -0.3028  0.7634
   42MOL   C16415006   6.456   5.953   4.414 -0.3560  0.5540  0.2836
   42MOL   C16515007   6.599   5.907   4.433  0.2285  0.3053 -0.2185
   42MOL   C16615008   6.615   5.754   4.411 -0.2590  0.4258  0.6380
   42MOL   C16715009   6.565   5.697   4.279  0.7471 -0.1773 -0.3571
   42MOL   C16815010   6.645   5.572   4.249 -0.1139  0.3034 -0.3346
   42MOL   C16915011   6.609   5.531   4.104  0.3305 -0.4246  0.0537
   42MOL   H17015012   6.416   5.898   4.329 -0.0556  1.9683 -0.7922
   42MOL   H17115013   6.450   6.060   4.392 -4.7294  0.4413  0.5546
   42MOL   H17215014   6.629   5.925   4.536 -0.0554 -0.0196 -0.0782
   42MOL   H17315015   6.580   5.692   4.493 -2.8247 -1.0055 -1.4598
   42MOL   H17415016   6.722   5.746   4.426  0.3182  0.1895 -3.0110
   42MOL   H17515017   6.584   5.771   4.201  1.4731 -0.6596 -0.6437
   42MOL   H17615018   6.459   5.674   4.287  0.5276  0.9248 -0.0626
   42MOL   H17715019   6.629   5.494   4.324  0.9800  0.6682  0.2816
   42MOL   H17815020   6.750   5.598   4.259  0.6040 -1.4620 -2.8991
   42MOL   H17915021   6.682   5.459   4.066 -0.7363 -1.4257 -0.1398
   42MOL   H18015022   6.636   5.612   4.037 -2.5744  0.1668 -0.4290
   42MOL   H18115023   6.508   5.492   4.092  1.0467 -2.0963 -0.8644
   42MOL   C18215024   6.699   5.983   4.343 -0.4937 -0.6432 -0.3170
   42MOL   C18315025   6.851   5.957   4.343 -0.4572  0.3806  0.1622
   42MOL   C18415026   6.914   5.978   4.482 -0.1741 -0.2529 -0.4244
   42MOL   C18515027   6.900   6.114   4.545 -0.0798 -0.7631 -1.0310
   42MOL   C18615028   6.967   6.132   4.681 -0.6920  0.4067 -0.0399
   42MOL   C18715029   6.914   6.263   4.736 -0.3331  0.2856  0.4411
   42MOL   H18815030   6.678   5.965   4.238 -0.3351 -2.3619 -0.0623
   42MOL   H18915031   6.690   6.090   4.363  0.4174 -0.0236 -2.9767
   42MOL   H19015032   6.865   5.854   4.312 -0.4818  0.1141  1.0482
   42MOL   H19115033   6.860   5.908   4.547 -2.4403  0.3207 -1.6517
   42MOL   H19215034   7.021   5.956   4.486 -0.5436 -1.9861  0.6356
   42MOL   H19315035   6.794   6.125   4.564 -0.2927 -2.1900 -1.3448
   42MOL   H19415036   6.925   6.197   4.479  1.0595 -1.0519 -0.9770
   42MOL   H19515037   7.075   6.132   4.667 -0.8875  1.2847 -1.6615
   42MOL   H19615038   6.943   6.061   4.760 -0.5300 -0.1297 -0.4641
   42MOL   H19715039   6.806   6.255   4.748 -0.2170 -0.6576  0.9556
   42MOL   H19815040   6.935   6.349   4.673  1.4445 -1.5549 -1.5675
   42MOL   H19915041   6.958   6.289   4.832  1.1832 -0.5928 -0.0077
   42MOL   C20015042   6.920   6.049   4.233  0.0686  0.2211 -0.5911
   42MOL   C20115043   7.066   6.031   4.199  1.3509  0.4405  0.5902
   42MOL   C20215044   7.097   5.874   4.156  0.5664 -0.7281  0.6794
   42MOL   C20315045   7.249   5.848   4.161 -0.2247  0.1353  0.0473
   42MOL   C20415046   7.308   5.843   4.305  0.1766  0.6064 -0.1469
   42MOL   C20515047   7.454   5.803   4.313  0.4368  0.0078 -0.0432
   42MOL   H20615048   6.904   6.154   4.256 -2.2141 -0.6732  2.2739
   42MOL   H20715049   6.856   6.035   4.147 -1.4008 -0.6038  0.6062
   42MOL   H20815050   7.125   6.075   4.279  1.1182  1.3556  0.2676
   42MOL   H20915051   7.040   5.845   4.068  1.5906 -1.3016  0.1934
   42MOL   H21015052   7.053   5.809   4.232  1.7615 -1.7153  0.5404
   42MOL   H21115053   7.312   5.913   4.101  0.3132 -2.2038 -2.0236
   42MOL   H21215054   7.268   5.752   4.113 -1.0562  0.2314 -0.4958
   42MOL   H21315055   7.253   5.788   4.382  3.1813  0.5177  1.9879
   42MOL   H21415056   7.287   5.939   4.353  0.3564  0.7045 -0.2683
   42MOL   H21515057   7.514   5.855   4.238  2.4540  1.0922  2.2589
   42MOL   H21615058   7.496   5.834   4.409  1.2691  0.2719 -0.4850
   42MOL   H21715059   7.480   5.699   4.296  1.1334 -0.2971  2.6641
   42MOL   C21815060   7.102   6.125   4.077 -0.4047  0.1267  0.1836
   42MOL   C21915061   7.146   6.264   4.110  0.4375  0.5080 -1.0272
   42MOL   C22015062   7.138   6.353   3.987 -0.6196 -0.4259  0.3015
   42MOL   C22115063   6.999   6.389   3.921 -0.1320  0.6339 -0.7074
   42MOL   C22215064   6.993   6.518   3.832  0.3700  0.6871 -0.1172
   42MOL   C22315065   6.854   6.557   3.784  0.3735  0.1182  0.0414
   42MOL   H22415066   7.181   6.072   4.023  0.9325 -0.1081  2.2998
   42MOL   H22515067   7.017   6.130   4.009 -1.5873  1.4943  1.7454
   42MOL   H22615068   7.081   6.298   4.191 -1.0721 -4.4398  0.0220
   42MOL   H22715069   7.206   6.308   3.914  0.3306  0.9623  0.3115
   42MOL   H22815070   7.190   6.444   4.015 -2.2077  0.5386  0.1412
   42MOL   H22915071   6.922   6.396   3.998  1.0606  2.3731  0.3569
   42MOL   H23015072   6.968   6.315   3.848  0.0192 -0.1175 -0.0158
   42MOL   H23115073   7.043   6.595   3.890  1.1909  0.0233  0.0559
   42MOL   H23215074   7.047   6.514   3.737 -1.5509 -0.2003 -1.2111
   42MOL   H23315075   6.864   6.636   3.710 -0.0473 -0.2038 -0.3558
   42MOL   H23415076   6.796   6.597   3.867 -1.4153  1.8341 -1.9938
   42MOL   H23515077   6.799   6.479   3.732 -1.1087  0.9013  0.4004
   42MOL   C23615078   7.296   6.259   4.168  1.1795  0.7367  0.3121
   42MOL   C23715079   7.336   6.379   4.259 -0.6915  0.3072 -0.3046
   42MOL   C23815080   7.478   6.350   4.305 -0.0560 -0.1486 -0.2363
   42MOL   C23915081   7.580   6.304   4.204 -0.1297  0.5727  0.2190
   42MOL   C24015082   7.594   6.392   4.071  0.2688 -0.3390 -0.5502
   42MOL   C24115083   7.698   6.347   3.972 -0.5290  0.3374  0.4798
   42MOL   H24215084   7.313   6.175   4.235 -3.1379  1.0301  1.8842
   42MOL   H24315085   7.356   6.241   4.079  0.2859 -1.9579  0.1994
   42MOL   H24415086   7.351   6.477   4.214  3.8925 -0.1266 -0.0234
   42MOL   H24515087   7.509   6.434   4.367 -0.4018 -2.0925  2.6408
   42MOL   H24615088   7.467   6.278   4.385  0.9074  0.3843  0.3859
   42MOL   H24715089   7.571   6.199   4.180 -0.5703 -0.1615  3.3288
   42MOL   H24815090   7.676   6.313   4.255 -0.7033  1.5877  1.1573
   42MOL   H24915091   7.499   6.371   4.022 -0.7635 -0.9967  1.6627
   42MOL   H25015092   7.604   6.498   4.093 -0.6072 -0.1754 -0.9402
   42MOL   H25115093   7.689   6.243   3.941  0.7343  0.5970 -0.8049
   42MOL   H25215094   7.690   6.414   3.887  1.1810  0.5708  0.4927
   42MOL   H25315095   0.070   6.361   4.014  0.9591 -1.2920 -2.3425
   42MOL   C25415096   7.247   6.390   4.389  0.2090 -0.0521 -0.2070
   42MOL   C25515097   7.261   6.509   4.489 -0.3279  0.2133  0.9138
   42MOL   C25615098   7.246   6.458   4.635  0.2235  0.1990  0.4635
   42MOL   C25715099   7.353   6.355   4.685 -0.0098  0.3272 -0.1590
   42MOL   C25815100   7.329   6.305   4.828 -0.1408 -0.5298  0.4811
   42MOL   C25915101   7.432   6.204   4.877  0.3218  0.3623 -0.5701
   42MOL   H26015102   7.265   6.297   4.443  0.7468  1.1996  1.8444
   42MOL   H26115103   7.142   6.396   4.361  0.0010  0.5424  0.6463
   42MOL   H26215104   7.363   6.545   4.480 -0.2483 -0.0746  0.6542
   42MOL   H26315105   7.229   6.542   4.702 -0.5904  1.3813 -1.1957
   42MOL   H26415106   7.151   6.403   4.636  0.0711  0.4694  0.7991
   42MOL   H26515107   7.348   6.260   4.631 -1.1799 -1.3288  2.7581
   42MOL   H26615108   7.455   6.388   4.664  1.1156 -0.3843  3.8109
   42MOL   H26715109   7.228   6.265   4.817  0.3713 -1.7235  0.0405
   42MOL   H26815110   7.316   6.389   4.897  0.2583  0.1575 -0.2724
   42MOL   H26915111   7.535   6.239   4.887  0.0710  2.0766 -3.5061
   42MOL   H27015112   7.431   6.123   4.804  2.8117 -1.2290  1.0683
   42MOL   H27115113   7.404   6.148   4.966  0.3073  0.8607 -0.2633
   42MOL   C27215114   7.152   6.614   4.465  0.1648  0.2733 -0.1576
   42MOL   C27315115   7.142   6.669   4.323 -0.3055 -0.1391  0.2352
   42MOL   C27415116   7.275   6.739   4.286  0.2044  0.3898 -0.2100
   42MOL   C27515117   7.292   6.768   4.128 -0.4633  0.1917 -0.5944
   42MOL   C27615118   7.435   6.797   4.081 -0.6169  0.7587 -0.1860
   42MOL   C27715119   7.455   6.801   3.933  0.4540  0.6389 -0.2796
   42MOL   H27815120   7.057   6.565   4.489  1.5120 -2.7195 -0.7024
   42MOL   H27915121   7.175   6.690   4.540  0.0981  1.2106 -1.0755
   42MOL   H28015122   7.135   6.584   4.256 -5.4080 -1.7366  2.5260
   42MOL   H28115123   7.357   6.677   4.322 -0.4953  0.8191  2.1952
   42MOL   H28215124   7.294   6.829   4.344  1.9407  1.4372 -2.3449
   42MOL   H28315125   7.235   6.859   4.110  1.0047  1.4321  0.9945
   42MOL   H28415126   7.246   6.690   4.066  0.3332 -0.4971 -0.3268
   42MOL   H28515127   7.471   6.887   4.130  2.3114  0.3726 -1.5688
   42MOL   H28615128   7.497   6.715   4.117  0.8609  0.8916 -2.3961
   42MOL   H28715129   7.415   6.712   3.884 -2.5639  0.4786  2.3196
   42MOL   H28815130   7.403   6.886   3.888  0.4413  1.1238  0.6447
   42MOL   H28915131   7.561   6.816   3.911  0.4958 -0.6330 -1.0177
   42MOL   C29015132   7.016   6.759   4.307  0.3068  0.1237 -0.6689
   42MOL   C29115133   6.933   6.728   4.180  0.4778  0.2751 -0.3049
   42MOL   C29215134   6.857   6.598   4.210 -0.3777  0.9697  0.7700
   42MOL   C29315135   6.767   6.590   4.332 -0.6374  0.1593  0.1403
   42MOL   C29415136   6.734   6.448   4.349  0.2514  0.3799  0.7360
   42MOL   C29515137   6.660   6.421   4.485 -0.2585 -0.2585  0.5927
   42MOL   H29615138   7.058   6.859   4.297  1.7163 -0.3641  0.2172
   42MOL   H29715139   6.964   6.772   4.402  1.3129 -2.9739  0.3563
   42MOL   H29815140   6.992   6.737   4.089  1.9926  3.2579  0.8898
   42MOL   H29915141   6.930   6.517   4.213 -2.2258 -0.6919  1.0741
   42MOL   H30015142   6.794   6.568   4.127 -0.8024 -1.4169  1.9085
   42MOL   H30115143   6.810   6.628   4.424 -0.6997  0.2439  0.1335
   42MOL   H30215144   6.685   6.652   4.297  0.3925  0.7981 -1.1589
   42MOL   H30315145   6.812   6.372   4.343  0.4061  0.5688  0.3878
   42MOL   H30415146   6.665   6.410   4.273 -1.0021 -1.3374  2.6708
   42MOL   H30515147   6.598   6.332   4.471  0.6520 -0.6594 -1.0983
   42MOL   H30615148   6.594   6.502   4.518 -1.5918 -0.0747 -2.3386
   42MOL   H30715149   6.730   6.415   4.568 -0.4928 -0.4938  0.7740
   42MOL   C30815150   6.820   6.838   4.159 -0.0007 -0.6768 -0.9383
   42MOL   C30915151   6.857   6.969   4.077 -0.4995  0.0930  0.1588
   42MOL   C31015152   6.746   7.071   4.108 -0.0765  1.1254 -0.3805
   42MOL   C31115153   6.598   7.050   4.061 -0.3815 -0.4564  0.0994
   42MOL   C31215154   6.499   7.136   4.132  0.6532  0.2402  0.3506
   42MOL   C31315155   6.353   7.112   4.104  0.2288  0.0835  0.4207
   42MOL   H31415156   6.725   6.793   4.131 -1.0951  0.6296  0.5911
   42MOL   H31515157   6.792   6.864   4.261  0.2377 -0.1916 -0.9955
   42MOL   H31615158   6.952   7.000   4.120 -1.6305 -0.8441  3.5146
   42MOL   H31715159   6.773   7.163   4.056 -0.0127  0.7960 -0.9237
   42MOL   H31815160   6.766   7.104   4.211 -0.6249  1.1718 -0.2838
   42MOL   H31915161   6.566   6.947   4.068 -0.8868 -0.3455 -0.5048
   42MOL   H32015162   6.591   7.051   3.952 -3.0091 -1.8290  0.2231
   42MOL   H32115163   6.513   7.129   4.240  2.5042 -1.8702  0.0168
   42MOL   H32215164   6.508   7.244   4.118 -0.5360  0.3450  0.3844
   42MOL   H32315165   6.345   7.078   4.001  1.3200  0.1757  0.2957
   42MOL   H32415166   6.288   7.197   4.126 -0.6760 -0.6329  0.5416
   42MOL   H32515167   6.316   7.033   4.169 -1.7584 -0.3829 -1.2150
   42MOL   C32615168   6.862   6.947   3.922 -0.1885  0.5587  0.4909
   42MOL   C32715169   6.938   7.057   3.856 -0.1398  0.5236 -0.1723
   42MOL   C32815170   7.077   7.109   3.912  0.2144  0.3684  0.0996
   42MOL   C32915171   7.147   7.218   3.826 -0.0092 -0.0592 -0.6182
   42MOL   C33015172   7.253   7.300   3.896  0.3493 -0.1879  0.3468
   42MOL   C33115173   7.370   7.220   3.942 -1.2130 -0.3014 -0.3868
   42MOL   H33215174   6.762   6.942   3.878 -0.5047 -0.2631  1.2903
   42MOL   H33315175   6.911   6.853   3.894  0.7308  0.9818  0.6427
   42MOL   H33415176   6.878   7.147   3.862 -0.9558 -0.0489  0.3842
   42MOL   H33515177   7.060   7.163   4.005  0.4892  0.3646  0.1522
   42MOL   H33615178   7.145   7.027   3.935 -0.0540 -0.5116 -2.1098
   42MOL   H33715179   7.078   7.294   3.789  1.0099  1.3835  0.4019
   42MOL   H33815180   7.190   7.172   3.737 -0.0984 -0.1089 -0.6364
   42MOL   H33915181   7.281   7.375   3.822 -1.0390  1.2060  1.2099
   42MOL   H34015182   7.205   7.363   3.969 -1.0663  0.2657 -0.9432
   42MOL   H34115183   7.421   7.159   3.868  1.4100  2.8175 -1.2886
   42MOL   H34215184   7.337   7.153   4.021  0.0183  1.5738  1.8185
   42MOL   H34315185   7.443   7.292   3.980 -0.9793 -0.6326 -0.1990
   42MOL   C34415186   6.949   7.019   3.707 -0.3491  0.8227  0.3865
   42MOL   C34515187   6.823   7.014   3.624  0.3632  0.6039  0.0479
   42MOL   C34615188   6.855   6.983   3.481 -0.0174 -0.5224  0.4187
   42MOL   C34715189   6.728   6.983   3.394  0.2782  0.1217  0.0589
   42MOL   C34815190   6.722   6.859   3.303  0.2425  0.3097 -0.3192
   42MOL   C34915191   6.594   6.853   3.225 -0.6633  0.3178 -0.6695
   42MOL   H35015192   7.025   7.079   3.657 -0.0279  1.6130  1.7706
   42MOL   H35115193   6.999   6.923   3.704 -1.5280  0.2269 -0.4358
   42MOL   H35215194   6.766   7.106   3.634  0.7410  0.8621 -0.1632
   42MOL   H35315195   6.923   7.054   3.435 -0.9489  0.7997  1.0695
   42MOL   H35415196   6.905   6.886   3.474  1.0077 -0.0730  1.4134
   42MOL   H35515197   6.640   6.975   3.458  0.7070  0.9541  0.7540
   42MOL   H35615198   6.722   7.074   3.334 -0.3048  0.7737  1.0961
   42MOL   H35715199   6.806   6.859   3.233  1.1023 -1.8383  0.6729
   42MOL   H35815200   6.750   6.767   3.356  0.0568 -0.7957 -2.1126
   42MOL   H35915201   6.597   6.766   3.159  0.4805  1.0058 -1.5418
   42MOL   H36015202   6.504   6.849   3.286 -0.4383  0.3197 -0.3371
   42MOL   H36115203   6.595   6.945   3.168  0.5730  1.4280  1.0843
   42MOL   H36215204   6.761   6.933   3.663  0.2338  0.5066 -0.3512
   43MOL     C115205   5.866   2.090   2.507  0.3810  0.4411 -0.5470
   43MOL     C215206   5.845   2.242   2.533  0.6464  0.0518  0.2069
   43MOL     C315207   5.983   2.314   2.553 -0.0006  0.4204  0.5238
   43MOL     C415208   6.064   2.256   2.674 -0.0790  0.7186  0.2213
   43MOL     C515209   6.207   2.302   2.699  0.8567 -0.3355  0.0960
   43MOL     C615210   6.284   2.212   2.788  1.2971  0.1153 -0.2314
   43MOL     H715211   5.888   2.027   2.593 -2.1047 -0.2198 -0.3616
   43MOL     H815212   5.774   2.046   2.467 -0.7886  0.3969  2.0709
   43MOL     H915213   5.801   2.281   2.441  0.6672  2.5225  1.2193
   43MOL    H1015214   5.953   2.419   2.551  0.5506  0.5757  0.1859
   43MOL    H1115215   6.049   2.301   2.468 -2.0913  0.6812 -1.1656
   43MOL    H1215216   6.074   2.148   2.659  1.1704  0.8796 -0.1531
   43MOL    H1315217   6.009   2.271   2.766  1.9291 -0.6702  1.6948
   43MOL    H1415218   6.252   2.301   2.599  1.4001  1.7977  0.2962
   43MOL    H1515219   6.207   2.403   2.738  1.7417 -0.4874  0.5138
   43MOL    H1615220   6.383   2.252   2.809  1.3436 -0.2091  0.1896
   43MOL    H1715221   6.287   2.111   2.747 -1.5117  0.0810 -0.4427
   43MOL    H1815222   6.239   2.209   2.888 -0.1956  1.5603 -0.8439
   43MOL    H1915223   5.949   2.074   2.438 -0.4049 -0.9543 -1.1915
   43MOL    C2015224   5.748   2.267   2.661 -0.0071  0.1626 -0.4348
   43MOL    C2115225   5.601   2.205   2.658 -0.9644 -0.1805 -0.5845
   43MOL    C2215226   5.559   2.195   2.805 -0.1418  0.1746 -0.9391
   43MOL    C2315227   5.432   2.114   2.847 -0.3797 -0.2364  0.7285
   43MOL    C2415228   5.443   2.063   2.990  0.0560  0.3036  0.8895
   43MOL    C2515229   5.328   1.977   3.034  0.4970 -0.3136 -0.1021
   43MOL    H2615230   5.735   2.375   2.667  2.2007  0.3877  0.5838
   43MOL    H2715231   5.808   2.245   2.749 -0.3572  0.2229 -0.1790
   43MOL    H2815232   5.594   2.104   2.617 -0.5532 -0.9626  1.2485
   43MOL    H2915233   5.547   2.294   2.848  0.1240 -0.2605  0.1690
   43MOL    H3015234   5.645   2.164   2.865  0.0045  1.4183 -0.4896
   43MOL    H3115235   5.439   2.022   2.789  1.7048  0.2455  0.1759
   43MOL    H3215236   5.342   2.161   2.806 -0.2469  0.6677  1.4439
   43MOL    H3315237   5.531   2.001   3.007  0.5245  0.4890 -0.7363
   43MOL    H3415238   5.451   2.149   3.056 -0.2836  0.5810  0.5689
   43MOL    H3515239   5.345   1.928   3.130 -0.2539  0.2840  0.3332
   43MOL    H3615240   5.234   2.030   3.039  0.9675  0.5697 -0.4548
   43MOL    H3715241   5.303   1.897   2.964 -4.3304  0.6334  0.4284
   43MOL    C3815242   5.501   2.290   2.578 -0.2890  0.6258 -0.4327
   43MOL    C3915243   5.458   2.236   2.439  0.1441  0.7694  0.2771
   43MOL    C4015244   5.361   2.108   2.454  0.4509 -0.0894  0.0666
   43MOL    C4115245   5.377   2.033   2.322 -0.4235  0.5937 -0.1620
   43MOL    C4215246   5.296   1.904   2.325  0.1604  0.2729 -0.1865
   43MOL    C4315247   5.299   1.822   2.202 -0.7612 -0.3578  0.7186
   43MOL    H4415248   5.541   2.391   2.567 -1.6716  1.0513 -1.7460
   43MOL    H4515249   5.413   2.313   2.638  0.8317 -0.4485  1.6545
   43MOL    H4615250   5.548   2.203   2.387 -1.6284 -2.6732 -0.7489
   43MOL    H4715251   5.404   2.043   2.530  0.9878  0.7446  0.4906
   43MOL    H4815252   5.261   2.142   2.483  0.4221 -0.0720 -0.0592
   43MOL    H4915253   5.360   2.095   2.234  0.3716  2.3017  0.8669
   43MOL    H5015254   5.477   1.997   2.296  0.3987  0.8165  2.5306
   43MOL    H5115255   5.317   1.844   2.413  3.3636  0.2625 -0.9044
   43MOL    H5215256   5.194   1.938   2.346  0.6808  1.8288 -0.0984
   43MOL    H5315257   5.402   1.828   2.166 -1.4639  1.9009 -1.0020
   43MOL    H5415258   5.240   1.873   2.127 -0.3148  0.8770  1.1960
   43MOL    H5515259   5.273   1.720   2.229  2.4019 -1.1266  1.0986
   43MOL    C5615260   5.388   2.349   2.363  0.0942 -0.2481 -0.1214
   43MOL    C5715261   5.471   2.467   2.306 -0.0381 -0.2134  0.0351
   43MOL    C5815262   5.379   2.567   2.239 -0.6844 -0.6299 -0.4297
   43MOL    C5915263   5.313   2.519   2.112 -0.4382  0.4332 -0.1024
   43MOL    C6015264   5.198   2.615   2.057  0.8716 -0.1356 -0.1276
   43MOL    C6115265   5.111   2.559   1.939  0.2728 -0.6130 -0.0681
   43MOL    H6215266   5.334   2.311   2.276 -1.6880 -0.6287  1.1328
   43MOL    H6315267   5.307   2.385   2.426 -1.6652 -1.6682 -1.5250
   43MOL    H6415268   5.513   2.525   2.389  1.6666 -2.5539  0.8390
   43MOL    H6515269   5.311   2.600   2.317  1.8190 -0.8811  1.9021
   43MOL    H6615270   5.430   2.659   2.211  1.0272 -0.6782  2.3284
   43MOL    H6715271   5.263   2.424   2.133  0.5419 -0.3908 -1.4457
   43MOL    H6815272   5.377   2.501   2.026 -1.1298 -2.7192 -0.0048
   43MOL    H6915273   5.129   2.639   2.138  0.1787 -1.1437 -0.4052
   43MOL    H7015274   5.230   2.715   2.029 -0.1733  0.0739 -0.5946
   43MOL    H7115275   5.171   2.561   1.848  1.9090  2.0279  1.0213
   43MOL    H7215276   5.096   2.453   1.961 -1.2264 -0.4935 -0.4378
   43MOL    H7315277   5.021   2.620   1.936 -0.7469 -2.1359 -1.3105
   43MOL    C7415278   5.594   2.430   2.222  0.3070 -0.2124  0.0055
   43MOL    C7515279   5.692   2.543   2.179 -0.5271 -0.0488  0.2596
   43MOL    C7615280   5.791   2.568   2.297 -0.7293  1.0556  0.2860
   43MOL    C7715281   5.817   2.716   2.332 -0.0493 -0.8652 -0.3839
   43MOL    C7815282   5.703   2.786   2.400 -0.0273 -0.5690 -0.3691
   43MOL    C7915283   5.740   2.931   2.429 -0.3974 -0.0162 -0.4532
   43MOL    H8015284   5.651   2.348   2.267  1.6798  1.1370  0.7700
   43MOL    H8115285   5.556   2.381   2.132 -1.2552  1.0818 -0.0523
   43MOL    H8215286   5.632   2.633   2.164  1.3027  1.0830 -0.3954
   43MOL    H8315287   5.761   2.511   2.385  1.3481 -0.3393  0.1096
   43MOL    H8415288   5.886   2.517   2.286 -0.4508  1.1875  2.0031
   43MOL    H8515289   5.903   2.719   2.399  0.4234 -1.5104 -0.9473
   43MOL    H8615290   5.852   2.772   2.245  2.7212 -1.1637  0.4847
   43MOL    H8715291   5.679   2.724   2.486 -0.6064  0.1789  0.0147
   43MOL    H8815292   5.618   2.779   2.332  0.1384 -0.5557 -0.5809
   43MOL    H8915293   5.671   2.965   2.506  0.3766  2.0319 -0.6337
   43MOL    H9015294   5.840   2.933   2.473 -0.1314  1.2737 -1.1068
   43MOL    H9115295   5.732   2.987   2.336  0.6136 -0.5570 -0.8816
   43MOL    C9215296   5.774   2.510   2.049 -0.3196 -0.1832 -0.4210
   43MOL    C9315297   5.705   2.538   1.918 -0.3645 -0.6464 -0.1571
   43MOL    C9415298   5.669   2.689   1.893 -0.6980 -0.4032 -1.0175
   43MOL    C9515299   5.794   2.775   1.898 -0.3157 -0.0861  0.4521
   43MOL    C9615300   5.760   2.926   1.879  0.7440  0.0596 -0.5336
   43MOL    C9715301   5.757   2.957   1.727  0.2685 -0.0640  0.6102
   43MOL    H9815302   5.872   2.558   2.052 -1.1770  1.7389 -1.7743
   43MOL    H9915303   5.791   2.403   2.056  2.0634  0.1122 -1.0568
   43MOL   H10015304   5.609   2.487   1.927 -0.5652 -0.0618  1.3060
   43MOL   H10115305   5.600   2.732   1.965  0.6770  3.1178 -1.6721
   43MOL   H10215306   5.611   2.707   1.802 -0.2493  2.8876 -0.6977
   43MOL   H10315307   5.833   2.758   1.999  0.4408  1.0032  0.3493
   43MOL   H10415308   5.871   2.730   1.836  0.9707  1.2058  1.0671
   43MOL   H10515309   5.670   2.938   1.939  1.1444 -0.9903  0.2970
   43MOL   H10615310   5.836   2.993   1.920  0.2604  0.8462 -0.9064
   43MOL   H10715311   5.729   3.061   1.707  1.5189  0.2616  0.5442
   43MOL   H10815312   5.858   2.942   1.690 -0.3858 -0.6482 -0.9602
   43MOL   H10915313   5.686   2.896   1.672 -1.1504 -0.1354  2.4621
   43MOL   C11015314   5.781   2.469   1.807  0.3660  0.1130 -0.2534
   43MOL   C11115315   5.708   2.473   1.672  0.1605  0.3961  0.1484
   43MOL   C11215316   5.574   2.395   1.677 -0.3197  0.1245 -0.0284
   43MOL   C11315317   5.569   2.243   1.717  0.3625  0.2635 -0.3735
   43MOL   C11415318   5.427   2.186   1.723 -0.4353  0.1061  0.3474
   43MOL   C11515319   5.356   2.232   1.852 -0.5618  0.1881  0.2208
   43MOL   H11615320   5.882   2.505   1.788  0.1179  0.7237 -0.4016
   43MOL   H11715321   5.787   2.362   1.831  0.1286  0.0608 -0.4286
   43MOL   H11815322   5.684   2.577   1.653  1.0899  0.6219  0.2122
   43MOL   H11915323   5.526   2.400   1.579  2.0393  0.3366 -1.1960
   43MOL   H12015324   5.499   2.448   1.736 -0.7023 -1.3531  0.8589
   43MOL   H12115325   5.614   2.225   1.815  1.2961 -2.0453 -1.1832
   43MOL   H12215326   5.623   2.177   1.649 -1.5903 -0.6695 -1.0587
   43MOL   H12315327   5.446   2.080   1.736 -0.8598  0.1747  1.5754
   43MOL   H12415328   5.372   2.207   1.631 -2.2695  1.1593  1.6429
   43MOL   H12515329   5.275   2.169   1.889 -0.8317 -0.0242 -0.7125
   43MOL   H12615330   5.432   2.243   1.929 -1.4892  1.4577  0.9817
   43MOL   H12715331   5.324   2.334   1.831 -1.7650 -0.0950  0.6578
   43MOL   C12815332   5.787   2.423   1.544 -0.1772 -0.5916  0.3953
   43MOL   C12915333   5.914   2.502   1.494 -0.1285  0.2921  0.3622
   43MOL   C13015334   5.885   2.654   1.480 -0.0370  0.4310 -0.5002
   43MOL   C13115335   5.769   2.686   1.379 -0.1998  0.2985 -0.4172
   43MOL   C13215336   5.760   2.836   1.344 -0.3038 -0.2872 -0.0950
   43MOL   C13315337   5.641   2.874   1.254 -0.2174  0.5618 -0.5103
   43MOL   H13415338   5.720   2.420   1.458 -0.6526  4.0852  0.4249
   43MOL   H13515339   5.809   2.320   1.571  1.4367  0.7423  4.5445
   43MOL   H13615340   5.990   2.480   1.568 -1.1908 -4.6761  0.1815
   43MOL   H13715341   5.876   2.698   1.579 -0.5159 -0.5669 -0.0901
   43MOL   H13815342   5.982   2.690   1.445  0.8813  0.9488  2.4765
   43MOL   H13915343   5.676   2.661   1.429 -0.0711 -0.8885 -0.7562
   43MOL   H14015344   5.779   2.627   1.288 -1.2367 -1.6442  0.6961
   43MOL   H14115345   5.759   2.901   1.431  1.5251 -1.9891  1.2318
   43MOL   H14215346   5.859   2.849   1.299  0.9902 -1.3327  2.3530
   43MOL   H14315347   5.632   2.796   1.179  1.2207 -0.2867  0.1909
   43MOL   H14415348   5.662   2.963   1.195 -1.1116  0.0019 -1.6929
   43MOL   H14515349   5.546   2.881   1.309 -0.4816 -1.3974 -0.6833
   43MOL   C14615350   5.984   2.435   1.374 -0.2637 -0.6348 -0.4171
   43MOL   C14715351   6.137   2.418   1.386  0.0171 -0.0108 -0.6701
   43MOL   C14815352   6.221   2.547   1.398 -0.2773 -0.6038  0.3251
   43MOL   C14915353   6.226   2.631   1.267 -0.8223  0.0583 -0.1900
   43MOL   C15015354   6.323   2.750   1.281  0.0043  0.1247  0.2579
   43MOL   C15115355   6.307   2.864   1.183  0.1123 -0.6163 -0.8574
   43MOL   H15215356   5.942   2.335   1.367 -0.4080 -0.5110 -1.3601
   43MOL   H15315357   5.966   2.490   1.282  0.0208  0.3952  0.1305
   43MOL   H15415358   6.157   2.359   1.476 -1.2873  0.2873 -0.1655
   43MOL   H15515359   6.322   2.508   1.412 -0.6769 -1.3215  1.2363
   43MOL   H15615360   6.194   2.610   1.483 -0.1813  0.3376 -0.3342
   43MOL   H15715361   6.244   2.573   1.176  1.2229  2.9895 -1.7526
   43MOL   H15815362   6.128   2.677   1.255  0.4611  2.7500 -0.9057
   43MOL   H15915363   6.427   2.716   1.282 -0.6814 -2.0995 -1.2018
   43MOL   H16015364   6.321   2.796   1.380  0.7728  0.0136  0.3273
   43MOL   H16115365   6.355   2.958   1.212 -2.3806  0.7202 -0.9349
   43MOL   H16215366   6.330   2.828   1.083 -3.3426 -1.1089 -1.5355
   43MOL   H16315367   6.202   2.893   1.186  0.2007 -0.1339 -1.9841
   43MOL   C16415368   6.191   2.318   1.283 -0.1781  0.0626 -0.3734
   43MOL   C16515369   6.236   2.181   1.336 -0.3627 -0.5633 -0.6296
   43MOL   C16615370   6.219   2.067   1.231  0.1338 -1.0458  0.0355
   43MOL   C16715371   6.069   2.031   1.196 -0.1914 -0.2708  0.4297
   43MOL   C16815372   6.053   1.900   1.125  0.9268 -0.2124  0.0035
   43MOL   C16915373   5.915   1.880   1.066 -0.2861 -0.4065  0.1130
   43MOL   H17015374   6.121   2.305   1.200 -1.5798  1.1614  0.6129
   43MOL   H17115375   6.280   2.359   1.236 -0.2367 -1.0634 -1.4802
   43MOL   H17215376   6.171   2.151   1.418  0.6600  2.2736  1.3184
   43MOL   H17315377   6.272   1.987   1.284 -2.2091 -3.3204 -0.9250
   43MOL   H17415378   6.277   2.077   1.139  2.2112  2.2836  1.6131
   43MOL   H17515379   6.020   2.110   1.138 -1.8700 -0.5442  1.4426
   43MOL   H17615380   6.017   2.045   1.290  0.4521 -0.0723  0.7573
   43MOL   H17715381   6.081   1.823   1.197  0.7923  0.2319  0.5416
   43MOL   H17815382   6.122   1.902   1.041 -1.0158 -0.1468 -1.6330
   43MOL   H17915383   5.844   1.847   1.142  3.1569 -2.2271  2.6511
   43MOL   H18015384   5.918   1.791   1.003  2.3439 -1.3651  1.5040
   43MOL   H18115385   5.877   1.960   1.002  1.3417  0.9568  0.8100
   43MOL   C18215386   6.385   2.185   1.385 -0.0038  0.0994 -0.4787
   43MOL   C18315387   6.439   2.078   1.485 -0.0429 -1.1181 -0.3821
   43MOL   C18415388   6.366   2.092   1.615  0.7648  0.0906 -0.8488
   43MOL   C18515389   6.357   1.972   1.709  1.0018 -0.3042  0.2829
   43MOL   C18615390   6.310   1.843   1.644  0.4103  0.5520 -0.2028
   43MOL   C18715391   6.262   1.737   1.747  0.2743 -0.1469 -0.0798
   43MOL   H18815392   6.449   2.192   1.297 -0.2949  1.4581 -0.5971
   43MOL   H18915393   6.399   2.278   1.441  1.7207 -1.0193  1.0056
   43MOL   H19015394   6.424   1.978   1.443 -2.6250 -0.9168 -0.0149
   43MOL   H19115395   6.407   2.179   1.667 -0.9948  0.6216 -0.2862
   43MOL   H19215396   6.264   2.126   1.599  0.8745  0.8460 -0.0152
   43MOL   H19315397   6.286   2.005   1.785 -0.2960  0.2211 -1.1259
   43MOL   H19415398   6.443   1.960   1.776  0.8696  0.2573  0.5544
   43MOL   H19515399   6.393   1.792   1.595 -1.3350 -0.0923 -2.6019
   43MOL   H19615400   6.231   1.867   1.573 -0.1932 -0.2820  0.1830
   43MOL   H19715401   6.168   1.769   1.792 -0.3626 -1.1900 -0.6867
   43MOL   H19815402   6.333   1.690   1.815 -0.2588 -1.6110 -0.5342
   43MOL   H19915403   6.247   1.638   1.704  3.1560 -0.7972  0.2686
   43MOL   C20015404   6.591   2.084   1.499  1.1137  0.3929  0.0150
   43MOL   C20115405   6.673   1.981   1.417  0.4288  0.6045  0.4883
   43MOL   C20215406   6.677   2.024   1.263 -0.1843  0.3366 -0.2348
   43MOL   C20315407   6.742   2.157   1.230 -0.0291 -0.4877 -0.8510
   43MOL   C20415408   6.690   2.209   1.100  0.1918 -0.2242  0.1989
   43MOL   C20515409   6.735   2.137   0.970  0.0829  0.4692 -0.0546
   43MOL   H20615410   6.633   2.071   1.599 -0.8879  2.4364  1.1605
   43MOL   H20715411   6.622   2.186   1.478  1.6395  0.2881  0.2747
   43MOL   H20815412   6.628   1.882   1.414  3.4948 -0.8130 -1.9694
   43MOL   H20915413   6.572   2.031   1.235 -0.0321 -0.1961 -0.9450
   43MOL   H21015414   6.719   1.946   1.200 -0.6743 -0.1900  0.0735
   43MOL   H21115415   6.851   2.151   1.229  0.0773  0.8408  0.7827
   43MOL   H21215416   6.720   2.233   1.305 -0.8294 -1.0594 -0.5023
   43MOL   H21315417   6.716   2.315   1.101  1.8544 -0.5636 -1.4428
   43MOL   H21415418   6.582   2.203   1.103  0.1177 -0.8614 -2.3383
   43MOL   H21515419   6.693   2.037   0.955  0.9737  0.1538 -0.5137
   43MOL   H21615420   6.714   2.195   0.881 -2.0908  0.4011  0.3843
   43MOL   H21715421   6.844   2.136   0.975  0.1485 -0.5176 -1.4191
   43MOL   C21815422   6.812   1.956   1.476  1.0927  0.0604 -0.3887
   43MOL   C21915423   6.811   1.873   1.611 -0.3358 -0.2810  0.5927
   43MOL   C22015424   6.887   1.949   1.724  0.3722 -0.6017 -0.6825
   43MOL   C22115425   6.876   1.895   1.864 -0.0962 -0.2014  0.7722
   43MOL   C22215426   6.911   1.984   1.977  0.5459  0.0067 -0.0302
   43MOL   C22315427   6.865   1.921   2.110  0.2217  0.8310 -0.2784
   43MOL   H22415428   6.878   1.912   1.401 -0.7770 -2.6852 -0.5077
   43MOL   H22515429   6.862   2.052   1.484  0.9327  0.2916 -2.1193
   43MOL   H22615430   6.706   1.859   1.639 -0.4800  0.4883  0.4533
   43MOL   H22715431   6.842   2.048   1.727 -0.8539 -1.1994  1.4577
   43MOL   H22815432   6.994   1.957   1.702 -0.1133 -2.5552 -4.2144
   43MOL   H22915433   6.931   1.800   1.868  2.1719  1.0773  0.8661
   43MOL   H23015434   6.773   1.861   1.876 -0.1657 -0.2040  0.1737
   43MOL   H23115435   7.017   2.007   1.990  0.8483 -2.1475  1.6397
   43MOL   H23215436   6.856   2.077   1.963 -0.1828 -0.8510 -3.1942
   43MOL   H23315437   6.879   1.994   2.189 -0.2296 -1.6554  2.1912
   43MOL   H23415438   6.905   1.823   2.139 -1.6459  0.4698  1.1794
   43MOL   H23515439   6.758   1.899   2.107  0.5104 -0.6977 -0.1765
   43MOL   C23615440   6.880   1.733   1.582  0.3594 -0.0171  0.0666
   43MOL   C23715441   6.794   1.619   1.517  0.0035 -0.4022 -0.2117
   43MOL   C23815442   6.679   1.575   1.611 -0.5295  0.8004 -0.1194
   43MOL   C23915443   6.720   1.495   1.735  0.7118  0.3369 -0.1397
   43MOL   C24015444   6.621   1.477   1.847  0.2147  0.0508 -0.1272
   43MOL   C24115445   6.677   1.407   1.974 -0.0825  0.9533 -0.6228
   43MOL   H24215446   6.971   1.748   1.523 -0.0375 -0.1284 -0.5783
   43MOL   H24315447   6.933   1.692   1.668  0.5647  1.2990  0.5835
   43MOL   H24415448   6.752   1.665   1.428 -1.0580 -0.3951  0.2918
   43MOL   H24515449   6.620   1.660   1.644 -2.4727 -0.5534 -0.0363
   43MOL   H24615450   6.616   1.513   1.547 -0.2678  1.8511 -1.4102
   43MOL   H24715451   6.808   1.538   1.783 -1.7845  4.4563  1.0355
   43MOL   H24815452   6.755   1.398   1.701  0.0003 -0.7715  2.1777
   43MOL   H24915453   6.579   1.574   1.872  0.5255  0.0194  0.5394
   43MOL   H25015454   6.540   1.416   1.809  0.1453 -0.2009  0.4202
   43MOL   H25115455   6.608   1.384   2.056 -0.0372  2.2416 -0.2082
   43MOL   H25215456   6.727   1.312   1.951 -0.4649  1.1170 -2.1771
   43MOL   H25315457   6.755   1.468   2.019  0.1242  0.0235  0.3105
   43MOL   C25415458   6.889   1.493   1.480 -0.8746  0.8977  0.2198
   43MOL   C25515459   6.816   1.362   1.427 -0.2290  0.0179  0.0209
   43MOL   C25615460   6.931   1.257   1.409 -0.5968  0.3788  0.1928
   43MOL   C25715461   6.983   1.191   1.545  0.4447 -0.6553 -0.4330
   43MOL   C25815462   7.080   1.077   1.526 -0.1758 -0.4252  0.2521
   43MOL   C25915463   7.131   1.016   1.654 -0.2630  0.1485  0.0968
   43MOL   H26015464   6.927   1.466   1.578 -1.1826 -1.1493 -0.1881
   43MOL   H26115465   6.966   1.523   1.410 -1.5500  1.1974 -0.4058
   43MOL   H26215466   6.745   1.325   1.501 -0.5025  1.6696  0.6032
   43MOL   H26315467   6.889   1.180   1.345  0.6263 -2.4654  2.6886
   43MOL   H26415468   7.016   1.300   1.356  0.7177 -2.3121  0.0824
   43MOL   H26515469   7.039   1.266   1.600  1.8857 -0.6592 -1.8684
   43MOL   H26615470   6.899   1.154   1.604  0.9837 -1.8996 -0.4231
   43MOL   H26715471   7.171   1.109   1.475  0.9313 -0.8060  1.9546
   43MOL   H26815472   7.037   0.990   1.475 -1.0938  0.3482 -0.3102
   43MOL   H26915473   7.222   1.067   1.685 -1.4636  2.7848 -0.6389
   43MOL   H27015474   7.160   0.912   1.637  2.3098  0.8814 -0.1504
   43MOL   H27115475   7.057   1.009   1.734 -1.1284  1.3199 -0.5803
   43MOL   C27215476   6.747   1.403   1.290 -0.5247  0.4108 -0.0707
   43MOL   C27315477   6.666   1.284   1.225  0.3876 -0.8557 -0.4401
   43MOL   C27415478   6.597   1.321   1.094 -0.6241 -0.0211  0.3208
   43MOL   C27515479   6.684   1.380   0.984 -0.2220  0.3607  0.5239
   43MOL   C27615480   6.607   1.363   0.850  0.1286  0.0119  0.5538
   43MOL   C27715481   6.625   1.235   0.775 -0.2305  0.2710  0.8788
   43MOL   H27815482   6.687   1.492   1.304  2.2910  2.1013  1.8132
   43MOL   H27915483   6.820   1.445   1.222  0.6813 -0.9284  0.3551
   43MOL   H28015484   6.738   1.211   1.187 -0.2263 -1.3888 -0.6029
   43MOL   H28115485   6.521   1.394   1.121 -0.2252 -0.2164  2.0151
   43MOL   H28215486   6.542   1.235   1.058  0.4171 -0.7695  0.4767
   43MOL   H28315487   6.782   1.335   0.967 -1.1332 -1.5556  0.1488
   43MOL   H28415488   6.697   1.488   0.994 -0.0546  0.5074 -1.0153
   43MOL   H28515489   6.500   1.362   0.869  0.2928 -0.3871  1.4756
   43MOL   H28615490   6.634   1.445   0.784 -2.2271  2.1072  2.1036
   43MOL   H28715491   6.613   1.148   0.839  1.5091 -1.5916 -1.2564
   43MOL   H28815492   6.558   1.225   0.690  1.4329 -1.4985 -0.2577
   43MOL   H28915493   6.727   1.245   0.737 -1.0165  2.2819 -0.7515
   43MOL   C29015494   6.561   1.220   1.321 -0.4075  0.2811  0.5328
   43MOL   C29115495   6.604   1.079   1.361  0.3560 -0.6252  0.2811
   43MOL   C29215496   6.520   1.030   1.481  0.3790 -0.2344  0.1196
   43MOL   C29315497   6.369   1.008   1.451 -0.3539  0.1635 -0.0039
   43MOL   C29415498   6.304   0.967   1.576 -0.3238  0.7105 -0.4089
   43MOL   C29515499   6.154   0.944   1.573  0.3633 -0.7334 -0.2887
   43MOL   H29615500   6.462   1.216   1.275  0.0294 -1.1796 -0.3144
   43MOL   H29715501   6.550   1.287   1.407 -0.4478  0.0871  0.6785
   43MOL   H29815502   6.702   1.098   1.405  0.7944  0.5807 -1.1731
   43MOL   H29915503   6.527   1.107   1.558 -1.5942 -0.4356  0.5139
   43MOL   H30015504   6.574   0.945   1.524  3.7857  1.8973  0.2406
   43MOL   H30115505   6.324   1.098   1.408  0.6428  1.0842  0.8449
   43MOL   H30215506   6.346   0.927   1.381 -1.5946 -0.2873  0.9129
   43MOL   H30315507   6.332   1.046   1.647  0.3211  0.7787 -0.7375
   43MOL   H30415508   6.353   0.879   1.616  1.1828  1.4632 -0.5513
   43MOL   H30515509   6.113   0.920   1.671  1.2432 -0.7986  0.0657
   43MOL   H30615510   6.126   0.861   1.508 -1.3820  0.2842 -0.8752
   43MOL   H30715511   6.107   1.036   1.538 -0.6972 -0.4115  1.8573
   43MOL   C30815512   6.592   0.969   1.243  0.3212 -0.0722 -0.8821
   43MOL   C30915513   6.678   0.845   1.265 -0.0678  0.4220  0.1115
   43MOL   C31015514   6.828   0.869   1.260  0.0382  0.1989 -0.3361
   43MOL   C31115515   6.888   0.896   1.120  0.1844  0.4225 -0.0067
   43MOL   C31215516   7.024   0.966   1.124  0.2674  0.3907 -0.4564
   43MOL   C31315517   7.066   1.018   0.984  0.1166 -0.4513  0.0262
   43MOL   H31415518   6.489   0.936   1.223  0.3127 -1.1740  0.9126
   43MOL   H31515519   6.631   1.016   1.152  1.2886  1.0725  0.1158
   43MOL   H31615520   6.660   0.828   1.371 -0.2432 -0.7000 -0.0909
   43MOL   H31715521   6.877   0.786   1.309 -2.0879 -1.2057 -0.5146
   43MOL   H31815522   6.852   0.958   1.318 -1.9284  1.6410 -1.6517
   43MOL   H31915523   6.822   0.963   1.065 -0.8868 -0.2963  0.3827
   43MOL   H32015524   6.899   0.807   1.057  1.1667 -0.9384  2.0606
   43MOL   H32115525   7.021   1.050   1.193 -0.2957 -0.9507  1.1986
   43MOL   H32215526   7.102   0.898   1.158  0.6443  0.2777 -1.5504
   43MOL   H32315527   7.173   1.037   0.979 -0.1241  2.5227  3.5446
   43MOL   H32415528   7.011   1.110   0.963 -3.1403 -2.3587 -0.1846
   43MOL   H32515529   7.045   0.943   0.908  2.2275 -3.5593  2.3896
   43MOL   C32615530   6.631   0.723   1.193  0.0117  0.5389 -0.2362
   43MOL   C32715531   6.694   0.591   1.241  0.2307  0.2700  0.9856
   43MOL   C32815532   6.661   0.549   1.388 -0.2436  0.5591 -0.3084
   43MOL   C32915533   6.513   0.531   1.411  0.6157  0.1927 -0.2860
   43MOL   C33015534   6.478   0.469   1.551  0.4838 -0.1434  0.4087
   43MOL   C33115535   6.481   0.557   1.669 -0.2416  0.5335 -0.7559
   43MOL   H33215536   6.645   0.736   1.086 -2.3256  0.7614 -0.5347
   43MOL   H33315537   6.523   0.712   1.198 -0.1083  1.6987 -0.3105
   43MOL   H33415538   6.802   0.602   1.236  0.2210 -0.0825 -0.3551
   43MOL   H33515539   6.708   0.458   1.423 -1.0147  0.3005  0.0592
   43MOL   H33615540   6.709   0.615   1.460  0.2147  0.9884 -1.0044
   43MOL   H33715541   6.478   0.457   1.340 -1.4526  1.3747 -0.5385
   43MOL   H33815542   6.456   0.622   1.393  0.0615 -0.3987 -1.4989
   43MOL   H33915543   6.379   0.423   1.549 -0.1959  1.3197  0.4338
   43MOL   H34015544   6.553   0.390   1.563 -0.6401 -1.4732 -1.0356
   43MOL   H34115545   6.577   0.607   1.683  0.3946 -0.3950 -1.6869
   43MOL   H34215546   6.467   0.498   1.760 -2.5961 -0.3554 -1.6636
   43MOL   H34315547   6.397   0.626   1.669 -1.0512 -0.4498 -1.1446
   43MOL   C34415548   6.662   0.465   1.145 -0.3274 -0.0943 -0.4795
   43MOL   C34515549   6.736   0.447   1.007  0.0418  0.1661 -0.0532
   43MOL   C34615550   6.881   0.391   1.018  0.3697 -0.0435 -0.0029
   43MOL   C34715551   6.934   0.354   0.878 -0.3380 -0.0332  0.5475
   43MOL   C34815552   7.076   0.308   0.893  0.6372 -0.3169 -0.0522
   43MOL   C34915553   7.150   0.300   0.760  0.3126  0.6760 -0.3865
   43MOL   H35015554   6.667   0.374   1.204 -0.0723 -0.0567 -0.4423
   43MOL   H35115555   6.558   0.472   1.112  0.2474 -2.9269 -3.0426
   43MOL   H35215556   6.725   0.543   0.956  0.0988 -0.1161 -0.5920
   43MOL   H35315557   6.948   0.459   1.070 -0.7088  0.7147  0.3983
   43MOL   H35415558   6.886   0.291   1.061 -2.1942  0.3346  1.2546
   43MOL   H35515559   6.872   0.275   0.835 -0.3867 -2.0171  4.0790
   43MOL   H35615560   6.923   0.446   0.821 -0.7248 -0.2800  0.2128
   43MOL   H35715561   7.132   0.360   0.971 -1.4266 -0.8573  1.8394
   43MOL   H35815562   7.061   0.205   0.925 -0.8654  0.2785  1.2472
   43MOL   H35915563   7.122   0.209   0.707 -1.7751  0.8805  0.3396
   43MOL   H36015564   7.131   0.379   0.687 -1.4872  0.8333  0.2473
   43MOL   H36115565   7.256   0.300   0.786 -0.1561  0.3041  1.5300
   43MOL   H36215566   6.675   0.375   0.952  0.5411  0.8678 -1.5359
   44MOL     C115567   0.412   3.568   2.850 -0.1747 -0.5331  0.1959
   44MOL     C215568   0.253   3.568   2.856 -0.6473  0.2115  0.1301
   44MOL     C315569   0.214   3.560   3.005 -1.1529  0.0424  0.0168
   44MOL     C415570   0.066   3.617   3.033  0.4245 -0.2877  0.5588
   44MOL     C515571   0.002   3.579   3.167  0.1660  0.3811  0.4155
   44MOL     C615572   0.080   3.645   3.284 -0.1382  0.2589  1.2165
   44MOL     H715573   0.442   3.463   2.856 -1.0135 -0.7059  1.4206
   44MOL     H815574   0.439   3.610   2.753 -2.3974  3.2932  1.1255
   44MOL     H915575   0.222   3.664   2.815 -1.5131 -0.7969 -1.5833
   44MOL    H1015576   0.289   3.612   3.064 -2.7167  1.9301  0.3839
   44MOL    H1115577   0.230   3.460   3.046 -3.2256 -1.1938 -2.0612
   44MOL    H1215578   7.720   3.591   2.956  0.4670  1.6289 -0.1575
   44MOL    H1315579   0.062   3.726   3.030  0.3045 -0.2956  0.4209
   44MOL    H1415580   7.628   3.617   3.179 -0.7181 -0.9894 -2.3869
   44MOL    H1515581   7.723   3.471   3.172  1.0812  0.2450 -1.1752
   44MOL    H1615582   0.186   3.622   3.284  0.0702  1.1465 -0.2447
   44MOL    H1715583   0.031   3.602   3.371 -1.5445 -0.2049  0.2182
   44MOL    H1815584   0.059   3.752   3.278  1.2405  0.5537  1.5091
   44MOL    H1915585   0.465   3.629   2.922 -1.4814 -0.3575  1.0271
   44MOL    C2015586   0.195   3.451   2.777  0.1886  0.2763  0.3561
   44MOL    C2115587   0.216   3.469   2.618  0.2250  0.0413 -0.5982
   44MOL    C2215588   0.357   3.414   2.564  0.5694 -0.6551  0.2847
   44MOL    C2315589   0.389   3.470   2.422 -0.2720  0.4012  0.1814
   44MOL    C2415590   0.490   3.389   2.352 -0.0808 -0.4991 -0.2403
   44MOL    C2515591   0.500   3.445   2.209 -0.0002  0.3639 -0.0286
   44MOL    H2615592   0.089   3.454   2.798 -0.1715  1.5350 -1.4998
   44MOL    H2715593   0.245   3.357   2.801 -0.2913 -0.9855 -3.2017
   44MOL    H2815594   0.221   3.574   2.591  1.9166  0.1619  0.1270
   44MOL    H2915595   0.349   3.305   2.561  1.1437 -0.6550 -1.1921
   44MOL    H3015596   0.444   3.425   2.629 -1.0597  3.8891  1.8987
   44MOL    H3115597   0.431   3.569   2.441 -0.0371  0.7792 -2.1155
   44MOL    H3215598   0.300   3.485   2.362 -0.9001  0.6935  1.1810
   44MOL    H3315599   0.579   3.379   2.415 -0.3409  2.4308  0.6516
   44MOL    H3415600   0.444   3.290   2.355 -2.3365  0.5085 -0.9276
   44MOL    H3515601   0.529   3.550   2.204 -1.8378  0.9261  0.6875
   44MOL    H3615602   0.575   3.392   2.151 -0.8148 -1.8018  0.8529
   44MOL    H3715603   0.411   3.422   2.149  1.0930 -2.7534 -0.5724
   44MOL    C3815604   0.099   3.401   2.533  0.5750 -0.9008 -0.5404
   44MOL    C3915605   7.701   3.478   2.490 -0.4683 -1.5095  0.4681
   44MOL    C4015606   7.634   3.567   2.602 -0.4817  0.1746 -0.4088
   44MOL    C4115607   7.489   3.613   2.564  0.0320 -0.2003 -1.1427
   44MOL    C4215608   7.401   3.650   2.681  0.1093  0.6706 -0.1607
   44MOL    C4315609   7.254   3.685   2.658 -0.4399 -1.3238  0.2091
   44MOL    H4415610   0.066   3.314   2.590 -3.7781  0.7043 -0.4012
   44MOL    H4515611   0.144   3.354   2.445  0.4376 -1.2151 -0.4415
   44MOL    H4615612   7.635   3.397   2.459 -0.6503 -0.2616 -2.5715
   44MOL    H4715613   7.638   3.501   2.689 -2.2411 -1.4154 -1.4908
   44MOL    H4815614   7.692   3.651   2.642  0.3847  0.4020 -2.1119
   44MOL    H4915615   7.496   3.699   2.497 -1.7948 -0.6297 -1.9091
   44MOL    H5015616   7.438   3.535   2.509  2.0375 -2.5061  0.1650
   44MOL    H5115617   7.394   3.573   2.758 -0.5190  2.1745  1.2929
   44MOL    H5215618   7.435   3.741   2.730 -0.6287 -0.0673  1.7308
   44MOL    H5315619   7.200   3.606   2.606 -1.8506  0.2571 -0.7434
   44MOL    H5415620   7.237   3.775   2.598  3.1174 -2.1498 -2.2482
   44MOL    H5515621   7.213   3.692   2.758 -0.6880 -2.1353  0.1660
   44MOL    C5615622   7.721   3.557   2.362 -0.3015 -0.5848 -0.1969
   44MOL    C5715623   0.043   3.494   2.225 -0.2237 -0.0301 -0.0298
   44MOL    C5815624   0.059   3.590   2.114  0.1426 -0.1347  0.3844
   44MOL    C5915625   0.125   3.534   1.985 -0.0063  0.1382  0.8933
   44MOL    C6015626   0.175   3.653   1.891  0.1302  0.2819  1.1756
   44MOL    C6115627   0.225   3.601   1.754 -0.4394 -0.0451  0.1861
   44MOL    H6215628   7.625   3.595   2.326  0.0209 -0.3473 -0.8118
   44MOL    H6315629   0.054   3.646   2.384 -2.8338  1.6234 -1.8888
   44MOL    H6415630   0.145   3.456   2.233  0.2566  1.1524 -0.5919
   44MOL    H6515631   7.689   3.628   2.081 -0.3989 -1.3638  0.5239
   44MOL    H6615632   0.110   3.681   2.145  0.6657 -0.1432 -0.4606
   44MOL    H6715633   0.051   3.468   1.940  0.3726 -1.3024  2.3419
   44MOL    H6815634   0.216   3.478   2.008 -1.0242 -1.6104  0.7024
   44MOL    H6915635   0.093   3.723   1.875  0.4108  0.3108 -0.1339
   44MOL    H7015636   0.249   3.713   1.945  0.9864  0.1117  0.1970
   44MOL    H7115637   0.146   3.551   1.698  0.7255 -2.7219  0.8687
   44MOL    H7215638   0.263   3.688   1.701 -0.2479 -0.9634 -1.2165
   44MOL    H7315639   0.302   3.524   1.758 -0.9425 -0.5310  0.5805
   44MOL    C7415640   7.674   3.376   2.178  0.2504 -0.4975 -0.0537
   44MOL    C7515641   0.008   3.249   2.111 -0.2162 -0.2117 -0.5294
   44MOL    C7615642   0.088   3.160   2.220 -0.3828  0.0218  0.8374
   44MOL    C7715643   0.137   3.023   2.168 -0.4460  0.0706  0.2194
   44MOL    C7815644   0.234   2.957   2.265  0.2636  0.3966 -0.5378
   44MOL    C7915645   0.198   2.953   2.410  0.0317  0.4935  0.0345
   44MOL    H8015646   7.616   3.335   2.261  0.1390 -2.3102 -1.0196
   44MOL    H8115647   7.608   3.428   2.108 -0.9880 -2.3437 -0.2928
   44MOL    H8215648   0.086   3.277   2.040 -0.5677 -0.5704 -1.0598
   44MOL    H8315649   0.174   3.216   2.257  1.0792 -1.1428 -0.7308
   44MOL    H8415650   0.027   3.147   2.310 -0.3708 -1.1416  0.6760
   44MOL    H8515651   0.052   2.958   2.148 -0.0868 -1.1329  2.4243
   44MOL    H8615652   0.197   3.025   2.078  1.8770  0.9116  1.7301
   44MOL    H8715653   0.329   3.011   2.252 -0.2129  1.4145  0.1200
   44MOL    H8815654   0.243   2.852   2.239  1.7139  0.7757 -1.6408
   44MOL    H8915655   0.187   3.050   2.459 -1.5255  0.9152 -1.0675
   44MOL    H9015656   0.099   2.907   2.411  0.6394 -0.8174  1.1112
   44MOL    H9115657   0.263   2.884   2.463 -1.7262 -0.4910  0.9476
   44MOL    C9215658   7.625   3.177   2.033  0.1991 -0.1131  0.3613
   44MOL    C9315659   7.586   3.234   1.896 -0.3859 -0.2670 -0.1405
   44MOL    C9415660   7.695   3.196   1.787 -0.4331  0.0026 -0.1905
   44MOL    C9515661   7.698   3.302   1.677 -0.8062 -0.1878 -0.2513
   44MOL    C9615662   0.092   3.303   1.577  0.8658 -0.2067  0.2051
   44MOL    C9715663   0.069   3.406   1.463  0.9347 -0.4748  0.2029
   44MOL    H9815664   7.651   3.071   2.019 -4.0252 -1.1917  0.1366
   44MOL    H9915665   7.532   3.161   2.086  0.1585  1.2832  0.7173
   44MOL   H10015666   7.582   3.340   1.919 -0.3127 -0.4742  0.8621
   44MOL   H10115667   7.702   3.096   1.744 -0.1102  0.6774 -1.7184
   44MOL   H10215668   0.059   3.198   1.846 -0.8396 -2.0341  0.5625
   44MOL   H10315669   7.612   3.278   1.614 -1.4239  0.7507  0.2248
   44MOL   H10415670   7.679   3.397   1.726  0.7623  0.1511 -0.2747
   44MOL   H10515671   0.185   3.327   1.628  0.8260  0.3763  0.0042
   44MOL   H10615672   0.096   3.202   1.536  1.0478 -0.3232  0.5091
   44MOL   H10715673   0.030   3.501   1.499  0.2334 -0.8909  0.5813
   44MOL   H10815674   0.161   3.427   1.410  0.0431  0.8236 -0.8576
   44MOL   H10915675   0.004   3.367   1.384 -0.1158  1.3543  0.1490
   44MOL   C11015676   7.447   3.175   1.847  0.1892  0.1871  0.5559
   44MOL   C11115677   7.324   3.188   1.932  0.5065  0.3168  0.2515
   44MOL   C11215678   7.227   3.072   1.908 -0.0151  0.9730 -0.2887
   44MOL   C11315679   7.272   2.934   1.954 -0.3154 -0.2722  0.2614
   44MOL   C11415680   7.153   2.834   1.975  0.0191 -0.2235  0.4852
   44MOL   C11515681   7.069   2.801   1.853 -0.6384 -0.1419  0.1105
   44MOL   H11615682   7.417   3.208   1.747 -1.5989  1.4800  1.4991
   44MOL   H11715683   7.476   3.071   1.828 -0.0074  0.5062 -1.6278
   44MOL   H11815684   7.349   3.185   2.038 -0.4134 -1.2609  0.4368
   44MOL   H11915685   7.184   3.063   1.808 -0.2036  1.8013 -0.2886
   44MOL   H12015686   7.144   3.095   1.976  0.9636  0.2921  1.1523
   44MOL   H12115687   7.330   2.943   2.046 -0.4507  1.2861  0.2079
   44MOL   H12215688   7.332   2.888   1.876  0.8521  0.0570  0.9522
   44MOL   H12315689   7.076   2.876   2.040 -0.6006  0.2915 -0.5641
   44MOL   H12415690   7.181   2.746   2.033 -0.0372 -0.9663 -0.6148
   44MOL   H12515691   7.025   2.891   1.809 -1.2513  0.0957  1.1943
   44MOL   H12615692   7.118   2.750   1.770 -1.0279  0.9304 -0.7988
   44MOL   H12715693   6.988   2.738   1.887  0.4050 -1.0610  0.9441
   44MOL   C12815694   7.251   3.319   1.900 -0.8078  0.4758 -0.7119
   44MOL   C12915695   7.301   3.440   1.966 -0.1565 -0.4451  0.7592
   44MOL   C13015696   7.300   3.442   2.120 -0.0938  0.3915  0.5125
   44MOL   C13115697   7.164   3.425   2.188 -0.2427  0.1863  1.2863
   44MOL   C13215698   7.160   3.453   2.336 -0.4902 -0.5526 -0.3683
   44MOL   C13315699   7.016   3.430   2.396 -0.4715  0.8602  0.2963
   44MOL   H13415700   7.145   3.316   1.924 -0.9467 -1.5756 -1.5088
   44MOL   H13515701   7.251   3.321   1.791  0.2903 -1.6108 -0.7696
   44MOL   H13615702   7.405   3.435   1.933  0.0629 -0.0007  1.3670
   44MOL   H13715703   7.376   3.372   2.154 -0.2683 -0.3288 -0.5646
   44MOL   H13815704   7.351   3.534   2.149  1.2090 -0.3638  0.6582
   44MOL   H13915705   7.126   3.325   2.166  0.1159  0.3616 -0.1383
   44MOL   H14015706   7.093   3.498   2.150  0.6024  0.4354  0.1708
   44MOL   H14115707   7.232   3.391   2.389 -2.3237 -0.2290  2.6556
   44MOL   H14215708   7.183   3.558   2.351  0.4089 -0.8482  0.3318
   44MOL   H14315709   7.012   3.421   2.505  0.8712 -0.4136  0.2531
   44MOL   H14415710   6.974   3.344   2.343 -1.4905  0.7711  1.2329
   44MOL   H14515711   6.948   3.512   2.376 -1.8890 -0.0986  1.0705
   44MOL   C14615712   7.267   3.578   1.909 -0.0770 -0.6562 -0.1336
   44MOL   C14715713   7.360   3.648   1.814 -0.2164 -0.3968 -0.1204
   44MOL   C14815714   7.406   3.568   1.690  0.5529  0.6029 -0.3453
   44MOL   C14915715   7.483   3.659   1.585 -0.3377  0.0226 -0.1940
   44MOL   C15015716   7.462   3.617   1.441  0.2582 -0.2932  0.2822
   44MOL   C15115717   7.546   3.705   1.353  0.1749  0.1163  0.9429
   44MOL   H15215718   7.170   3.569   1.859 -0.4600 -0.8579  0.6448
   44MOL   H15315719   7.240   3.640   1.994 -1.8224  0.5546 -1.5217
   44MOL   H15415720   7.297   3.727   1.775  0.6770  0.7224  0.6521
   44MOL   H15515721   7.315   3.534   1.640 -1.8937  1.5598  3.1989
   44MOL   H15615722   7.469   3.482   1.714 -0.4654  0.0211  0.2876
   44MOL   H15715723   7.451   3.763   1.592  0.8104  0.3482  0.3615
   44MOL   H15815724   7.591   3.667   1.598 -0.1012 -3.5128  0.4174
   44MOL   H15915725   7.359   3.629   1.407 -0.7661  0.5691  3.5373
   44MOL   H16015726   7.484   3.511   1.428  1.0398  0.0350 -1.1759
   44MOL   H16115727   7.523   3.812   1.352 -0.7210 -0.0790  0.1103
   44MOL   H16215728   7.651   3.684   1.371  0.1745 -1.1598 -0.5242
   44MOL   H16315729   7.531   3.676   1.249  1.1176  0.3637  0.7386
   44MOL   C16415730   7.478   3.704   1.901  0.4078  0.4258  0.1391
   44MOL   C16515731   7.448   3.851   1.944 -0.6258  0.0163  0.2456
   44MOL   C16615732   7.531   3.893   2.065 -0.8645  0.7192  0.0045
   44MOL   C16715733   7.481   3.847   2.205 -0.4139 -0.3469 -0.0766
   44MOL   C16815734   7.352   3.917   2.243 -0.1038 -0.0595 -0.2754
   44MOL   C16915735   7.367   4.068   2.285  0.1262  0.5960 -0.7026
   44MOL   H17015736   7.494   3.638   1.986 -3.9578 -1.6677 -0.4995
   44MOL   H17115737   7.569   3.701   1.841  1.0332  1.0133  1.0427
   44MOL   H17215738   7.341   3.865   1.963 -0.4018  1.2250  0.6202
   44MOL   H17315739   7.556   3.999   2.067  2.2505  0.0225  1.9489
   44MOL   H17415740   7.636   3.865   2.056 -0.9773  0.0278  0.7124
   44MOL   H17515741   7.559   3.845   2.281  0.5522  0.8046 -1.0035
   44MOL   H17615742   7.447   3.744   2.196 -2.1000  0.0309  1.7395
   44MOL   H17715743   7.322   3.884   2.342 -0.4671  0.6016 -0.1610
   44MOL   H17815744   7.268   3.902   2.175 -0.9032 -1.6592  1.0358
   44MOL   H17915745   7.433   4.079   2.372 -0.1578 -1.0356 -0.2668
   44MOL   H18015746   7.267   4.105   2.304  0.4823  1.5173 -0.5856
   44MOL   H18115747   7.406   4.137   2.211  1.3497 -0.8423 -1.4308
   44MOL   C18215748   7.462   3.960   1.823  0.1140 -0.4729  0.0638
   44MOL   C18315749   7.394   4.102   1.841  0.5234 -0.4329  0.4962
   44MOL   C18415750   7.237   4.094   1.840 -0.0541  0.2497  0.4847
   44MOL   C18515751   7.164   4.228   1.868  1.1194  0.3292  0.4879
   44MOL   C18615752   7.014   4.210   1.912 -0.2605  0.7312 -0.0450
   44MOL   C18715753   6.934   4.098   1.843 -0.9151  0.2841 -0.1601
   44MOL   H18815754   7.568   3.977   1.805 -0.1872  1.6964  0.2064
   44MOL   H18915755   7.406   3.922   1.737 -1.0589  0.1164  0.5531
   44MOL   H19015756   7.420   4.152   1.935 -0.2029 -0.2421  0.6042
   44MOL   H19115757   7.187   4.047   1.755  0.9686  0.2323 -0.1167
   44MOL   H19215758   7.208   4.028   1.922 -0.7383 -0.2296 -0.1364
   44MOL   H19315759   7.166   4.294   1.782 -0.8315 -1.0775 -0.6682
   44MOL   H19415760   7.209   4.267   1.960  0.4933 -0.5884  1.1981
   44MOL   H19515761   6.967   4.307   1.897  0.7920  1.1652 -0.6113
   44MOL   H19615762   7.028   4.201   2.019 -1.6393  1.1788  0.1793
   44MOL   H19715763   6.914   4.110   1.736  1.2844 -2.6175 -0.9836
   44MOL   H19815764   6.830   4.094   1.877 -0.7201  1.3294  0.5742
   44MOL   H19915765   6.968   4.000   1.876 -1.0006 -0.1848 -1.4155
   44MOL   C20015766   7.440   4.197   1.724  0.1170 -0.2810  0.4633
   44MOL   C20115767   7.567   4.285   1.758  0.2112  0.2027  0.5398
   44MOL   C20215768   7.627   4.341   1.621 -0.1817  0.4380 -0.4096
   44MOL   C20315769   7.695   4.239   1.522  0.2049  0.5877 -0.8178
   44MOL   C20415770   0.120   4.216   1.562 -0.3973 -0.7053 -0.6195
   44MOL   C20515771   0.178   4.107   1.470 -0.2084 -0.4302  0.4748
   44MOL   H20615772   7.365   4.267   1.687 -0.3771 -0.7969  0.4811
   44MOL   H20715773   7.465   4.134   1.639  0.0432 -0.2788  0.4402
   44MOL   H20815774   7.645   4.214   1.787 -0.9332 -0.5567  1.7666
   44MOL   H20915775   7.695   4.425   1.635 -1.0661  0.9896  0.6430
   44MOL   H21015776   7.545   4.379   1.561 -1.2498 -0.0569  0.7084
   44MOL   H21115777   7.691   4.261   1.415  0.7999 -1.5626 -1.3086
   44MOL   H21215778   7.647   4.142   1.528 -0.3758  0.7470 -2.6045
   44MOL   H21315779   0.139   4.189   1.666  0.1073  0.2761 -0.4607
   44MOL   H21415780   0.173   4.311   1.554  0.7236 -1.1326  1.2983
   44MOL   H21515781   0.176   4.138   1.365 -1.1997  2.7739  1.3704
   44MOL   H21615782   0.281   4.083   1.495 -0.5837 -1.3287  1.1872
   44MOL   H21715783   0.125   4.012   1.475  0.7451 -1.0489 -0.9146
   44MOL   C21815784   7.539   4.395   1.864 -0.1883 -0.2080  0.2337
   44MOL   C21915785   7.655   4.419   1.965  0.0346 -0.7238  0.3701
   44MOL   C22015786   0.062   4.461   1.900  0.4907 -0.0508  0.2086
   44MOL   C22115787   0.079   4.612   1.870 -0.6146  0.6350 -0.1053
   44MOL   C22215788   0.213   4.651   1.817  0.1597  0.3986  0.1369
   44MOL   C22315789   0.243   4.588   1.683 -0.8588  0.0190  0.1572
   44MOL   H22415790   7.510   4.491   1.820  0.3551 -0.2216 -0.1449
   44MOL   H22515791   7.450   4.360   1.917  0.2357  0.9568  1.7775
   44MOL   H22615792   7.622   4.500   2.029  0.8344  1.7073 -2.1926
   44MOL   H22715793   0.096   4.407   1.811  0.2125  2.6865 -1.6052
   44MOL   H22815794   0.143   4.432   1.966  2.7964  0.0837 -2.4867
   44MOL   H22915795   0.059   4.671   1.959 -2.8670 -1.3870  0.7535
   44MOL   H23015796   0.000   4.641   1.801  1.3743  0.2687 -2.6103
   44MOL   H23115797   0.227   4.758   1.808  1.3994  0.1563 -0.9971
   44MOL   H23215798   0.285   4.627   1.895 -2.7081  1.6674  3.2375
   44MOL   H23315799   0.327   4.639   1.635 -2.0457  1.0033 -0.9158
   44MOL   H23415800   0.157   4.605   1.617  0.7887  0.9951 -1.8061
   44MOL   H23515801   0.275   4.484   1.690  2.4101  0.8946 -0.7456
   44MOL   C23615802   7.671   4.296   2.067  0.1479  0.5187  0.3908
   44MOL   C23715803   0.017   4.328   2.210 -1.1999 -0.2290  1.6773
   44MOL   C23815804   0.056   4.194   2.278  0.2011 -0.1700  0.2181
   44MOL   C23915805   0.165   4.119   2.205 -0.8199 -0.8049 -0.1305
   44MOL   C24015806   0.224   3.990   2.267 -0.1294  0.3109  0.1665
   44MOL   C24115807   0.356   3.943   2.206 -0.1900  0.3621 -0.4818
   44MOL   H24215808   7.573   4.253   2.087 -0.0819  1.0668  0.4508
   44MOL   H24315809   7.726   4.217   2.016 -0.5423 -1.2359  2.2976
   44MOL   H24415810   0.116   4.366   2.186 -1.3544 -1.9161 -1.9652
   44MOL   H24515811   0.089   4.214   2.380 -1.7912  3.1601  0.2998
   44MOL   H24615812   7.692   4.135   2.290  0.9607 -1.6725 -1.2855
   44MOL   H24715813   0.249   4.188   2.195  0.9356 -2.8410  0.1830
   44MOL   H24815814   0.142   4.094   2.102  0.7764 -0.1780 -0.6443
   44MOL   H24915815   0.238   4.006   2.374  2.0693  0.3707 -0.1129
   44MOL   H25015816   0.147   3.913   2.252 -1.4381  1.7284 -0.6056
   44MOL   H25115817   0.420   4.028   2.226  0.3950 -1.0591  4.4693
   44MOL   H25215818   0.405   3.868   2.269 -2.6405  0.3741  1.5425
   44MOL   H25315819   0.354   3.919   2.100 -0.7774 -0.9235 -0.1975
   44MOL   C25415820   7.670   4.430   2.298 -0.3019 -0.0867 -0.7479
   44MOL   C25515821   0.013   4.563   2.294 -0.2937  0.4986 -1.0252
   44MOL   C25615822   0.141   4.560   2.377  0.6544 -0.3320 -0.5377
   44MOL   C25715823   0.125   4.580   2.521  0.1091  0.0662 -0.6515
   44MOL   C25815824   0.251   4.561   2.605 -0.5675  0.2575  0.3110
   44MOL   C25915825   0.355   4.670   2.593  0.2113  0.7151  0.4769
   44MOL   H26015826   7.662   4.399   2.402  2.2403  2.7521  0.3755
   44MOL   H26115827   7.571   4.439   2.253 -0.1005  0.6305 -1.0570
   44MOL   H26215828   0.041   4.584   2.190 -0.0196 -0.8471 -1.2285
   44MOL   H26315829   0.192   4.466   2.360  3.3566  1.1863 -1.0440
   44MOL   H26415830   0.207   4.632   2.329 -0.4760  1.0728 -0.0046
   44MOL   H26515831   0.085   4.678   2.546  2.6653  0.9353  0.1798
   44MOL   H26615832   0.048   4.512   2.558  0.0985  1.7155  2.4227
   44MOL   H26715833   0.296   4.464   2.586  0.5499  0.9723 -0.7247
   44MOL   H26815834   0.219   4.547   2.709  0.4398  0.2110  0.6158
   44MOL   H26915835   0.320   4.758   2.646 -2.1442  0.7365 -1.0554
   44MOL   H27015836   0.360   4.706   2.490 -3.0025  0.3793  0.1636
   44MOL   H27115837   0.458   4.655   2.626 -0.1456  0.9115  1.6969
   44MOL   C27215838   7.643   4.679   2.315  0.0479  0.2920  0.2495
   44MOL   C27315839   7.698   4.822   2.310  0.4183  0.2364  0.2585
   44MOL   C27415840   7.578   4.926   2.295  0.3085  0.2995 -1.0007
   44MOL   C27515841   7.498   4.957   2.421  0.1627  0.3337 -0.7159
   44MOL   C27615842   7.406   5.076   2.423  0.5551 -0.0752 -0.7065
   44MOL   C27715843   7.319   5.078   2.303 -0.0729  0.3647  0.2774
   44MOL   H27815844   7.553   4.666   2.254  0.0527 -0.0078  0.3068
   44MOL   H27915845   7.600   4.672   2.415 -1.4299  2.6327 -0.1753
   44MOL   H28015846   0.010   4.831   2.411 -0.9070 -0.0659  0.8048
   44MOL   H28115847   7.514   4.901   2.210 -1.0622  0.5821 -0.0686
   44MOL   H28215848   7.613   5.028   2.277 -2.3916  1.7017  1.2481
   44MOL   H28315849   7.572   4.973   2.500  0.5045 -1.4870 -0.6400
   44MOL   H28415850   7.440   4.868   2.447  1.9201 -0.2289  1.3888
   44MOL   H28515851   7.338   5.072   2.508  1.2194  1.3780 -0.0833
   44MOL   H28615852   7.455   5.174   2.424  1.1325 -0.3686 -0.0281
   44MOL   H28715853   7.267   4.983   2.293 -0.4631  0.4415  1.4304
   44MOL   H28815854   7.239   5.152   2.315  0.3260  0.6189  1.4766
   44MOL   H28915855   7.371   5.090   2.208 -2.3228 -1.0289 -1.1725
   44MOL   C29015856   0.078   4.844   2.198 -0.2195  0.3082  0.5099
   44MOL   C29115857   0.165   4.972   2.232 -0.2852 -0.4550 -0.4047
   44MOL   C29215858   0.259   4.953   2.353 -0.2054 -0.0119  0.0487
   44MOL   C29315859   0.279   5.083   2.435  0.2123 -0.3535 -0.6274
   44MOL   C29415860   0.360   5.072   2.565  0.2804  0.2573 -0.6525
   44MOL   C29515861   0.391   5.201   2.638  0.3164  0.0152  0.2055
   44MOL   H29615862   0.031   4.854   2.100  1.2135 -2.4042 -0.5011
   44MOL   H29715863   0.149   4.762   2.185 -0.0728  0.5231 -0.0650
   44MOL   H29815864   0.092   5.049   2.258  0.7656  0.0907  0.9840
   44MOL   H29915865   0.360   4.921   2.328  0.3454  0.8268  1.1558
   44MOL   H30015866   0.222   4.868   2.411  2.8410  0.6591  3.1387
   44MOL   H30115867   0.301   5.163   2.366 -0.7378 -0.8295 -1.5054
   44MOL   H30215868   0.180   5.113   2.469 -0.2014 -1.1796 -1.0710
   44MOL   H30315869   0.443   5.012   2.527  0.8818  2.2050 -2.5256
   44MOL   H30415870   0.302   5.020   2.641  0.8305 -1.2352 -1.2387
   44MOL   H30515871   0.447   5.192   2.731 -0.4509  1.7844  0.8506
   44MOL   H30615872   0.291   5.242   2.649  1.0832  1.5686  1.5245
   44MOL   H30715873   0.450   5.262   2.570  2.8772 -0.9202  1.5229
   44MOL   C30815874   0.251   5.019   2.111  0.6137 -0.4232 -1.0213
   44MOL   C30915875   0.183   5.119   2.022 -0.3708  0.1896  0.3392
   44MOL   C31015876   0.220   5.111   1.871 -0.5262 -0.0184 -0.6159
   44MOL   C31115877   0.364   5.113   1.831 -0.4445 -0.2457 -0.2306
   44MOL   C31215878   0.379   5.102   1.676 -0.0153 -0.0154 -0.0275
   44MOL   C31315879   0.518   5.109   1.618  0.7409  0.8375  0.4705
   44MOL   H31415880   0.352   5.047   2.141  0.3571 -0.5843  0.0208
   44MOL   H31515881   0.286   4.935   2.052 -1.4782 -1.6838 -0.5238
   44MOL   H31615882   0.075   5.103   2.020 -0.6545  2.0602  0.1493
   44MOL   H31715883   0.172   5.189   1.812 -1.5571  1.3143  1.9018
   44MOL   H31815884   0.179   5.015   1.839  2.3589 -1.6291  0.2924
   44MOL   H31915885   0.423   5.034   1.878 -0.8357  0.4970  1.5552
   44MOL   H32015886   0.414   5.205   1.860  2.1361 -1.5434 -0.4071
   44MOL   H32115887   0.337   5.005   1.648  0.7951 -0.1901 -0.6513
   44MOL   H32215888   0.315   5.181   1.636 -1.7536 -0.8535  1.0498
   44MOL   H32315889   0.577   5.027   1.659 -0.9151  0.1262  1.5082
   44MOL   H32415890   0.570   5.203   1.635  2.0936 -0.0769  1.4112
   44MOL   H32515891   0.514   5.092   1.510  1.7224 -1.7774  0.8267
   44MOL   C32615892   0.217   5.265   2.078  0.4988  0.1519  0.0859
   44MOL   C32715893   0.121   5.371   2.038 -1.1803 -0.4493 -0.1806
   44MOL   C32815894   0.000   5.404   2.138  0.1422 -0.3655 -0.0952
   44MOL   C32915895   7.590   5.363   2.083 -0.1440 -0.4488 -0.1379
   44MOL   C33015896   7.469   5.393   2.174  0.2193  0.0932  0.3350
   44MOL   C33115897   7.333   5.386   2.090 -0.4656  0.1030 -0.0270
   44MOL   H33215898   0.320   5.288   2.052  0.4012 -0.8958 -1.2495
   44MOL   H33315899   0.213   5.270   2.187 -0.8902  1.2192  0.0014
   44MOL   H33415900   0.076   5.347   1.941  0.5488 -0.2270 -1.0619
   44MOL   H33515901   0.017   5.347   2.230  2.9236  2.4329  1.2395
   44MOL   H33615902   7.714   5.510   2.160 -1.7692 -1.0820  2.5187
   44MOL   H33715903   7.582   5.259   2.052 -2.9742  0.2121 -1.7712
   44MOL   H33815904   7.583   5.423   1.992 -1.3170  0.8802  0.8060
   44MOL   H33915905   7.460   5.322   2.257 -0.3540  0.1300  0.3071
   44MOL   H34015906   7.475   5.485   2.232 -2.4847 -1.1896  2.8473
   44MOL   H34115907   7.328   5.289   2.041  1.5955  0.9254 -1.9537
   44MOL   H34215908   7.351   5.465   2.017  1.4109 -1.7758 -1.6545
   44MOL   H34315909   7.256   5.404   2.165 -0.9811  1.1219 -0.7771
   44MOL   C34415910   0.198   5.499   2.002  0.0744 -0.5965  0.1788
   44MOL   C34515911   0.309   5.482   1.889  0.1352  0.6798 -1.6206
   44MOL   C34615912   0.336   5.617   1.815 -0.1957 -0.0903 -1.0820
   44MOL   C34715913   0.441   5.611   1.701 -0.2095  0.6530  0.1638
   44MOL   C34815914   0.507   5.750   1.667  0.0112  0.4830  0.2960
   44MOL   C34915915   0.634   5.734   1.595 -0.7749  0.0596 -0.0911
   44MOL   H35015916   0.127   5.577   1.973 -1.2722 -0.9550  2.3705
   44MOL   H35115917   0.244   5.544   2.091  1.4044  2.2019 -1.8466
   44MOL   H35215918   0.270   5.413   1.815 -0.3650  0.5815 -1.2677
   44MOL   H35315919   0.243   5.634   1.762  0.5191  3.1458 -1.3960
   44MOL   H35415920   0.344   5.705   1.878 -0.2461 -1.5048  0.9625
   44MOL   H35515921   0.515   5.533   1.719 -1.4690 -0.2647  1.4788
   44MOL   H35615922   0.396   5.565   1.613  0.4041  1.2064 -0.4469
   44MOL   H35715923   0.431   5.808   1.614 -2.3054 -2.9926 -0.3599
   44MOL   H35815924   0.526   5.795   1.765  2.0882 -0.4954  0.3657
   44MOL   H35915925   0.634   5.678   1.502  1.6827  2.3635 -1.5308
   44MOL   H36015926   0.672   5.834   1.572 -0.3376 -0.0081  0.3124
   44MOL   H36115927   0.699   5.690   1.672 -1.7383 -1.0563  0.1058
   44MOL   H36215928   0.399   5.431   1.925 -0.2701 -0.9625 -2.8934
   45MOL     C115929   2.799   6.279   0.676  0.0625 -1.2613 -0.3846
   45MOL     C215930   2.834   6.321   0.532 -0.0240 -0.2980  0.1125
   45MOL     C315931   2.954   6.241   0.483  0.9534  1.2777  0.2151
   45MOL     C415932   2.926   6.088   0.477 -0.7372 -0.4387 -0.0457
   45MOL     C515933   3.046   6.006   0.439 -0.0274 -0.5419 -0.2771
   45MOL     C615934   3.142   5.991   0.560 -0.5053  0.9863  0.5375
   45MOL     H715935   2.722   6.346   0.715  1.9121  0.1040  1.0140
   45MOL     H815936   2.757   6.178   0.681 -3.2180  0.0454 -0.3483
   45MOL     H915937   2.753   6.300   0.461  0.5934  0.9111 -0.9750
   45MOL    H1015938   3.039   6.270   0.544  1.7996 -0.0019 -0.3450
   45MOL    H1115939   2.976   6.275   0.382  0.6091  1.2321  0.1248
   45MOL    H1215940   2.846   6.063   0.407 -0.7997 -0.7196  0.1237
   45MOL    H1315941   2.893   6.051   0.574 -1.4890  0.3902  0.0257
   45MOL    H1415942   3.028   5.902   0.414  0.0775 -0.4476 -0.7517
   45MOL    H1515943   3.096   6.053   0.355  1.4751 -0.3243  0.7135
   45MOL    H1615944   3.102   5.928   0.640 -1.7272  0.1475 -0.7116
   45MOL    H1715945   3.161   6.088   0.604  0.3674  1.7983 -1.5632
   45MOL    H1815946   3.240   5.954   0.530 -0.7679 -1.5273  2.6204
   45MOL    H1915947   2.881   6.271   0.748 -1.5805 -2.2409  1.4452
   45MOL    C2015948   2.854   6.471   0.512 -0.7362 -0.0051 -0.1735
   45MOL    C2115949   2.739   6.569   0.529  0.4583 -0.0058  0.3636
   45MOL    C2215950   2.802   6.705   0.570 -0.2682 -1.1290  0.4432
   45MOL    C2315951   2.830   6.724   0.718 -0.1185  0.2499 -0.4272
   45MOL    C2415952   2.882   6.872   0.744  0.1161 -0.3760  0.2778
   45MOL    C2515953   2.869   6.904   0.894 -0.9229 -0.3909 -0.6717
   45MOL    H2615954   2.902   6.486   0.415 -1.0300  0.5067 -0.2448
   45MOL    H2715955   2.929   6.485   0.590 -0.3615  0.2987 -0.5876
   45MOL    H2815956   2.670   6.544   0.610  1.4597 -2.3934  0.5262
   45MOL    H2915957   2.734   6.784   0.538 -1.4655 -2.5888 -0.7178
   45MOL    H3015958   2.896   6.711   0.515 -1.1112  1.2982 -0.8076
   45MOL    H3115959   2.903   6.655   0.761 -0.4192  1.1939  1.6491
   45MOL    H3215960   2.740   6.711   0.777 -0.7872  3.0334 -0.7710
   45MOL    H3315961   2.986   6.884   0.713  0.2179 -0.7916  0.4592
   45MOL    H3415962   2.818   6.937   0.684  0.8217 -1.4610 -1.7163
   45MOL    H3515963   2.893   7.007   0.920 -1.8089 -0.8635  2.2549
   45MOL    H3615964   2.765   6.899   0.924 -0.1496 -1.3566  1.9702
   45MOL    H3715965   2.926   6.833   0.954 -2.5927  0.2395  1.7437
   45MOL    C3815966   2.652   6.560   0.397 -0.6714  0.5543 -0.1989
   45MOL    C3915967   2.504   6.614   0.415 -0.5670  0.3407 -0.3241
   45MOL    C4015968   2.441   6.581   0.283 -0.4360  0.1024 -0.2251
   45MOL    C4115969   2.449   6.705   0.201 -0.3154 -0.0576  0.6814
   45MOL    C4215970   2.385   6.693   0.056  0.2968 -0.2723  0.0974
   45MOL    C4315971   2.407   6.824   7.699  0.7618  0.0858 -0.0951
   45MOL    H4415972   2.640   6.455   0.370  1.5174 -0.2831  1.8319
   45MOL    H4515973   2.696   6.605   0.308 -1.4457  2.4773  0.3821
   45MOL    H4615974   2.528   6.719   0.432 -0.1543  0.2034 -0.0592
   45MOL    H4715975   2.484   6.493   0.235 -0.3487 -0.1536  0.3280
   45MOL    H4815976   2.336   6.555   0.291 -0.4112 -0.1872 -0.7876
   45MOL    H4915977   2.415   6.789   0.261 -0.0163  1.1295 -0.7805
   45MOL    H5015978   2.556   6.729   0.193  0.0335 -1.5195  0.8786
   45MOL    H5115979   2.436   6.608   0.010  0.2995  0.0493 -0.4974
   45MOL    H5215980   2.280   6.665   0.062  0.5708 -0.7695  4.4082
   45MOL    H5315981   2.383   6.805   7.594 -1.6292 -0.8567  0.5900
   45MOL    H5415982   2.508   6.864   7.696 -0.1496  2.4100 -0.5462
   45MOL    H5515983   2.340   6.899   0.013 -1.1680 -0.9969 -1.1787
   45MOL    C5615984   2.432   6.553   0.534 -0.1333 -0.0128  0.9432
   45MOL    C5715985   2.286   6.598   0.552 -0.2969  0.4709  0.5889
   45MOL    C5815986   2.273   6.741   0.598  0.4172 -0.2882 -0.6354
   45MOL    C5915987   2.357   6.783   0.719 -0.3266  0.6147 -0.4640
   45MOL    C6015988   2.300   6.905   0.783  0.0141  0.1846 -0.3086
   45MOL    C6115989   2.322   7.031   0.703 -0.0600  0.3804 -0.3490
   45MOL    H6215990   2.434   6.445   0.520 -1.3262  0.1952 -0.9139
   45MOL    H6315991   2.476   6.574   0.632  0.8768  1.8374  0.1204
   45MOL    H6415992   2.233   6.594   0.457 -1.2877 -0.5981  1.1685
   45MOL    H6515993   2.296   6.798   0.508  1.5433 -1.0973 -0.8707
   45MOL    H6615994   2.169   6.760   0.625  0.4989  3.7335 -2.8732
   45MOL    H6715995   2.458   6.813   0.693  0.5746 -2.9846 -1.4698
   45MOL    H6815996   2.366   6.700   0.790 -0.9716 -0.2246 -1.3417
   45MOL    H6915997   2.195   6.880   0.795  0.2764 -2.2798 -2.6967
   45MOL    H7015998   2.342   6.928   0.881  0.3576 -0.4895 -0.2912
   45MOL    H7115999   2.250   7.038   0.621 -0.4673  2.0558  0.1379
   45MOL    H7216000   2.324   7.117   0.769  1.0927  0.8476 -0.9809
   45MOL    H7316001   2.417   7.029   0.650 -0.2290  1.2525 -0.6924
   45MOL    C7416002   2.217   6.500   0.661  0.7552 -0.1717 -0.0912
   45MOL    C7516003   2.065   6.498   0.667  0.1568  0.4450  0.8186
   45MOL    C7616004   1.989   6.425   0.554  0.8731  0.3613 -0.1890
   45MOL    C7716005   1.967   6.278   0.569  0.1200  0.3262  0.1671
   45MOL    C7816006   1.858   6.229   0.467 -0.0789  0.0863  0.0070
   45MOL    C7916007   1.716   6.247   0.517  0.1475  0.6786 -0.0444
   45MOL    H8016008   2.262   6.402   0.647 -0.4517 -1.2836  3.1558
   45MOL    H8116009   2.250   6.525   0.762 -0.3867 -0.5296  0.3856
   45MOL    H8216010   2.042   6.603   0.653 -0.0894  0.2155 -0.5312
   45MOL    H8316011   1.894   6.476   0.542  1.7540  2.5379  1.8318
   45MOL    H8416012   2.042   6.459   0.465  0.5349  0.1168 -0.4875
   45MOL    H8516013   2.061   6.223   0.566  0.7503  1.1115  3.4444
   45MOL    H8616014   1.930   6.242   0.666 -0.7769 -1.8093 -0.9231
   45MOL    H8716015   1.882   6.124   0.453  0.6169  0.3433 -0.7770
   45MOL    H8816016   1.872   6.275   0.369 -1.2561  1.6317  0.5402
   45MOL    H8916017   1.693   6.192   0.608 -0.3191  2.1665  0.7477
   45MOL    H9016018   1.695   6.347   0.555 -0.6041  0.4472  0.1760
   45MOL    H9116019   1.654   6.222   0.430  0.6735  3.0366 -1.1222
   45MOL    C9216020   2.011   6.466   0.807 -0.2741  0.4275  0.6175
   45MOL    C9316021   1.867   6.499   0.846  0.3391  0.3871 -0.5156
   45MOL    C9416022   1.822   6.417   0.965 -0.0784  0.3730 -0.1458
   45MOL    C9516023   1.799   6.265   0.927  0.1804  0.5199 -0.6702
   45MOL    C9616024   1.714   6.188   1.032 -0.3589 -0.1758 -0.5184
   45MOL    C9716025   1.568   6.211   1.007  0.8431  0.1211 -1.1223
   45MOL    H9816026   2.036   6.360   0.814 -4.4735 -0.7241 -0.0950
   45MOL    H9916027   2.076   6.507   0.884  1.3535 -1.6346  0.3793
   45MOL   H10016028   1.796   6.467   0.769  1.1718  1.3475 -1.6832
   45MOL   H10116029   1.728   6.452   1.009  1.1616  2.0265  1.3005
   45MOL   H10216030   1.893   6.423   1.048 -0.5970  0.3907  0.2958
   45MOL   H10316031   1.754   6.257   0.828  0.5876 -0.3907 -0.7908
   45MOL   H10416032   1.894   6.212   0.925 -0.5967 -0.8732 -1.8395
   45MOL   H10516033   1.739   6.082   1.027  0.4693  0.0103 -0.5516
   45MOL   H10616034   1.739   6.227   1.131  0.6714  0.1573 -0.8992
   45MOL   H10716035   1.534   6.310   1.037 -1.3114 -1.3982  1.6298
   45MOL   H10816036   1.531   6.185   0.908 -0.3639 -0.4069 -0.5398
   45MOL   H10916037   1.518   6.151   1.082 -0.7886  0.9039 -1.5602
   45MOL   C11016038   1.834   6.647   0.859 -0.5411  0.3453  0.8034
   45MOL   C11116039   1.682   6.706   0.857 -0.2125  0.2235  0.9553
   45MOL   C11216040   1.618   6.686   0.715  0.3118  0.6309  0.0332
   45MOL   C11316041   1.463   6.707   0.711 -0.1249 -0.8111  0.3197
   45MOL   C11416042   1.410   6.718   0.571  0.2960  0.1773 -0.3427
   45MOL   C11516043   1.265   6.744   0.544  0.2994  0.7447  1.0666
   45MOL   H11616044   1.885   6.671   0.952  0.6334  0.2659  0.1902
   45MOL   H11716045   1.880   6.704   0.778  2.6214 -2.6001  0.4307
   45MOL   H11816046   1.631   6.644   0.931  0.3070 -1.0504  0.2687
   45MOL   H11916047   1.645   6.592   0.667 -1.8724 -1.4531  2.7100
   45MOL   H12016048   1.668   6.758   0.649  3.0111 -0.0735  1.2498
   45MOL   H12116049   1.434   6.795   0.768 -0.6087 -0.0632 -1.0570
   45MOL   H12216050   1.412   6.632   0.771  1.9626 -1.9346  0.7295
   45MOL   H12316051   1.438   6.640   0.499 -0.5507 -1.3310  0.9249
   45MOL   H12416052   1.469   6.804   0.539  0.1015  0.7009  0.6939
   45MOL   H12516053   1.227   6.810   0.623 -0.5811  0.7234  0.6605
   45MOL   H12616054   1.244   6.786   0.446 -0.8948 -2.4669 -0.0956
   45MOL   H12716055   1.219   6.646   0.555  0.4458  0.4897 -0.5514
   45MOL   C12816056   1.682   6.853   0.889  0.1900  0.1631  0.2089
   45MOL   C12916057   1.679   6.894   1.041  0.5962 -0.4564 -0.0116
   45MOL   C13016058   1.551   6.846   1.111  0.4653 -0.2218 -0.1141
   45MOL   C13116059   1.576   6.728   1.207  0.0094 -0.4045 -0.3432
   45MOL   C13216060   1.443   6.667   1.262 -0.0534 -0.3402 -0.3471
   45MOL   C13316061   1.451   6.516   1.295 -0.6034  0.3416  0.0114
   45MOL   H13416062   1.590   6.892   0.846 -0.3020 -0.4403  0.7095
   45MOL   H13516063   1.768   6.911   0.855 -1.4030  1.6925 -1.3281
   45MOL   H13616064   1.761   6.848   1.096 -1.3363 -4.8705 -0.5767
   45MOL   H13716065   1.501   6.930   1.160  0.4765  0.6196 -1.5157
   45MOL   H13816066   1.477   6.825   1.034 -0.7175  0.6718  0.7419
   45MOL   H13916067   1.648   6.744   1.286  1.2540 -0.5370 -1.4376
   45MOL   H14016068   1.619   6.647   1.148  0.8810  0.9591 -1.6203
   45MOL   H14116069   1.407   6.730   1.344  1.9946  1.0923 -0.5125
   45MOL   H14216070   1.379   6.669   1.174  0.6179 -0.1915 -0.8379
   45MOL   H14316071   1.352   6.472   1.302 -0.5970  0.2097 -0.6918
   45MOL   H14416072   1.509   6.491   1.384 -1.0698 -0.8312 -0.0061
   45MOL   H14516073   1.495   6.468   1.208  0.2746 -0.3804  0.8420
   45MOL   C14616074   1.708   7.050   1.064 -0.4527 -0.1094 -0.3715
   45MOL   C14716075   1.790   7.078   1.192  0.4573  0.3210  0.9350
   45MOL   C14816076   1.787   7.233   1.212  0.2299  0.0785  0.1399
   45MOL   C14916077   1.651   7.284   1.256 -0.5459 -0.0354  0.2564
   45MOL   C15016078   1.644   7.435   1.306 -0.7469  0.3397 -0.0697
   45MOL   C15116079   1.700   7.536   1.202  0.4692 -0.1488 -0.8886
   45MOL   H15216080   1.768   7.090   0.982 -2.4184  0.6169 -1.5085
   45MOL   H15316081   1.607   7.092   1.067 -0.2526  0.5227 -2.0159
   45MOL   H15416082   1.745   7.020   1.273  0.7285  0.2855  1.0631
   45MOL   H15516083   1.805   7.287   1.119  0.5203 -0.9056 -0.3764
   45MOL   H15616084   1.857   7.250   1.293  1.0926  0.0789 -0.6004
   45MOL   H15716085   1.570   7.269   1.185 -0.1972  0.5818 -0.2803
   45MOL   H15816086   1.622   7.226   1.343 -0.4538 -0.4972 -0.0211
   45MOL   H15916087   1.708   7.436   1.394  2.1152  0.7092 -2.0914
   45MOL   H16016088   1.545   7.470   1.334 -0.0591  1.5025  0.9447
   45MOL   H16116089   1.807   7.521   1.192  1.1822  3.7511  0.2833
   45MOL   H16216090   1.634   7.538   1.115  1.7873  1.9117 -1.8455
   45MOL   H16316091   1.676   7.632   1.248 -0.6731  0.2640 -2.3051
   45MOL   C16416092   1.934   7.017   1.175 -0.0903 -0.4591 -0.1747
   45MOL   C16516093   1.968   6.912   1.281  0.3461 -0.0762  0.1134
   45MOL   C16616094   2.091   6.811   1.253  0.0844  0.1034  0.7043
   45MOL   C16716095   2.049   6.665   1.200  0.3260  0.3357  0.5227
   45MOL   C16816096   2.044   6.558   1.309  0.3455  0.2591 -1.2455
   45MOL   C16916097   2.190   6.520   1.347  0.1131  0.4256  0.6401
   45MOL   H17016098   1.945   6.977   1.074  2.2287  1.0548 -0.5689
   45MOL   H17116099   1.997   7.106   1.183 -0.5367 -0.2470  1.0421
   45MOL   H17216100   1.882   6.847   1.266  0.0216  0.4710 -0.4092
   45MOL   H17316101   2.147   6.807   1.347  0.8692 -1.1578  0.2007
   45MOL   H17416102   2.163   6.854   1.184  0.2755 -0.5881  0.4618
   45MOL   H17516103   2.126   6.631   1.131 -2.0163 -2.2441 -0.9050
   45MOL   H17616104   1.949   6.662   1.156  0.8469  0.5658 -0.7004
   45MOL   H17716105   1.993   6.472   1.266 -0.1281  0.7306 -1.6270
   45MOL   H17816106   1.989   6.597   1.394 -1.8179 -0.9284 -2.0605
   45MOL   H17916107   2.246   6.599   1.397  3.0181 -1.6125  0.7477
   45MOL   H18016108   2.249   6.483   1.263 -0.2306  1.1599  0.0772
   45MOL   H18116109   2.190   6.437   1.418  1.1892 -0.2883 -0.1751
   45MOL   C18216110   1.967   6.964   1.429 -0.1855  0.4607  0.3623
   45MOL   C18316111   1.961   6.857   1.545  0.2920  0.2077 -0.0229
   45MOL   C18416112   1.830   6.785   1.566  0.6465  0.3660 -0.4864
   45MOL   C18516113   1.705   6.867   1.623 -0.4617  0.0779  0.2574
   45MOL   C18616114   1.587   6.773   1.650  0.2638  0.0894  0.0982
   45MOL   C18716115   1.453   6.853   1.670 -0.5583 -0.1852  0.3043
   45MOL   H18816116   2.061   7.018   1.443  0.2951 -1.1384  3.6294
   45MOL   H18916117   1.890   7.040   1.442 -1.2577 -0.8690  2.0127
   45MOL   H19016118   2.038   6.781   1.529 -0.5163 -0.0803 -2.7545
   45MOL   H19116119   1.810   6.740   1.469 -0.4030  1.4743 -0.7958
   45MOL   H19216120   1.847   6.708   1.641  0.5425  0.3865 -0.4401
   45MOL   H19316121   1.678   6.940   1.546  1.0066  0.1803 -0.1740
   45MOL   H19416122   1.722   6.932   1.710 -1.4599  0.0445  0.4799
   45MOL   H19516123   1.600   6.710   1.738  1.2512 -0.3181 -0.3398
   45MOL   H19616124   1.571   6.702   1.569  2.0280  1.9886 -2.0185
   45MOL   H19716125   1.456   6.904   1.767 -0.3852  0.5046 -0.0622
   45MOL   H19816126   1.367   6.787   1.674 -1.2472  0.5603 -1.7063
   45MOL   H19916127   1.444   6.916   1.582  1.4049  0.5183  0.5732
   45MOL   C20016128   2.003   6.941   1.672 -0.3289  0.8471  0.5714
   45MOL   C20116129   2.011   6.865   1.805 -0.1553  1.0472  0.1577
   45MOL   C20216130   2.097   6.741   1.803 -0.2985  0.1478  0.3774
   45MOL   C20316131   2.245   6.760   1.781 -0.1924  0.0843  0.1047
   45MOL   C20416132   2.321   6.628   1.748  0.3021  0.1465 -0.6265
   45MOL   C20516133   2.471   6.621   1.754  0.6861  0.6447  0.6539
   45MOL   H20616134   1.929   7.019   1.686 -0.2103  0.5658  3.0225
   45MOL   H20716135   2.094   6.998   1.652  0.1039  0.2104  0.6895
   45MOL   H20816136   1.910   6.835   1.833  0.0958  0.3824  0.3449
   45MOL   H20916137   2.054   6.673   1.729 -0.8407  0.2408  0.6043
   45MOL   H21016138   2.075   6.690   1.897 -0.7899 -0.5716 -0.1201
   45MOL   H21116139   2.291   6.807   1.868  1.5806  1.6960 -1.6542
   45MOL   H21216140   2.262   6.838   1.707 -0.6028  0.3774  0.3172
   45MOL   H21316141   2.274   6.573   1.666 -0.0284 -0.2360 -0.1825
   45MOL   H21416142   2.287   6.566   1.831 -1.1078 -0.0586 -1.3454
   45MOL   H21516143   2.494   6.614   1.860 -0.6362 -0.0328  0.9108
   45MOL   H21616144   2.507   6.526   1.714 -2.5145 -0.9816  1.4740
   45MOL   H21716145   2.512   6.705   1.697  0.5396 -0.4926 -1.1812
   45MOL   C21816146   2.052   6.970   1.912  0.3564 -0.4973 -0.3928
   45MOL   C21916147   2.059   6.938   2.063  0.2833  0.5986 -0.1548
   45MOL   C22016148   1.920   6.909   2.120  0.9648 -0.0819 -0.1912
   45MOL   C22116149   1.920   6.836   2.257 -0.1921 -0.4462 -0.8279
   45MOL   C22216150   1.998   6.695   2.260 -0.0380 -0.1920 -0.3135
   45MOL   C22316151   1.984   6.624   2.400 -0.3511 -0.2535 -0.2494
   45MOL   H22416152   2.147   7.010   1.877 -0.1890  0.6347 -0.5925
   45MOL   H22516153   2.001   7.066   1.900 -1.8133 -1.4002  1.3274
   45MOL   H22616154   2.111   6.843   2.068 -0.8255 -0.0989 -1.7130
   45MOL   H22716155   1.858   6.860   2.045 -0.7408  2.8784 -0.7794
   45MOL   H22816156   1.871   7.006   2.123  0.7933 -0.1862  0.4017
   45MOL   H22916157   1.817   6.823   2.291 -1.7206  2.0542 -4.1622
   45MOL   H23016158   1.962   6.895   2.338  2.4840 -3.8691  0.3670
   45MOL   H23116159   1.960   6.635   2.178 -0.5315  0.3811 -0.5127
   45MOL   H23216160   2.107   6.702   2.256 -0.1434  2.5647  0.6877
   45MOL   H23316161   2.007   6.518   2.409 -1.8390 -0.5876 -0.2845
   45MOL   H23416162   1.880   6.634   2.431 -0.3991 -0.4020 -0.3644
   45MOL   H23516163   2.048   6.680   2.469 -1.4920  1.4238 -0.5153
   45MOL   C23616164   2.139   7.047   2.156 -0.0909 -0.6144 -0.4272
   45MOL   C23716165   2.289   7.068   2.127 -0.4984  0.1579 -0.1479
   45MOL   C23816166   2.367   6.948   2.189 -0.0653 -0.1500 -0.9217
   45MOL   C23916167   2.517   6.946   2.138  0.0084  0.3092 -0.4383
   45MOL   C24016168   2.599   6.832   2.211  0.1353  0.4053 -0.2898
   45MOL   C24116169   2.565   6.690   2.159  0.7935  0.1534  0.4213
   45MOL   H24216170   2.081   7.136   2.131  1.7927  0.5104 -0.8168
   45MOL   H24316171   2.119   7.020   2.260  0.0311 -0.6990 -0.4262
   45MOL   H24416172   2.304   7.058   2.020  2.9311 -0.1826  0.3120
   45MOL   H24516173   2.346   6.946   2.296 -2.5808  2.4175 -1.3178
   45MOL   H24616174   2.327   6.851   2.160 -0.6095  0.8251 -3.5708
   45MOL   H24716175   2.557   7.044   2.161 -0.8981  0.8150 -1.0102
   45MOL   H24816176   2.516   6.941   2.029  0.7584  0.8537 -0.4666
   45MOL   H24916177   2.700   6.864   2.183  0.6338 -2.3313 -1.7461
   45MOL   H25016178   2.585   6.839   2.319  0.3340  0.5605 -0.2737
   45MOL   H25116179   2.589   6.669   2.055 -1.2595  1.2463 -0.3061
   45MOL   H25216180   2.604   6.609   2.221  1.2198  0.3346  0.3931
   45MOL   H25316181   2.458   6.671   2.168  0.5968  1.1622  0.3142
   45MOL   C25416182   2.334   7.192   2.188  0.3101  0.0548  0.2027
   45MOL   C25516183   2.403   7.280   2.081  0.0714  0.2912 -0.5450
   45MOL   C25616184   2.504   7.381   2.147  0.9302 -0.3924  0.0663
   45MOL   C25716185   2.440   7.469   2.253  0.8163  0.4766 -0.7993
   45MOL   C25816186   2.515   7.598   2.290  0.0697  0.2256  0.3545
   45MOL   C25916187   2.479   7.709   2.190 -0.3672 -0.7805 -0.5986
   45MOL   H26016188   2.404   7.180   2.271  0.5529  3.0447  0.5089
   45MOL   H26116189   2.249   7.239   2.237  0.6195  1.8617 -0.9405
   45MOL   H26216190   2.473   7.222   2.020  0.4859 -0.1609  0.3542
   45MOL   H26316191   2.581   7.318   2.191 -1.0704 -2.5679  0.5123
   45MOL   H26416192   2.550   7.439   2.067  0.1266  0.5048  0.2468
   45MOL   H26516193   2.336   7.492   2.232  0.9427  1.6668 -0.1942
   45MOL   H26616194   2.423   7.406   2.341  1.1011  1.6592  0.1127
   45MOL   H26716195   2.618   7.575   2.317 -0.6479 -1.6847  1.5708
   45MOL   H26816196   2.460   7.634   2.376  0.2317 -0.8802  0.9227
   45MOL   H26916197   2.371   7.725   2.184 -0.1997  1.1499  0.9879
   45MOL   H27016198   2.530   7.702   2.094  0.2879  0.1064 -0.3203
   45MOL   H27116199   2.520   0.080   2.213 -1.3022 -0.1229 -1.6567
   45MOL   C27216200   2.297   7.344   1.987 -0.4062 -0.4746  0.1067
   45MOL   C27316201   2.352   7.377   1.848  0.2362 -0.2585  0.2394
   45MOL   C27416202   2.293   7.492   1.782  0.8531  0.2886 -0.2419
   45MOL   C27516203   2.333   7.630   1.832  0.1648 -0.6207  0.1319
   45MOL   C27616204   2.263   0.028   1.774  0.3864 -0.3298 -0.6269
   45MOL   C27716205   2.333   0.152   1.814  0.1361 -0.8674 -0.1728
   45MOL   H27816206   2.214   7.278   1.960  0.0852 -1.5358  1.1153
   45MOL   H27916207   2.260   7.432   2.039  1.1575 -0.8475  1.9153
   45MOL   H28016208   2.458   7.403   1.859  0.3932 -0.8823  0.1870
   45MOL   H28116209   2.184   7.488   1.776  0.7391  0.8330  1.1713
   45MOL   H28216210   2.313   7.482   1.675 -0.4438  1.3189 -0.5930
   45MOL   H28316211   2.437   7.642   1.802 -0.0383  0.1255 -0.2798
   45MOL   H28416212   2.321   7.641   1.940  1.8305 -0.9635  0.3694
   45MOL   H28516213   2.242   0.015   1.668  0.4699  2.3349 -1.0029
   45MOL   H28616214   2.165   0.026   1.822  0.5309 -1.3142 -0.3575
   45MOL   H28716215   2.426   0.156   1.757 -1.7822 -0.2418 -3.4130
   45MOL   H28816216   2.281   0.247   1.805  0.1268 -0.8087  0.4993
   45MOL   H28916217   2.339   0.142   1.922 -1.0860 -3.1675 -0.2818
   45MOL   C29016218   2.336   7.248   1.756 -0.3013 -0.0321  0.1555
   45MOL   C29116219   2.432   7.242   1.637 -0.1054 -0.2609  0.5307
   45MOL   C29216220   2.568   7.214   1.689  0.0967 -0.1494 -0.2131
   45MOL   C29316221   2.599   7.064   1.726  0.1660 -0.2026 -0.1944
   45MOL   C29416222   2.731   7.037   1.804 -0.4126  0.2500 -0.6338
   45MOL   C29516223   2.746   6.885   1.829 -0.4101 -0.2294  0.4150
   45MOL   H29616224   2.230   7.246   1.730 -0.6887 -0.2600  1.6816
   45MOL   H29716225   2.340   7.153   1.809  0.8976  0.1519  0.3926
   45MOL   H29816226   2.429   7.343   1.597  0.7466 -0.1616  0.7145
   45MOL   H29916227   2.599   7.274   1.774 -1.4538  0.6638 -0.2114
   45MOL   H30016228   2.632   7.239   1.604  0.7667 -1.6902 -0.1918
   45MOL   H30116229   2.523   7.015   1.788 -1.0893  0.7401 -0.9457
   45MOL   H30216230   2.613   7.016   1.629 -0.8941 -0.0847 -0.4132
   45MOL   H30316231   2.729   7.085   1.902 -0.1384 -1.7279  0.3595
   45MOL   H30416232   2.813   7.081   1.747  0.7917 -1.5907 -0.3879
   45MOL   H30516233   2.696   6.839   1.913  1.0927 -0.7128  1.0619
   45MOL   H30616234   2.853   6.869   1.843  0.2610  3.3269 -0.2417
   45MOL   H30716235   2.716   6.821   1.745 -1.1290  0.7045 -0.0456
   45MOL   C30816236   2.380   7.144   1.524  0.7973  0.3042 -0.1913
   45MOL   C30916237   2.361   7.205   1.384  0.2442  0.5745 -0.1595
   45MOL   C31016238   2.238   7.292   1.372  0.7531  0.9692 -0.5307
   45MOL   C31116239   2.238   7.400   1.256 -0.6337 -0.3442  0.3333
   45MOL   C31216240   2.111   7.485   1.242  0.2878  0.0110  0.0612
   45MOL   C31316241   2.134   7.591   1.135 -0.2047  0.2038  0.1744
   45MOL   H31416242   2.447   7.058   1.512  0.0628  0.0742 -2.9009
   45MOL   H31516243   2.289   7.099   1.563  2.1482 -1.4147  1.0798
   45MOL   H31616244   2.453   7.263   1.374  1.0073 -0.6573 -0.3386
   45MOL   H31716245   2.232   7.350   1.464  0.9134 -3.4581  2.4451
   45MOL   H31816246   2.155   7.222   1.370  1.4688  0.0930 -0.1598
   45MOL   H31916247   2.267   7.354   1.161  0.5923  1.8069 -0.3704
   45MOL   H32016248   2.319   7.472   1.271 -0.9504 -0.0287  0.5247
   45MOL   H32116249   2.023   7.422   1.225  0.6702 -0.4125 -0.3267
   45MOL   H32216250   2.092   7.540   1.335 -0.3660 -0.3519  0.1481
   45MOL   H32316251   2.169   7.532   1.051  2.6372  2.1843 -0.1058
   45MOL   H32416252   2.206   7.671   1.153  0.2345  0.7418 -3.5407
   45MOL   H32516253   2.035   7.633   1.120 -0.5559 -1.0205 -1.0597
   45MOL   C32616254   2.355   7.086   1.277 -0.1799  0.3890  0.2765
   45MOL   C32716255   2.484   7.069   1.194 -0.2761 -0.2610  0.2138
   45MOL   C32816256   2.498   6.930   1.128 -0.3612  1.0493 -0.6865
   45MOL   C32916257   2.527   6.809   1.212 -0.9209 -0.6733  0.5126
   45MOL   C33016258   2.676   6.800   1.274  0.8036 -0.4425  0.2179
   45MOL   C33116259   2.693   6.685   1.371  0.3353 -1.0841  0.5302
   45MOL   H33216260   2.276   7.094   1.203 -1.1254  2.0453  1.4277
   45MOL   H33316261   2.331   6.995   1.332  0.7669  0.2474  0.4800
   45MOL   H33416262   2.574   7.069   1.256 -0.4982  1.5047  0.5674
   45MOL   H33516263   2.401   6.916   1.082 -0.8961  3.7535 -0.4929
   45MOL   H33616264   2.557   6.926   1.036 -0.8977  0.0272 -0.9874
   45MOL   H33716265   2.517   6.719   1.151 -1.3909 -0.9017  0.9174
   45MOL   H33816266   2.453   6.806   1.292  0.6888 -2.1687  2.0155
   45MOL   H33916267   2.744   6.787   1.189 -0.2412 -1.6460 -0.4545
   45MOL   H34016268   2.693   6.888   1.336 -2.3325 -0.4520  1.1700
   45MOL   H34116269   2.725   6.591   1.326  0.8252 -0.8264  0.3305
   45MOL   H34216270   2.603   6.671   1.431  1.4378 -1.5659  2.1081
   45MOL   H34316271   2.778   6.704   1.436  1.0225 -1.3249 -0.2910
   45MOL   C34416272   2.494   7.173   1.080  0.9682 -0.5101  0.3001
   45MOL   C34516273   2.630   7.167   1.007  0.4155  0.0742  0.4093
   45MOL   C34616274   2.663   7.302   0.930 -0.0535  0.2503  0.1648
   45MOL   C34716275   2.810   7.302   0.868  0.7512 -0.2591 -0.2271
   45MOL   C34816276   2.840   7.445   0.806  0.1466  0.5174  0.1772
   45MOL   C34916277   2.990   7.475   0.787 -0.5562  0.1493  0.3035
   45MOL   H35016278   2.412   7.166   1.008 -0.5839  0.0215  1.9778
   45MOL   H35116279   2.485   7.269   1.131 -1.7908  0.0940 -1.1978
   45MOL   H35216280   2.634   7.097   0.924  1.4272  0.0698  0.4503
   45MOL   H35316281   2.584   7.328   0.859 -0.6401  1.2473  1.1531
   45MOL   H35416282   2.655   7.383   1.003 -0.1518  0.2622  0.1409
   45MOL   H35516283   2.887   7.275   0.940 -0.7534 -2.4530  0.6201
   45MOL   H35616284   2.812   7.227   0.789 -0.6412 -0.6869  0.1164
   45MOL   H35716285   2.790   7.448   0.709  2.4445  4.7763 -0.9886
   45MOL   H35816286   2.799   7.522   0.871 -1.3412 -0.1964  0.1074
   45MOL   H35916287   3.046   7.485   0.880  0.3276 -0.6089 -0.1398
   45MOL   H36016288   3.026   7.384   0.740 -0.3095  0.4558 -0.1024
   45MOL   H36116289   3.022   7.555   0.720 -0.2161  0.9258  1.3851
   45MOL   H36216290   2.718   7.152   1.070  2.9055  1.1889 -2.6706
   46MOL     C116291   6.653   3.918   0.123  0.2937  0.8082 -0.6659
   46MOL     C216292   6.524   3.996   0.099 -0.1990 -0.0749  0.3888
   46MOL     C316293   6.502   4.106   0.205  0.3945  0.6245 -0.0513
   46MOL     C416294   6.627   4.196   0.215  0.5818  0.3006 -0.5824
   46MOL     C516295   6.603   4.317   0.306 -0.5062  0.7919  0.3544
   46MOL     C616296   6.588   4.281   0.452  0.1599  0.1974  0.0164
   46MOL     H716297   6.645   3.828   0.062 -1.9347 -1.4938  2.8534
   46MOL     H816298   6.739   3.977   0.090  3.0776 -3.3311 -1.2744
   46MOL     H916299   6.536   4.047   0.004  0.7032 -0.3126  0.3734
   46MOL    H1016300   6.500   4.053   0.300 -2.2666 -0.6833 -0.7903
   46MOL    H1116301   6.408   4.155   0.179  0.0911 -0.5315 -1.2097
   46MOL    H1216302   6.657   4.223   0.114  2.2473  0.0486 -0.1769
   46MOL    H1316303   6.707   4.143   0.266 -1.3615 -1.8622  0.2890
   46MOL    H1416304   6.687   4.385   0.290 -0.3427  0.9058  1.6627
   46MOL    H1516305   6.511   4.361   0.268 -1.0427 -0.7615 -0.1654
   46MOL    H1616306   6.509   4.212   0.482  1.1288 -1.0180 -0.1910
   46MOL    H1716307   6.573   4.373   0.508 -0.9858  0.5706 -0.8621
   46MOL    H1816308   6.680   4.236   0.488 -0.8818 -0.7374  1.5611
   46MOL    H1916309   6.658   3.894   0.229  1.9002  0.4633 -0.8019
   46MOL    C2016310   6.395   3.909   0.082  0.1706  0.3505  0.4722
   46MOL    C2116311   6.400   3.818   7.678  0.8106  0.8718  0.1553
   46MOL    C2216312   6.469   3.682   7.706  0.4407 -0.5048  0.2127
   46MOL    C2316313   6.582   3.639   7.608 -0.4839 -0.0606 -0.4123
   46MOL    C2416314   6.536   3.603   7.464  0.4231  0.8716 -0.3306
   46MOL    C2516315   6.658   3.580   7.388  0.2120  0.0600  0.1546
   46MOL    H2616316   6.308   3.975   0.084 -0.8247 -0.9313 -0.3547
   46MOL    H2716317   6.387   3.849   0.173  2.3250  3.3614  2.7739
   46MOL    H2816318   6.465   3.869   7.607  0.6053  0.1116 -0.5855
   46MOL    H2916319   6.401   3.601   0.003 -0.0539 -0.6042 -1.4332
   46MOL    H3016320   6.523   3.687   0.073  2.9346  0.3840 -1.2381
   46MOL    H3116321   6.636   3.550   7.640 -1.0814  0.2109  1.3686
   46MOL    H3216322   6.658   3.715   7.594 -0.9493  0.4063 -0.4308
   46MOL    H3316323   6.476   3.512   7.473  2.2325 -0.3045  0.0042
   46MOL    H3416324   6.471   3.673   7.411  0.3590 -0.4265 -2.0227
   46MOL    H3516325   6.715   3.673   7.395  0.0681  0.2194 -0.7544
   46MOL    H3616326   6.713   3.496   7.431 -1.6165 -1.6468 -0.7652
   46MOL    H3716327   6.644   3.557   7.282  3.4354  1.4562 -0.6619
   46MOL    C3816328   6.260   3.802   7.610 -0.0830 -0.3160  0.2443
   46MOL    C3916329   6.213   3.931   7.540 -0.0456  0.3134 -0.6614
   46MOL    C4016330   6.302   3.965   7.413  0.7021 -0.8981 -0.1340
   46MOL    C4116331   6.300   4.119   7.384  0.2736  0.8841 -0.4427
   46MOL    C4216332   6.378   4.149   7.251  0.3712  0.0259 -0.4348
   46MOL    C4316333   6.343   4.289   7.205  0.0373  0.0684 -0.8194
   46MOL    H4416334   6.174   3.791   7.677  1.2832  0.5249  2.2084
   46MOL    H4516335   6.256   3.722   7.536 -1.1624  0.5686 -0.6784
   46MOL    H4616336   6.232   4.007   7.616 -1.3695 -0.0653  0.0554
   46MOL    H4716337   6.403   3.928   7.425  0.7766 -0.6463  0.0161
   46MOL    H4816338   6.273   3.914   7.321  0.3246  0.0250 -0.5328
   46MOL    H4916339   6.199   4.157   7.376  0.2509  0.6386 -1.3613
   46MOL    H5016340   6.341   4.178   7.466 -0.1230  0.7359 -0.1348
   46MOL    H5116341   6.487   4.147   7.261  0.3063  1.6873  0.9624
   46MOL    H5216342   6.355   4.082   7.168 -0.0212  0.1427 -0.4186
   46MOL    H5316343   6.372   4.371   7.271 -1.8677 -0.0511  0.1899
   46MOL    H5416344   6.235   4.299   7.194  0.3492  2.6317 -1.8574
   46MOL    H5516345   6.398   4.300   7.112  0.6851  0.1640 -0.4343
   46MOL    C5616346   6.067   3.934   7.499 -0.5635  0.2791 -0.2311
   46MOL    C5716347   5.970   3.988   7.614  0.3046  0.3845  0.5690
   46MOL    C5816348   5.842   3.903   7.617 -0.6767 -0.7864  1.5017
   46MOL    C5916349   5.746   3.921   7.500  0.1317 -0.4406  0.1201
   46MOL    C6016350   5.611   3.846   7.528  0.3806  0.3779 -0.9095
   46MOL    C6116351   5.517   3.845   7.414 -0.0790 -0.0776 -0.2193
   46MOL    H6216352   6.043   3.989   7.408 -2.8110 -0.5107 -0.1316
   46MOL    H6316353   6.029   3.836   7.471  0.9419  0.2931 -2.4982
   46MOL    H6416354   6.025   3.959   7.703 -0.9471 -1.2311  0.8440
   46MOL    H6516355   5.878   3.800   7.622 -1.9197 -1.1492  3.3708
   46MOL    H6616356   5.784   3.926   7.706 -2.0387 -2.1507  0.9991
   46MOL    H6716357   5.788   3.891   7.403  0.3114 -0.4310  0.1942
   46MOL    H6816358   5.722   4.026   7.485  2.1689 -0.2500 -2.1960
   46MOL    H6916359   5.635   3.743   7.552 -1.7054  0.7425  3.2559
   46MOL    H7016360   5.561   3.888   7.616  2.4284  3.5255 -1.1452
   46MOL    H7116361   5.545   3.767   7.343  3.6013  1.8825 -1.0372
   46MOL    H7216362   5.413   3.835   7.447  0.0711  1.2003  0.6937
   46MOL    H7316363   5.529   3.931   7.349  0.9755 -1.4748 -1.9092
   46MOL    C7416364   5.959   4.139   7.596  0.1675  0.0817 -0.6557
   46MOL    C7516365   5.884   4.221   7.707  0.5160 -0.1890 -0.3632
   46MOL    C7616366   5.937   4.177   0.119 -0.9660 -0.5806 -0.5222
   46MOL    C7716367   5.883   4.240   0.240  0.1472 -0.6365  0.2037
   46MOL    C7816368   5.727   4.234   0.261 -0.0211  0.2342  0.1003
   46MOL    C7916369   5.681   4.319   0.378 -0.0493 -0.3762 -0.2250
   46MOL    H8016370   6.059   4.181   7.583  0.7302 -1.2848 -0.8460
   46MOL    H8116371   5.909   4.156   7.500 -1.7063  0.5758  0.3890
   46MOL    H8216372   5.777   4.204   7.700  0.2485  1.0297  0.6213
   46MOL    H8316373   5.936   4.069   0.130 -2.3649 -0.5346 -0.1830
   46MOL    H8416374   6.042   4.205   0.120 -1.4393  1.2347  0.9582
   46MOL    H8516375   5.932   4.192   0.325 -0.4814 -2.0995 -0.2321
   46MOL    H8616376   5.912   4.344   0.253  0.4477 -0.9702  2.2951
   46MOL    H8716377   5.697   4.132   0.287  0.9384  0.0020  0.2899
   46MOL    H8816378   5.676   4.258   0.168  0.3708 -4.8614 -1.5657
   46MOL    H8916379   5.697   4.425   0.362  2.1945 -0.7419 -0.4664
   46MOL    H9016380   5.579   4.294   0.407 -1.0162  0.6025 -2.5884
   46MOL    H9116381   5.742   4.292   0.464  0.8276  0.8572 -0.4538
   46MOL    C9216382   5.893   4.373   7.672  0.0259  0.0499 -0.4060
   46MOL    C9316383   5.855   4.422   7.527  0.2110  0.5901 -0.0810
   46MOL    C9416384   5.708   4.384   7.486  0.3597 -0.0888  0.1410
   46MOL    C9516385   5.592   4.426   7.579  0.0027 -0.1311  0.0714
   46MOL    C9616386   5.454   4.409   7.520  0.5886  0.0328  0.3738
   46MOL    C9716387   5.346   4.473   7.618 -0.0909  0.5291 -0.6578
   46MOL    H9816388   5.832   4.413   0.025  0.7018 -1.2862  0.8009
   46MOL    H9916389   5.995   4.404   7.694  0.1445 -0.1441 -0.6694
   46MOL   H10016390   5.917   4.374   7.452 -0.3612 -0.5784  0.1847
   46MOL   H10116391   5.701   4.276   7.476 -0.1893 -0.2020  1.5826
   46MOL   H10216392   5.694   4.433   7.390  2.3274  0.2564  0.0057
   46MOL   H10316393   5.593   4.368   7.671 -0.0831  0.0610  0.1934
   46MOL   H10416394   5.612   4.528   7.611  0.4678 -0.5633  1.1963
   46MOL   H10516395   5.439   4.446   7.419 -1.2263  1.1215  1.0079
   46MOL   H10616396   5.425   4.305   7.515  1.0075  0.0276 -2.4316
   46MOL   H10716397   5.369   4.576   7.644 -0.3494  0.0870  1.3644
   46MOL   H10816398   5.241   4.474   7.589 -0.2708  2.0983  0.0429
   46MOL   H10916399   5.351   4.427   7.716  0.7323  0.7804 -0.5721
   46MOL   C11016400   5.874   4.582   7.508 -0.6912  0.0227 -0.4414
   46MOL   C11116401   5.994   4.634   7.428  0.4055 -0.3591 -0.3089
   46MOL   C11216402   5.985   4.588   7.281 -0.4832 -0.5108  0.4037
   46MOL   C11316403   6.091   4.650   7.182 -0.6590  0.2590  0.2846
   46MOL   C11416404   6.104   4.590   7.044 -0.9490 -0.2332  0.9964
   46MOL   C11516405   6.215   4.655   6.964  1.1008 -0.5897  0.2454
   46MOL   H11616406   5.782   4.615   7.459 -1.5553  0.0917  1.2190
   46MOL   H11716407   5.864   4.630   7.605 -0.0813 -0.2950 -0.2184
   46MOL   H11816408   5.992   4.743   7.429 -1.3057 -0.3842 -0.1665
   46MOL   H11916409   5.883   4.585   7.241  0.8049 -2.7304 -2.9340
   46MOL   H12016410   6.008   4.482   7.289  2.8413  0.1078 -0.1866
   46MOL   H12116411   6.188   4.631   7.227 -0.0542 -0.7992 -1.4163
   46MOL   H12216412   6.076   4.757   7.175  2.0884  0.6707  0.3594
   46MOL   H12316413   6.013   4.599   6.986  0.7146  0.0263 -1.6674
   46MOL   H12416414   6.125   4.486   7.069 -2.1831 -0.4247  1.2531
   46MOL   H12516415   6.231   4.606   6.868  0.4093  1.7419 -1.1151
   46MOL   H12616416   6.196   4.759   6.936 -1.0246 -0.7706  0.9231
   46MOL   H12716417   6.314   4.658   7.009  0.9369  1.0970  0.5426
   46MOL   C12816418   6.128   4.591   7.499  0.7687  0.6296 -0.0668
   46MOL   C12916419   6.141   4.655   7.643 -0.2319  0.1672  0.2696
   46MOL   C13016420   6.133   4.813   7.648 -0.8589  0.3361  0.4157
   46MOL   C13116421   5.997   4.867   7.717  0.1690  0.1758  0.3176
   46MOL   C13216422   5.996   4.851   0.143  0.0697  0.1792  0.9497
   46MOL   C13316423   5.866   4.917   0.186 -0.0158 -0.0891  0.7137
   46MOL   H13416424   6.212   4.625   7.439  0.1621  2.6444  0.1828
   46MOL   H13516425   6.134   4.482   7.503  2.0661  0.6618 -0.9110
   46MOL   H13616426   6.057   4.609   7.693 -0.2615  0.4683  0.4982
   46MOL   H13716427   6.216   4.857   7.703 -1.1094  0.6667  0.5300
   46MOL   H13816428   6.150   4.852   7.548 -0.4489 -1.6614 -0.3182
   46MOL   H13916429   5.907   4.828   7.671  0.2759 -0.6595  0.8138
   46MOL   H14016430   6.003   4.971   7.685  2.5596  0.0670  0.3399
   46MOL   H14116431   5.997   4.745   0.169 -1.0367 -0.2622 -0.7155
   46MOL   H14216432   6.078   4.907   0.188  1.5335 -1.7263  0.6783
   46MOL   H14316433   5.862   4.926   0.295  1.2466 -1.2739  0.8824
   46MOL   H14416434   5.780   4.862   0.148 -0.2700  1.3017 -0.7667
   46MOL   H14516435   5.855   5.018   0.147 -0.1684 -0.6139 -0.6344
   46MOL   C14616436   6.263   4.603   7.717  0.0122  0.3599 -0.2712
   46MOL   C14716437   6.403   4.654   7.669 -0.0744 -0.7459 -0.0967
   46MOL   C14816438   6.473   4.557   7.568  0.3764 -1.2423  0.0320
   46MOL   C14916439   6.534   4.627   7.442 -0.2799  0.2647 -0.0279
   46MOL   C15016440   6.623   4.530   7.361 -0.2857  0.3723 -0.1468
   46MOL   C15116441   6.690   4.583   7.230 -0.3037 -0.0144 -0.2245
   46MOL   H15216442   6.245   4.637   0.092  0.3927 -0.7044  0.1551
   46MOL   H15316443   6.258   4.494   7.719 -0.5112  0.3967  3.2011
   46MOL   H15416444   6.378   4.748   7.620  0.9492 -1.3023 -1.7660
   46MOL   H15516445   6.397   4.485   7.538  0.9845 -1.9368  0.1264
   46MOL   H15616446   6.534   4.487   7.626 -1.8794 -1.6676  1.9407
   46MOL   H15716447   6.457   4.676   7.383  0.8306  0.8184 -1.0284
   46MOL   H15816448   6.614   4.697   7.467  0.1413 -0.9176  1.9940
   46MOL   H15916449   6.561   4.441   7.344 -1.8287  0.9024  2.4329
   46MOL   H16016450   6.691   4.489   7.436 -0.7190  0.2315  0.1723
   46MOL   H16116451   6.746   4.505   7.179  2.0686  0.2887  1.8067
   46MOL   H16216452   6.614   4.620   7.161  0.1153  1.1049 -0.1046
   46MOL   H16316453   6.751   4.671   7.250 -1.4527  0.8349 -0.3725
   46MOL   C16416454   6.498   4.701   0.053 -0.3250 -0.5633 -0.3270
   46MOL   C16516455   6.608   4.804   0.019  0.5758  0.5551 -0.6068
   46MOL   C16616456   6.550   4.935   7.692 -0.1418 -0.1568  1.0936
   46MOL   C16716457   6.472   5.008   0.069  0.3929 -0.4038 -0.1749
   46MOL   C16816458   6.467   5.162   0.055  0.3051 -0.0928 -1.0005
   46MOL   C16916459   6.466   5.217   0.198  0.1612 -0.5015  0.4881
   46MOL   H17016460   6.443   4.733   0.141 -0.0451 -1.1250  0.0566
   46MOL   H17116461   6.552   4.614   0.090 -1.6956 -0.7869  1.2326
   46MOL   H17216462   6.656   4.770   7.654  0.0830 -0.9248 -0.3356
   46MOL   H17316463   6.493   4.914   7.602 -0.1971  2.0700  0.5948
   46MOL   H17416464   6.640   4.992   7.673 -0.7116 -0.2434 -2.0172
   46MOL   H17516465   6.508   4.985   0.169  0.0096  0.7200  0.2268
   46MOL   H17616466   6.372   4.966   0.064  0.5796 -0.7188 -1.2777
   46MOL   H17716467   6.375   5.198   0.010  1.2891  2.1923 -1.2121
   46MOL   H17816468   6.550   5.208   0.002 -1.2109  0.0086 -3.3308
   46MOL   H17916469   6.456   5.325   0.186 -0.2133 -0.6055 -0.1325
   46MOL   H18016470   6.552   5.197   0.262  0.8633 -1.5266 -0.7536
   46MOL   H18116471   6.379   5.187   0.256 -1.5997  0.1651 -1.7325
   46MOL   C18216472   6.711   4.825   0.134 -0.2680 -0.0258 -0.2635
   46MOL   C18316473   6.817   4.716   0.152  0.0265 -0.3819 -0.1688
   46MOL   C18416474   6.869   4.707   0.298  0.4098  0.4224  0.0771
   46MOL   C18516475   6.933   4.837   0.354  0.0556 -0.4685 -0.5215
   46MOL   C18616476   7.019   4.810   0.482 -0.0020 -0.1963  0.2220
   46MOL   C18716477   7.077   4.938   0.543  0.6267 -0.2341 -0.0304
   46MOL   H18816478   6.769   4.916   0.120 -2.4730  1.1462 -2.2195
   46MOL   H18916479   6.658   4.850   0.226  0.0373  0.3262 -0.1832
   46MOL   H19016480   6.750   4.632   0.131 -2.1360  1.1392  0.5452
   46MOL   H19116481   6.782   4.693   0.361  0.9847  2.2211  1.3057
   46MOL   H19216482   6.930   4.619   0.316  0.8938  0.4389 -1.3729
   46MOL   H19316483   6.862   4.917   0.373  0.4757 -0.7610  2.5186
   46MOL   H19416484   6.999   4.868   0.272  1.7187 -0.2325  0.8830
   46MOL   H19516485   7.092   4.730   0.471  0.7447  0.1227  2.6517
   46MOL   H19616486   6.950   4.766   0.553 -0.6120 -2.0403 -1.4893
   46MOL   H19716487   7.009   5.022   0.534 -1.0639 -1.4348  1.3772
   46MOL   H19816488   7.168   4.969   0.491  0.3216  1.9406  0.6640
   46MOL   H19916489   7.110   4.925   0.646 -2.7183  0.0314  1.1191
   46MOL   C20016490   6.915   4.715   0.034 -0.4352  0.0326 -0.5118
   46MOL   C20116491   7.036   4.612   0.048  0.4001 -0.2154  0.2922
   46MOL   C20216492   6.988   4.468   0.042 -0.7080 -0.5068  0.1978
   46MOL   C20316493   7.097   4.368   0.088  1.2708 -0.3067 -0.0713
   46MOL   C20416494   7.053   4.235   0.155  0.4503 -0.2377 -0.6890
   46MOL   C20516495   6.958   4.166   0.054  0.5174 -0.3991  0.1403
   46MOL   H20616496   6.944   4.818   0.015 -2.2580  0.1309 -2.9455
   46MOL   H20716497   6.858   4.681   7.674 -0.8787 -1.2075  0.2476
   46MOL   H20816498   7.068   4.623   0.152  0.9104 -1.9788  0.3343
   46MOL   H20916499   6.967   4.438   7.667  1.2975 -0.4900 -0.2431
   46MOL   H21016500   6.900   4.455   0.105 -0.9027 -0.1495 -0.0027
   46MOL   H21116501   7.160   4.427   0.155  0.9911  0.7381 -0.7096
   46MOL   H21216502   7.164   4.335   0.009  0.7020  0.8588 -1.0464
   46MOL   H21316503   6.999   4.251   0.248 -0.8181 -4.0614 -0.6986
   46MOL   H21416504   7.144   4.178   0.170  0.5685  0.2208  0.3288
   46MOL   H21516505   7.001   4.164   7.681 -0.7342 -0.0757 -0.4107
   46MOL   H21616506   6.944   4.064   0.091 -1.5454  0.2220  1.1532
   46MOL   H21716507   6.862   4.215   0.039  0.4085 -0.0318  1.8757
   46MOL   C21816508   7.166   4.658   7.690 -0.2806 -0.0602  0.4194
   46MOL   C21916509   7.142   4.694   7.541  1.0835  0.4326  0.4556
   46MOL   C22016510   7.119   4.567   7.453 -0.1329 -1.2373 -0.1031
   46MOL   C22116511   7.231   4.465   7.440 -0.2792  0.3485  0.5377
   46MOL   C22216512   7.218   4.358   7.325  0.9258  0.1067 -0.5051
   46MOL   C22316513   7.105   4.256   7.355 -0.0363 -0.3113 -0.0483
   46MOL   H22416514   7.202   4.743   0.020  0.8591 -0.3628  0.1545
   46MOL   H22516515   7.238   4.576   7.693  0.7741  0.8651  0.5845
   46MOL   H22616516   7.046   4.746   7.538 -1.0074 -3.3828 -1.1919
   46MOL   H22716517   7.084   4.601   7.355  1.2389 -0.2038 -0.2471
   46MOL   H22816518   7.030   4.509   7.477 -1.3441  0.3738 -0.5787
   46MOL   H22916519   7.247   4.417   7.536  0.8539  0.4686  0.4187
   46MOL   H23016520   7.324   4.518   7.419  0.7279 -0.7859  2.0022
   46MOL   H23116521   7.204   4.405   7.228 -1.1597  0.7656  0.0987
   46MOL   H23216522   7.321   4.322   7.322  0.6879 -0.6276  0.1262
   46MOL   H23316523   7.008   4.300   7.375 -0.1310  0.0872 -1.3400
   46MOL   H23416524   7.135   4.204   7.447  0.8518  0.9689  0.4058
   46MOL   H23516525   7.096   4.193   7.267  1.8096 -0.6907  0.0010
   46MOL   C23616526   7.251   4.799   7.495 -0.1698 -0.1583 -0.1516
   46MOL   C23716527   7.242   4.852   7.353 -0.7740 -0.3887  0.3169
   46MOL   C23816528   7.373   4.928   7.303  0.4792  0.3567  0.3118
   46MOL   C23916529   7.428   5.052   7.377 -0.2094 -0.5500 -0.2033
   46MOL   C24016530   7.467   5.170   7.295 -0.0083  0.5101 -0.1531
   46MOL   C24116531   7.580   5.164   7.188 -0.1631 -0.3117  0.0113
   46MOL   H24216532   7.239   4.888   7.556 -2.1330 -0.5436  0.0417
   46MOL   H24316533   7.352   4.759   7.502 -0.4473 -1.1753 -1.5852
   46MOL   H24416534   7.230   4.768   7.285 -5.7859 -0.6312  1.2530
   46MOL   H24516535   7.450   4.851   7.302  0.4083  0.2884 -0.0645
   46MOL   H24616536   7.367   4.944   7.195  0.2667  1.4110  0.4757
   46MOL   H24716537   7.513   5.039   7.444 -0.8593  1.5567  1.0719
   46MOL   H24816538   7.355   5.083   7.452  0.6987  1.5283 -0.1448
   46MOL   H24916539   7.372   5.194   7.249  0.3966  1.1948 -0.6358
   46MOL   H25016540   7.489   5.262   7.349 -1.2849  1.5082 -1.2960
   46MOL   H25116541   7.569   5.234   7.105 -0.4509  1.5993  1.6400
   46MOL   H25216542   7.673   5.185   7.241 -0.2371  0.4959 -0.1694
   46MOL   H25316543   7.600   5.064   7.150 -1.1992 -0.3837 -0.3722
   46MOL   C25416544   7.118   4.939   7.324 -0.1508 -0.4406 -0.3016
   46MOL   C25516545   7.099   4.975   7.173  0.1244  0.4477  0.0591
   46MOL   C25616546   7.006   5.102   7.164  0.2834  1.0139 -0.2159
   46MOL   C25716547   7.070   5.227   7.209 -0.3117  0.7164 -0.6500
   46MOL   C25816548   6.984   5.348   7.170  0.4966  0.0575  0.2234
   46MOL   C25916549   7.061   5.477   7.157 -0.5635  0.2503 -0.0330
   46MOL   H26016550   7.139   5.026   7.388 -3.4439 -0.0217  0.3056
   46MOL   H26116551   7.037   4.886   7.374  1.4012 -0.4340  2.3514
   46MOL   H26216552   7.195   5.002   7.129  0.4117  0.2307  0.5441
   46MOL   H26316553   6.950   5.112   7.072  0.8465  1.6404 -0.4932
   46MOL   H26416554   6.928   5.088   7.239 -1.6385 -0.1539 -2.3763
   46MOL   H26516555   7.081   5.220   7.318  0.1640 -2.7324 -0.8388
   46MOL   H26616556   7.174   5.243   7.179  0.4141  0.5729  1.6380
   46MOL   H26716557   6.885   5.353   7.217 -0.4477  2.6408 -1.9185
   46MOL   H26816558   6.959   5.327   7.066  1.2484 -0.1160  0.0749
   46MOL   H26916559   7.008   5.563   7.113  0.0441  1.0709  0.8231
   46MOL   H27016560   7.155   5.472   7.102 -0.2414 -0.6764  0.6074
   46MOL   H27116561   7.095   5.514   7.253  0.9832  1.3823 -0.9791
   46MOL   C27216562   7.042   4.852   7.092 -0.1227  0.6569 -1.1499
   46MOL   C27316563   7.066   4.838   6.936  0.4841  0.1254  0.2858
   46MOL   C27416564   6.945   4.753   6.867 -0.4353  0.6298  0.4133
   46MOL   C27516565   6.939   4.603   6.915 -0.1587  0.6318 -0.1463
   46MOL   C27616566   6.838   4.518   6.830 -0.6687  0.1507 -0.2190
   46MOL   C27716567   6.692   4.554   6.857 -0.4432 -0.2388 -0.3104
   46MOL   H27816568   7.096   4.766   7.131 -0.3709  1.9795  2.3140
   46MOL   H27916569   6.936   4.838   7.113 -0.2080  0.8056 -1.4732
   46MOL   H28016570   7.060   4.936   6.889 -0.5480 -0.0124  0.1164
   46MOL   H28116571   6.959   4.778   6.762  0.1687 -0.4082  0.2403
   46MOL   H28216572   6.851   4.807   6.875  0.2226  1.7788  0.5398
   46MOL   H28316573   6.903   4.606   7.018 -0.3129 -0.0718 -0.1739
   46MOL   H28416574   7.036   4.554   6.921 -0.6435 -0.2851  0.4933
   46MOL   H28516575   6.862   4.539   6.726 -0.0689  0.1865 -0.0737
   46MOL   H28616576   6.852   4.411   6.841  0.7116  0.2767 -0.6885
   46MOL   H28716577   6.659   4.521   6.956  2.8223 -1.2770  0.5080
   46MOL   H28816578   6.664   4.659   6.857 -0.7405 -0.3140  0.1881
   46MOL   H28916579   6.626   4.509   6.783 -2.3785  1.2822  0.4549
   46MOL   C29016580   7.205   4.789   6.912 -0.4079  0.2408  0.4043
   46MOL   C29116581   7.251   4.785   6.763  0.1927 -0.1136 -0.4700
   46MOL   C29216582   7.225   4.920   6.682  0.2471  0.5964  0.0392
   46MOL   C29316583   7.314   5.037   6.744  0.0664  0.1899 -0.0096
   46MOL   C29416584   7.271   5.168   6.678  0.1457 -0.1966  0.4355
   46MOL   C29516585   7.133   5.209   6.717 -0.3449  1.3126  0.7731
   46MOL   H29616586   7.216   4.688   6.952  1.9188  1.0204  1.8327
   46MOL   H29716587   7.284   4.847   6.961  0.7486 -0.2438 -0.8443
   46MOL   H29816588   7.187   4.713   6.714  1.8778 -0.6519 -1.9624
   46MOL   H29916589   7.118   4.938   6.673  0.5580  3.1721  0.9806
   46MOL   H30016590   7.266   4.904   6.582  0.8156  0.3680  0.3078
   46MOL   H30116591   7.313   5.035   6.853  0.2302  0.9795  0.0087
   46MOL   H30216592   7.421   5.028   6.722 -0.3555 -0.4749 -1.9156
   46MOL   H30316593   7.290   5.168   6.570  0.5120  1.8688  0.4944
   46MOL   H30416594   7.348   5.242   6.698  1.0525  0.1266 -3.7858
   46MOL   H30516595   7.117   5.199   6.824 -0.2334  0.5424  0.7206
   46MOL   H30616596   7.057   5.143   6.675  1.5669 -0.4666  0.0218
   46MOL   H30716597   7.101   5.310   6.691 -0.9100  0.2953 -2.7219
   46MOL   C30816598   7.397   4.739   6.747  0.4808  0.2992 -0.1479
   46MOL   C30916599   7.420   4.590   6.753 -0.6447  0.0276  0.3327
   46MOL   C31016600   7.525   4.541   6.861 -0.0865  0.1797 -0.1073
   46MOL   C31116601   7.671   4.583   6.826  0.0521  0.0672  0.2184
   46MOL   C31216602   0.043   4.518   6.918 -0.8627 -0.0222 -0.2191
   46MOL   C31316603   0.190   4.563   6.901  0.7499  0.3218  0.0503
   46MOL   H31416604   7.439   4.779   6.655  1.5377 -0.4397  0.0015
   46MOL   H31516605   7.458   4.792   6.820  0.2824 -0.2836  0.4491
   46MOL   H31616606   7.328   4.551   6.797 -0.4083 -0.0075  0.8097
   46MOL   H31716607   7.534   4.433   6.871 -0.5949  0.1554  0.1202
   46MOL   H31816608   7.488   4.578   6.957 -1.9394  0.3475 -0.8601
   46MOL   H31916609   7.674   4.692   6.828  0.8731  0.1897 -3.2736
   46MOL   H32016610   7.687   4.560   6.720  1.3469 -0.4249  0.5260
   46MOL   H32116611   0.015   4.560   7.014  1.2244 -0.1842  0.4741
   46MOL   H32216612   0.030   4.411   6.934  1.0655 -0.1945  0.3424
   46MOL   H32316613   0.211   4.668   6.882  1.2849  0.4410  1.2523
   46MOL   H32416614   0.235   4.503   6.821 -0.7108  0.5904 -0.9983
   46MOL   H32516615   0.246   4.523   6.985 -1.7888 -1.2402  1.0161
   46MOL   C32616616   7.446   4.525   6.618 -0.4039 -0.2156  0.0136
   46MOL   C32716617   7.327   4.500   6.519 -0.2621  0.2127 -0.0221
   46MOL   C32816618   7.352   4.543   6.370  0.2274 -0.2746 -0.0960
   46MOL   C32916619   7.391   4.687   6.364 -0.0065 -0.4042 -0.7210
   46MOL   C33016620   7.389   4.758   6.230  0.5584  0.1256 -0.1720
   46MOL   C33116621   7.249   4.790   6.180 -0.4861 -0.2486  0.1113
   46MOL   H33216622   7.496   4.430   6.641 -1.5524 -0.5173  1.3222
   46MOL   H33316623   7.519   4.575   6.554 -0.9275 -1.0373 -1.2566
   46MOL   H33416624   7.249   4.573   6.540 -0.0369  0.6789 -0.7630
   46MOL   H33516625   7.427   4.481   6.322 -0.5230 -1.5307  0.3238
   46MOL   H33616626   7.269   4.532   6.301  1.3355  0.3165 -1.5309
   46MOL   H33716627   7.492   4.708   6.401 -0.0384  0.8020 -1.2821
   46MOL   H33816628   7.340   4.749   6.439 -0.3914 -0.4150 -0.9750
   46MOL   H33916629   7.436   4.851   6.260  1.6938 -0.6678  0.5718
   46MOL   H34016630   7.451   4.708   6.155 -1.0406  0.3847 -1.7038
   46MOL   H34116631   7.272   4.845   6.089 -0.4291 -0.9993 -0.3375
   46MOL   H34216632   7.186   4.850   6.245  0.1118  0.3147  0.1693
   46MOL   H34316633   7.192   4.701   6.151 -2.2822  1.1687 -0.7936
   46MOL   C34416634   7.264   4.359   6.526  0.2172  0.3541  0.0953
   46MOL   C34516635   7.133   4.343   6.442  0.1221 -0.6790  0.2254
   46MOL   C34616636   7.014   4.418   6.488  0.0946  0.3561  0.2691
   46MOL   C34716637   6.888   4.402   6.420  0.2248 -0.4682  0.0489
   46MOL   C34816638   6.811   4.281   6.473 -0.6121  0.9646  0.1572
   46MOL   C34916639   6.676   4.270   6.404 -0.1310 -0.6188 -0.2779
   46MOL   H35016640   7.339   4.292   6.485  1.0828  2.0490 -1.1097
   46MOL   H35116641   7.254   4.320   6.628 -0.9636 -2.0629 -0.9141
   46MOL   H35216642   7.110   4.237   6.454  0.3185 -1.0112 -2.0327
   46MOL   H35316643   6.993   4.398   6.593  1.4749 -0.5717  0.3798
   46MOL   H35416644   7.045   4.522   6.477 -3.1872  1.4201  0.5887
   46MOL   H35516645   6.829   4.493   6.423 -1.9552 -1.8798  1.8515
   46MOL   H35616646   6.911   4.391   6.314 -1.7838  0.7715 -0.5465
   46MOL   H35716647   6.870   4.191   6.455  2.4394  2.5292  1.9333
   46MOL   H35816648   6.801   4.279   6.582  0.2048  0.2683  0.2231
   46MOL   H35916649   6.612   4.190   6.441 -1.9096 -0.0208 -1.9828
   46MOL   H36016650   6.619   4.363   6.406  1.7583  0.6859 -3.5777
   46MOL   H36116651   6.677   4.241   6.299 -1.4379 -0.6099 -0.2992
   46MOL   H36216652   7.164   4.347   6.337 -0.4276  0.5223  0.1045
   47MOL     C116653   7.413   2.546   3.987 -0.3184 -0.4233  0.1357
   47MOL     C216654   7.260   2.510   3.972 -0.7075 -1.0839  0.1799
   47MOL     C316655   7.189   2.578   4.092 -0.1025 -0.5274  0.2322
   47MOL     C416656   7.153   2.726   4.077  0.7857  0.0422 -0.7261
   47MOL     C516657   7.070   2.791   4.190 -0.0362 -0.2900  0.1326
   47MOL     C616658   7.093   2.739   4.336 -0.0218  0.2731 -0.3972
   47MOL     H716659   7.463   2.510   3.897 -2.3220 -0.3380 -1.0294
   47MOL     H816660   7.429   2.651   4.008 -2.1755 -0.5321  2.1596
   47MOL     H916661   7.233   2.562   3.879  1.2653  1.6119  1.0347
   47MOL    H1016662   7.248   2.561   4.181 -2.8270 -0.3710  2.1376
   47MOL    H1116663   7.097   2.522   4.108 -0.5441 -0.6711 -2.5781
   47MOL    H1216664   7.116   2.736   3.975  5.2166 -1.8392 -2.6921
   47MOL    H1316665   7.246   2.783   4.070  0.5736  1.1233  3.7518
   47MOL    H1416666   7.103   2.894   4.188 -0.0772 -0.2935 -0.7656
   47MOL    H1516667   6.964   2.789   4.163  0.3293 -0.0566 -1.3538
   47MOL    H1616668   7.193   2.757   4.376 -0.5333  0.7313  0.6765
   47MOL    H1716669   7.075   2.632   4.337  0.0347  0.2677  1.5903
   47MOL    H1816670   7.025   2.790   4.405  3.3212  3.5073  0.6730
   47MOL    H1916671   7.470   2.495   4.065 -0.8979 -1.9972 -0.4429
   47MOL    C2016672   7.237   2.357   3.958  0.0711 -0.2335 -0.4037
   47MOL    C2116673   7.232   2.291   3.824 -0.1307 -0.4374  0.4992
   47MOL    C2216674   7.306   2.155   3.825  0.3731 -0.2710  0.3404
   47MOL    C2316675   7.455   2.157   3.835 -0.0128  0.7325  0.1533
   47MOL    C2416676   7.535   2.192   3.705 -0.2888  0.7099  0.0179
   47MOL    C2516677   7.688   2.179   3.724  0.8459 -0.0994  0.0397
   47MOL    H2616678   7.143   2.327   4.006 -0.5025 -0.1705 -1.4726
   47MOL    H2716679   7.318   2.319   4.020 -1.3193 -1.9473  0.3975
   47MOL    H2816680   7.298   2.360   3.771  0.9011 -2.4934 -0.9724
   47MOL    H2916681   7.262   2.087   3.751  0.3481  0.5313 -0.3834
   47MOL    H3016682   7.274   2.098   3.912 -0.7820 -1.1397 -0.6264
   47MOL    H3116683   7.484   2.058   3.868 -0.3084  0.1010 -1.4306
   47MOL    H3216684   7.493   2.210   3.922  0.5945 -1.5426  1.2914
   47MOL    H3316685   7.503   2.123   3.627 -1.3762  1.2169  0.0076
   47MOL    H3416686   7.504   2.284   3.656 -2.1400  1.2625  2.1345
   47MOL    H3516687   0.004   2.082   3.747 -0.7425 -0.9124 -0.4082
   47MOL    H3616688   0.021   2.212   3.639 -1.7341  2.4387 -0.8752
   47MOL    H3716689   7.727   2.243   3.805 -0.9488  1.6056 -0.4142
   47MOL    C3816690   7.091   2.279   3.757 -0.0575  0.0795 -0.2532
   47MOL    C3916691   7.100   2.310   3.610 -0.4288  0.1921 -0.0096
   47MOL    C4016692   6.996   2.228   3.534 -0.5465 -0.1519  0.4457
   47MOL    C4116693   6.852   2.263   3.563  0.2578  0.0304 -0.0991
   47MOL    C4216694   6.755   2.192   3.472  0.0365  0.4395 -0.0014
   47MOL    C4316695   6.735   2.257   3.335  0.4581  0.2284 -0.1788
   47MOL    H4416696   7.026   2.353   3.805  0.2536 -1.0956  1.9893
   47MOL    H4516697   7.041   2.185   3.780 -0.5869  0.3432 -0.2915
   47MOL    H4616698   7.197   2.290   3.565 -0.4274  1.9242 -0.7889
   47MOL    H4716699   7.010   2.257   3.429 -0.0788 -0.9535  0.2791
   47MOL    H4816700   7.010   2.120   3.533 -1.6255 -0.3005  0.2221
   47MOL    H4916701   6.828   2.236   3.666 -1.2464 -1.5305 -0.8264
   47MOL    H5016702   6.838   2.370   3.551 -0.9345 -0.0727  0.2897
   47MOL    H5116703   6.790   2.090   3.454  0.8724  0.6331  0.5268
   47MOL    H5216704   6.662   2.185   3.530 -0.5386 -0.4813 -1.0099
   47MOL    H5316705   6.831   2.267   3.284  0.1768  1.9433 -0.4155
   47MOL    H5416706   6.704   2.360   3.354  1.6553  0.2104  2.0101
   47MOL    H5516707   6.664   2.202   3.274  0.3415 -2.4638  2.2860
   47MOL    C5616708   7.083   2.464   3.593 -0.5563 -0.0480  0.1643
   47MOL    C5716709   7.090   2.521   3.447  0.2939 -0.5402  0.7312
   47MOL    C5816710   7.213   2.470   3.370 -0.0924 -0.1992 -0.2982
   47MOL    C5916711   7.344   2.501   3.433 -0.0980 -0.3558  0.1056
   47MOL    C6016712   7.456   2.457   3.355 -0.7611  0.3356 -0.3879
   47MOL    C6116713   7.594   2.488   3.433 -0.4916  0.0824  0.0385
   47MOL    H6216714   6.991   2.495   3.642 -0.3251 -0.2823  0.7473
   47MOL    H6316715   7.162   2.519   3.643 -0.9869  0.9374 -0.2205
   47MOL    H6416716   7.000   2.481   3.401  2.2033 -2.0148 -1.8586
   47MOL    H6516717   7.203   2.361   3.365 -1.4713 -0.2138  2.1512
   47MOL    H6616718   7.210   2.511   3.269 -2.7398 -0.9473 -0.5735
   47MOL    H6716719   7.351   2.462   3.535 -1.4913 -2.5382 -0.5846
   47MOL    H6816720   7.354   2.609   3.434 -0.6278 -0.3097  0.2543
   47MOL    H6916721   7.454   2.348   3.351 -1.2170  0.3833 -1.7967
   47MOL    H7016722   7.462   2.499   3.255 -0.9232 -1.5131 -1.1902
   47MOL    H7116723   7.684   2.470   3.375 -1.4972 -1.0648 -1.2189
   47MOL    H7216724   7.600   2.593   3.460  3.0676 -0.3487  1.1653
   47MOL    H7316725   7.603   2.425   3.521 -0.7871  0.4884  0.3623
   47MOL    C7416726   7.073   2.676   3.444  0.2947  0.2536  0.4305
   47MOL    C7516727   6.936   2.742   3.480 -0.2475  0.2017  0.4820
   47MOL    C7616728   6.959   2.897   3.493 -0.2752 -0.1566 -0.2009
   47MOL    C7716729   7.040   2.936   3.619  0.1161  0.0683 -0.0565
   47MOL    C7816730   7.026   3.087   3.641  0.7816 -0.6205  0.2184
   47MOL    C7916731   7.062   3.136   3.777 -0.4787 -0.0134  0.0848
   47MOL    H8016732   7.151   2.708   3.514  0.8435  1.4869 -0.7185
   47MOL    H8116733   7.107   2.716   3.348  1.7813  0.4132  1.0108
   47MOL    H8216734   6.895   2.711   3.576  2.3237  2.3445  2.3512
   47MOL    H8316735   7.026   2.933   3.416 -0.0744  0.1630  0.1194
   47MOL    H8416736   6.860   2.941   3.489  0.1589  1.1017  1.9453
   47MOL    H8516737   6.992   2.900   3.710  0.5761  2.9567  1.3999
   47MOL    H8616738   7.146   2.910   3.614  0.2953  0.7907 -0.0804
   47MOL    H8716739   6.927   3.120   3.609  0.5105 -1.2417  0.4021
   47MOL    H8816740   7.083   3.148   3.572 -1.9955  1.1638 -0.5904
   47MOL    H8916741   7.055   3.245   3.784  0.3437  0.1125 -0.9221
   47MOL    H9016742   7.012   3.086   3.860 -1.3624 -2.3285 -1.7833
   47MOL    H9116743   7.164   3.106   3.804 -0.4188 -0.8340 -1.0407
   47MOL    C9216744   6.832   2.718   3.366  0.1152 -0.1455  0.3242
   47MOL    C9316745   6.688   2.749   3.392 -0.8713 -0.2343 -0.1728
   47MOL    C9416746   6.626   2.819   3.269 -0.3404  0.1362  0.0726
   47MOL    C9516747   6.640   2.971   3.269  0.2678  0.0581  0.4955
   47MOL    C9616748   6.559   3.047   3.162 -0.0307  0.0739  0.4140
   47MOL    C9716749   6.560   3.197   3.176  0.2979  0.0055 -0.4081
   47MOL    H9816750   6.864   2.768   3.275  0.4034 -0.1236  0.4339
   47MOL    H9916751   6.840   2.614   3.335 -1.4763  0.1191 -0.9967
   47MOL   H10016752   6.671   2.825   3.469 -0.0771  0.5866 -0.7932
   47MOL   H10116753   6.520   2.797   3.252 -1.2140  3.5630  0.7776
   47MOL   H10216754   6.670   2.775   3.179 -0.3146  0.8594 -0.2702
   47MOL   H10316755   6.597   2.995   3.366 -1.7815 -1.8938  0.1034
   47MOL   H10416756   6.746   2.986   3.249 -0.1883  1.3577 -1.0768
   47MOL   H10516757   6.589   3.025   3.060  0.7016 -0.3975  0.7274
   47MOL   H10616758   6.455   3.025   3.183  0.3375 -0.1976  2.0321
   47MOL   H10716759   6.570   3.252   3.083  1.8126 -2.2676 -1.6481
   47MOL   H10816760   6.473   3.236   3.229  1.8596  0.3420  2.0143
   47MOL   H10916761   6.649   3.225   3.233  0.4976 -1.2732 -0.0658
   47MOL   C11016762   6.610   2.621   3.428 -0.0486 -0.2951 -0.3844
   47MOL   C11116763   6.478   2.640   3.513  0.2273  0.1378  0.0150
   47MOL   C11216764   6.494   2.700   3.665 -0.0140 -0.1736 -0.6497
   47MOL   C11316765   6.560   2.607   3.768  0.0562  0.0523 -0.2463
   47MOL   C11416766   6.605   2.687   3.895 -0.0981 -0.2738  0.2402
   47MOL   C11516767   6.669   2.605   4.001 -0.1689 -0.5831  0.3723
   47MOL   H11616768   6.588   2.565   3.337 -0.8961  2.0994 -1.6842
   47MOL   H11716769   6.685   2.567   3.486 -0.0157  1.9495  1.7791
   47MOL   H11816770   6.425   2.720   3.461 -0.6797 -0.1663  0.4710
   47MOL   H11916771   6.395   2.728   3.700 -0.1619 -3.1684  1.5316
   47MOL   H12016772   6.554   2.791   3.672  0.3707 -0.2971 -2.1992
   47MOL   H12116773   6.643   2.554   3.722  1.2668  1.8393 -0.1662
   47MOL   H12216774   6.499   2.521   3.794 -0.5647  0.7220  0.5153
   47MOL   H12316775   6.519   2.732   3.943 -1.2247 -0.4172 -1.6157
   47MOL   H12416776   6.660   2.776   3.865 -0.9924 -0.2289 -1.2758
   47MOL   H12516777   6.756   2.546   3.973 -1.5326 -3.7055  2.3767
   47MOL   H12616778   6.700   2.675   4.078  0.5402  0.2574 -0.6694
   47MOL   H12716779   6.598   2.528   4.034 -1.2426  0.4327  0.4787
   47MOL   C12816780   6.391   2.518   3.513 -0.2625  0.0157 -0.1426
   47MOL   C12916781   6.238   2.542   3.518 -0.3078  0.9360  0.0701
   47MOL   C13016782   6.156   2.414   3.558 -0.9300 -0.0067 -0.3006
   47MOL   C13116783   6.146   2.400   3.713  0.1768  0.0027 -0.5437
   47MOL   C13216784   6.076   2.267   3.742 -0.5022  0.1165  0.6715
   47MOL   C13316785   6.046   2.261   3.889  0.6183  0.1457  0.2254
   47MOL   H13416786   6.430   2.451   3.590  1.2095 -0.2082 -1.0564
   47MOL   H13516787   6.417   2.448   3.434 -0.2784 -0.9521  0.7073
   47MOL   H13616788   6.225   2.621   3.591 -3.0814  1.2121 -0.6831
   47MOL   H13716789   6.065   2.388   3.505 -0.9853  0.8284 -0.6237
   47MOL   H13816790   6.205   2.324   3.521  0.7495  0.1557  1.4187
   47MOL   H13916791   6.090   2.486   3.751 -1.5753 -1.6182  0.6203
   47MOL   H14016792   6.243   2.403   3.763  0.3023 -0.2315 -0.7741
   47MOL   H14116793   5.980   2.273   3.692 -0.5230  0.3446  0.7394
   47MOL   H14216794   6.139   2.186   3.706  2.3282  1.5368  2.1928
   47MOL   H14316795   5.966   2.187   3.900  0.9835 -0.0424  1.7070
   47MOL   H14416796   6.007   2.352   3.934  0.3152  0.2746 -0.2993
   47MOL   H14516797   6.133   2.225   3.943  1.0995 -0.2916 -0.8308
   47MOL   C14616798   6.182   2.589   3.377 -0.2494 -0.3452 -0.2112
   47MOL   C14716799   6.094   2.715   3.390 -0.3155  0.5043  0.2888
   47MOL   C14816800   5.962   2.680   3.461  0.3108  0.4601 -0.7941
   47MOL   C14916801   5.888   2.801   3.531 -0.0929 -0.3292  0.0351
   47MOL   C15016802   5.769   2.748   3.613 -0.2465  0.1795 -0.2341
   47MOL   C15116803   5.698   2.867   3.684  0.2049  0.0507  0.0670
   47MOL   H15216804   6.263   2.619   3.310 -1.1636  0.7302 -0.8586
   47MOL   H15316805   6.132   2.503   3.332 -0.4597 -0.9508  1.1553
   47MOL   H15416806   6.158   2.784   3.446 -0.1483  0.8277 -0.2971
   47MOL   H15516807   5.988   2.607   3.538  0.7396 -1.6774 -2.9139
   47MOL   H15616808   5.898   2.628   3.390  1.8779 -1.2823 -0.9914
   47MOL   H15716809   5.951   2.854   3.603 -1.6782  0.5968  0.7680
   47MOL   H15816810   5.847   2.879   3.468  0.0984  0.6592  1.1063
   47MOL   H15916811   5.804   2.679   3.690  0.1576  0.7829  0.1299
   47MOL   H16016812   5.691   2.700   3.553 -0.0799  1.4069 -1.4589
   47MOL   H16116813   5.610   2.841   3.743  0.5012  0.7950  0.8509
   47MOL   H16216814   5.763   2.930   3.744 -1.5034  0.8493  1.1172
   47MOL   H16316815   5.665   2.941   3.611  0.5983  0.4959  0.3415
   47MOL   C16416816   6.062   2.774   3.253  0.7714 -0.0227 -0.4396
   47MOL   C16516817   6.167   2.867   3.184 -0.8658  0.5442  0.0534
   47MOL   C16616818   6.178   2.839   3.030  0.1532  0.1961 -0.0343
   47MOL   C16716819   6.062   2.894   2.950  0.6603  0.1224  0.5859
   47MOL   C16816820   6.068   2.836   2.810 -0.3204 -0.1051  0.2472
   47MOL   C16916821   5.933   2.857   2.733  0.0316  0.0935 -0.3763
   47MOL   H17016822   6.047   2.689   3.186  0.8173 -1.7768  1.7094
   47MOL   H17116823   5.974   2.837   3.261  0.9268  0.1351  0.0608
   47MOL   H17216824   6.264   2.827   3.212  0.1231  0.0024 -3.8423
   47MOL   H17316825   6.188   2.731   3.019 -1.9887  0.2316 -2.5460
   47MOL   H17416826   6.267   2.887   2.989  0.9456 -1.2796 -0.0692
   47MOL   H17516827   6.066   3.003   2.953 -0.0654  0.1289  1.6090
   47MOL   H17616828   5.967   2.859   2.990 -0.3076  2.6647  0.5967
   47MOL   H17716829   6.071   2.727   2.808 -0.1889 -0.1051 -3.4061
   47MOL   H17816830   6.156   2.854   2.749 -0.2385 -1.3955 -0.0375
   47MOL   H17916831   5.923   2.958   2.694  0.5753  0.8165  1.2937
   47MOL   H18016832   5.842   2.855   2.792 -1.4563  1.4789 -2.5364
   47MOL   H18116833   5.924   2.795   2.644  0.8125 -2.7305  1.4541
   47MOL   C18216834   6.154   3.019   3.209  0.4244  0.0791 -0.3111
   47MOL   C18316835   6.134   3.054   3.354 -0.0712 -0.6859  0.4657
   47MOL   C18416836   6.087   3.204   3.361 -0.0097 -0.0065  0.0112
   47MOL   C18516837   5.937   3.212   3.337  0.1948  0.0826 -0.8368
   47MOL   C18616838   5.879   3.353   3.311  0.2617  0.4240  0.0543
   47MOL   C18716839   5.730   3.367   3.348  0.3712  0.1129 -0.0244
   47MOL   H18816840   6.242   3.064   3.164  1.3784 -1.8883 -0.4763
   47MOL   H18916841   6.070   3.055   3.149 -0.0408  1.7975  1.3366
   47MOL   H19016842   6.059   2.986   3.396 -1.0885  0.1419  0.0117
   47MOL   H19116843   6.101   3.239   3.463  0.5764 -0.5524  0.1193
   47MOL   H19216844   6.143   3.269   3.293 -0.8095 -1.3928 -2.0336
   47MOL   H19316845   5.894   3.170   3.428  3.5485  0.2080  0.9273
   47MOL   H19416846   5.906   3.154   3.251  1.0481 -0.8373 -0.5345
   47MOL   H19516847   5.893   3.376   3.205  1.4788  1.4665  0.4338
   47MOL   H19616848   5.941   3.419   3.372  2.6538  0.3707 -2.2290
   47MOL   H19716849   5.689   3.468   3.342  0.0457 -0.0326 -0.2963
   47MOL   H19816850   5.713   3.343   3.453  0.5222  1.3924  0.3057
   47MOL   H19916851   5.667   3.303   3.286  0.2880  0.4820 -0.3248
   47MOL   C20016852   6.272   3.039   3.427  0.8786 -0.1026  0.7300
   47MOL   C20116853   6.266   3.016   3.579 -0.8851 -0.2772 -0.1835
   47MOL   C20216854   6.408   3.020   3.637  0.2541  0.7622  0.1593
   47MOL   C20316855   6.473   3.159   3.655 -0.0278  0.1741  0.1738
   47MOL   C20416856   6.613   3.147   3.730  0.0735  0.3911  0.4137
   47MOL   C20516857   6.658   3.294   3.768  0.1586 -0.2053  0.6808
   47MOL   H20616858   6.322   3.132   3.398  0.3627  0.6018  2.0847
   47MOL   H20716859   6.336   2.965   3.378 -0.9938 -0.8358 -0.6468
   47MOL   H20816860   6.237   2.912   3.589  1.2284 -0.9329 -0.5533
   47MOL   H20916861   6.486   2.966   3.583 -0.6030 -1.4050  1.0208
   47MOL   H21016862   6.408   2.972   3.735 -1.0519 -0.2880 -0.3478
   47MOL   H21116863   6.411   3.226   3.715  0.3349  0.5483  0.1333
   47MOL   H21216864   6.483   3.205   3.557  0.6626 -0.7753 -0.2040
   47MOL   H21316865   6.693   3.094   3.680 -0.9980 -0.2930 -0.5908
   47MOL   H21416866   6.600   3.092   3.824 -0.3532  0.1033  0.1887
   47MOL   H21516867   6.667   3.354   3.677  0.8644 -0.2820  0.6989
   47MOL   H21616868   6.577   3.340   3.825  1.1979  1.1225  1.1150
   47MOL   H21716869   6.748   3.278   3.827  1.6242 -2.1459 -2.0079
   47MOL   C21816870   6.158   3.093   3.663  0.1291  0.7515  0.7503
   47MOL   C21916871   6.141   3.064   3.819  0.8651 -0.6871 -0.2519
   47MOL   C22016872   6.103   2.919   3.847  0.8282  0.2329 -0.3755
   47MOL   C22116873   6.180   2.857   3.959  0.0882  0.1951  0.3356
   47MOL   C22216874   6.142   2.711   3.989 -0.2424  0.4866 -0.2826
   47MOL   C22316875   6.251   2.621   4.047 -0.1078 -0.1149 -0.3405
   47MOL   H22416876   6.181   3.198   3.646  0.4565  0.5711  0.0645
   47MOL   H22516877   6.061   3.069   3.619  0.4564 -0.1344  0.4888
   47MOL   H22616878   6.237   3.081   3.868  0.1894 -1.5694  1.3974
   47MOL   H22716879   6.118   2.859   3.758  1.2191 -1.8006  1.0240
   47MOL   H22816880   5.994   2.916   3.858  0.6282 -0.7179 -2.3823
   47MOL   H22916881   6.179   2.912   4.053  2.1017  1.1911 -0.1724
   47MOL   H23016882   6.285   2.871   3.933  0.0810 -2.4394 -1.2173
   47MOL   H23116883   6.055   2.704   4.054 -0.8958 -3.3028 -1.4240
   47MOL   H23216884   6.101   2.653   3.907 -0.2073 -1.1957  0.8721
   47MOL   H23316885   6.215   2.523   4.079 -0.5307  0.2394  0.2902
   47MOL   H23416886   6.279   2.664   4.143 -1.2218  2.3836 -1.0964
   47MOL   H23516887   6.335   2.617   3.977 -0.1393 -1.6402 -0.2920
   47MOL   C23616888   6.049   3.170   3.884  0.1723 -0.0448 -0.4250
   47MOL   C23716889   6.114   3.305   3.909 -0.8575  0.2861  0.3633
   47MOL   C23816890   6.248   3.308   3.980 -0.2881 -0.0225  0.1387
   47MOL   C23916891   6.254   3.238   4.119 -0.5347 -0.4645  0.2474
   47MOL   C24016892   6.373   3.283   4.202 -0.7603 -0.2155 -0.3051
   47MOL   C24116893   6.376   3.253   4.351  0.0706  0.3246  0.8860
   47MOL   H24216894   5.964   3.182   3.816 -0.3903  0.4379  0.3543
   47MOL   H24316895   6.001   3.131   3.973  0.0153  1.5347  0.2022
   47MOL   H24416896   6.128   3.348   3.810  1.1887 -2.1548 -0.4709
   47MOL   H24516897   6.332   3.265   3.926 -0.6665 -2.5339  1.4973
   47MOL   H24616898   6.280   3.411   3.993 -2.1314  0.6878 -0.7285
   47MOL   H24716899   6.241   3.131   4.102 -1.6228  0.2883 -4.3672
   47MOL   H24816900   6.177   3.287   4.178 -1.4238  0.9171 -1.9636
   47MOL   H24916901   6.463   3.244   4.154  0.2588  2.2485 -0.4970
   47MOL   H25016902   6.365   3.392   4.196  0.6956 -0.0430  0.5287
   47MOL   H25116903   6.395   3.146   4.352 -1.5826  0.0177  0.1526
   47MOL   H25216904   6.460   3.299   4.404  0.0453 -0.3358  1.5103
   47MOL   H25316905   6.288   3.272   4.412  0.4694 -1.3774  2.0420
   47MOL   C25416906   6.016   3.400   3.985 -0.1452  0.4157 -0.1049
   47MOL   C25516907   5.885   3.439   3.912 -0.7085 -0.0513 -0.4560
   47MOL   C25616908   5.904   3.512   3.770 -0.2472  0.2732 -0.5309
   47MOL   C25716909   5.985   3.641   3.773  0.0220 -0.5518  0.0017
   47MOL   C25816910   6.008   3.695   3.631  0.6886  0.5910 -0.1587
   47MOL   C25916911   5.882   3.742   3.545 -0.1209 -0.6172  0.6106
   47MOL   H26016912   6.069   3.491   4.012 -0.2181  0.3336  0.3127
   47MOL   H26116913   5.997   3.361   4.085  0.2361 -0.3628 -0.3340
   47MOL   H26216914   5.822   3.351   3.902  0.9583 -1.0817 -2.1225
   47MOL   H26316915   5.950   3.452   3.692 -1.3086  3.6692 -3.9058
   47MOL   H26416916   5.802   3.539   3.741 -0.4037  1.1799  0.8005
   47MOL   H26516917   5.936   3.718   3.833  0.9822 -1.7274  2.3741
   47MOL   H26616918   6.079   3.625   3.827  0.7046  1.6298 -0.4765
   47MOL   H26716919   6.054   3.617   3.570  2.0344  0.5654  0.8522
   47MOL   H26816920   6.089   3.769   3.633  1.7399 -0.5404 -0.3659
   47MOL   H26916921   5.800   3.671   3.554  0.3698 -1.2515  0.1344
   47MOL   H27016922   5.912   3.749   3.440  1.3602  1.9017  1.1362
   47MOL   H27116923   5.840   3.835   3.583 -0.2168 -0.3826 -0.0637
   47MOL   C27216924   5.799   3.542   4.002 -0.1744  0.2915 -0.1101
   47MOL   C27316925   5.752   3.488   4.138 -0.4952 -0.7136 -0.3544
   47MOL   C27416926   5.709   3.338   4.134  0.0224 -0.3852 -0.2756
   47MOL   C27516927   5.579   3.303   4.059 -0.0586 -0.1112 -0.5153
   47MOL   C27616928   5.561   3.150   4.042  0.2659 -0.1119  0.0349
   47MOL   C27716929   5.414   3.113   4.006  0.1553 -0.2326 -0.6646
   47MOL   H27816930   5.854   3.635   4.015  0.0327  0.2401 -0.6213
   47MOL   H27916931   5.716   3.566   3.934  0.1735 -0.6553 -0.8897
   47MOL   H28016932   5.846   3.484   4.192 -1.0438 -0.9776  0.5984
   47MOL   H28116933   5.692   3.305   4.237  0.7861 -0.1768 -0.0807
   47MOL   H28216934   5.787   3.271   4.098 -1.2619 -2.7534  1.2492
   47MOL   H28316935   5.589   3.345   3.960  0.8590 -2.0717 -1.2673
   47MOL   H28416936   5.497   3.350   4.114  0.1577  0.6653 -0.8556
   47MOL   H28516937   5.628   3.112   3.964  0.0384  0.5709 -0.4989
   47MOL   H28616938   5.580   3.095   4.134 -1.8632 -1.0568 -0.0783
   47MOL   H28716939   5.349   3.136   4.090  0.1934  0.9391 -0.9504
   47MOL   H28816940   5.383   3.174   3.921  0.4843 -0.1420 -0.7188
   47MOL   H28916941   5.400   3.006   3.990 -1.5933 -0.1164 -0.0226
   47MOL   C29016942   5.644   3.587   4.213 -0.3049  0.0939  0.2418
   47MOL   C29116943   5.711   3.717   4.260 -0.0772  1.5409 -0.1986
   47MOL   C29216944   5.612   3.823   4.316  0.0401  0.2643 -0.5849
   47MOL   C29316945   5.512   3.870   4.212  0.2191  0.2278  0.1321
   47MOL   C29416946   5.406   3.972   4.266 -0.2309 -0.3026 -0.0735
   47MOL   C29516947   5.326   4.032   4.143 -0.2447  0.6218 -0.1874
   47MOL   H29616948   5.591   3.534   4.292  0.2163 -0.2145  0.3909
   47MOL   H29716949   5.565   3.607   4.140 -1.1348 -0.4076  0.9862
   47MOL   H29816950   5.768   3.751   4.174  1.3117  1.4705  0.6890
   47MOL   H29916951   5.673   3.910   4.340  1.6193 -0.8674 -0.3777
   47MOL   H30016952   5.569   3.785   4.409  1.1300  0.6780  0.1006
   47MOL   H30116953   5.564   3.919   4.130 -0.7573  1.6188  0.3332
   47MOL   H30216954   5.459   3.793   4.157  0.2341 -0.6180  1.2893
   47MOL   H30316955   5.452   4.061   4.309 -2.1521  1.2994 -1.2469
   47MOL   H30416956   5.346   3.922   4.342  0.7849 -0.8619  0.3720
   47MOL   H30516957   5.269   3.949   4.102 -0.0024  1.0579 -1.4370
   47MOL   H30616958   5.386   4.076   4.063  0.5507  0.6065  0.3934
   47MOL   H30716959   5.260   4.110   4.180  0.8107  1.5558 -0.2432
   47MOL   C30816960   5.801   3.685   4.376 -0.1104  0.2373  0.3860
   47MOL   C30916961   5.920   3.779   4.390  0.0049  0.7193  0.0143
   47MOL   C31016962   6.038   3.732   4.303  0.1334  0.5802 -0.4799
   47MOL   C31116963   6.144   3.838   4.277  0.1603  0.0842  0.1582
   47MOL   C31216964   6.229   3.791   4.157  0.0727 -0.4514  0.3079
   47MOL   C31316965   6.340   3.895   4.135 -0.0843 -1.0638  0.2531
   47MOL   H31416966   5.749   3.695   4.471 -3.2245 -0.3779 -1.2132
   47MOL   H31516967   5.836   3.582   4.373  2.6358  1.1348  0.1332
   47MOL   H31616968   5.888   3.875   4.351  0.4271 -0.3244 -3.0933
   47MOL   H31716969   5.993   3.703   4.208 -3.3020 -2.5774  1.9451
   47MOL   H31816970   6.088   3.645   4.345 -0.8441  1.2257  2.1689
   47MOL   H31916971   6.215   3.846   4.358  0.7497 -2.7609 -0.0009
   47MOL   H32016972   6.100   3.936   4.261 -1.3274 -0.5869 -0.0202
   47MOL   H32116973   6.265   3.692   4.186  2.3888 -0.0080 -0.9094
   47MOL   H32216974   6.164   3.774   4.072 -0.6136 -1.4620  1.0250
   47MOL   H32316975   6.295   3.988   4.100  1.0181 -0.4045  0.5318
   47MOL   H32416976   6.420   3.862   4.069 -1.2169  1.5973 -2.5607
   47MOL   H32516977   6.392   3.913   4.229  1.1363 -2.2020 -0.1844
   47MOL   C32616978   5.968   3.801   4.531 -0.0552  0.2001 -0.6022
   47MOL   C32716979   5.885   3.912   4.601  0.3592  0.2726  0.5925
   47MOL   C32816980   5.880   3.886   4.750  0.3733 -0.4387  0.4239
   47MOL   C32916981   6.015   3.910   4.824 -0.0207 -0.2770  0.2478
   47MOL   C33016982   5.992   3.898   4.974 -0.6597 -0.0014 -0.1760
   47MOL   C33116983   6.113   3.950   5.051  0.6290 -0.4721  0.9745
   47MOL   H33216984   6.075   3.823   4.541 -0.4120  1.6834  0.1007
   47MOL   H33316985   5.960   3.712   4.594  1.4912  0.7817  0.4683
   47MOL   H33416986   5.780   3.897   4.574 -0.0398  2.0097  1.1279
   47MOL   H33516987   5.796   3.944   4.788 -1.2628 -1.3384 -1.7243
   47MOL   H33616988   5.853   3.782   4.771  3.0383 -1.5714 -1.3898
   47MOL   H33716989   6.041   4.015   4.814  1.0242 -0.6302 -0.8755
   47MOL   H33816990   6.100   3.852   4.790 -0.1739 -0.4872  0.2227
   47MOL   H33916991   5.911   3.963   5.008 -0.4802  0.5977 -0.8885
   47MOL   H34016992   5.973   3.792   4.991  3.8723 -1.4634 -3.2149
   47MOL   H34116993   6.089   3.977   5.154 -0.6501  1.7626  0.1336
   47MOL   H34216994   6.151   4.039   5.001  0.6016 -0.3788  1.1186
   47MOL   H34316995   6.199   3.884   5.063  2.0295  1.1792  0.2795
   47MOL   C34416996   5.918   4.052   4.559  0.0679  0.3938  0.4370
   47MOL   C34516997   5.842   4.171   4.619  0.1872 -0.1632  0.3810
   47MOL   C34616998   5.859   4.305   4.542  0.6849 -0.2252  0.1365
   47MOL   C34716999   5.746   4.336   4.443  0.1210 -0.1675 -0.1138
   47MOL   C34817000   5.760   4.459   4.357  0.4813 -0.2757  0.2440
   47MOL   C34917001   5.742   4.595   4.425 -0.0443  0.2686 -0.5537
   47MOL   H35017002   6.025   4.051   4.578  0.1448 -0.5909 -0.0197
   47MOL   H35117003   5.903   4.060   4.451  1.7895 -0.6538  0.1017
   47MOL   H35217004   5.878   4.194   4.720  1.0663  2.2366 -0.4434
   47MOL   H35317005   5.857   4.383   4.617 -0.1577 -0.6635  0.5758
   47MOL   H35417006   5.954   4.306   4.489 -0.2963 -1.0200 -1.6956
   47MOL   H35517007   5.736   4.255   4.370  1.7107 -0.8373  0.3984
   47MOL   H35617008   5.652   4.330   4.499  0.2042 -1.0210 -0.0531
   47MOL   H35717009   5.863   4.460   4.322  0.5999 -0.5310  0.5807
   47MOL   H35817010   5.688   4.458   4.276 -0.0309  1.5822  0.6393
   47MOL   H35917011   5.814   4.640   4.493  1.1103 -1.1606 -0.8222
   47MOL   H36017012   5.737   4.667   4.343  0.3804  1.7554  0.7073
   47MOL   H36117013   5.643   4.593   4.471 -0.0991 -0.9572 -0.7097
   47MOL   H36217014   5.734   4.164   4.637 -0.0413  1.7335 -0.1147
   48MOL     C117015   1.926   3.634   3.743  0.1665 -0.5517 -0.4637
   48MOL     C217016   2.063   3.630   3.821 -0.1275 -0.6944 -0.4914
   48MOL     C317017   2.089   3.768   3.877 -0.1096  0.2806  0.6939
   48MOL     C417018   2.208   3.782   3.971 -0.3516 -0.0449  0.3145
   48MOL     C517019   2.202   3.698   4.100 -0.2231  0.3869  0.1943
   48MOL     C617020   2.316   3.730   4.197  0.3530 -0.1945 -0.5625
   48MOL     H717021   1.930   3.694   3.652  1.6455  0.2392  0.1077
   48MOL     H817022   1.889   3.535   3.716 -2.0135 -0.2378  1.2009
   48MOL     H917023   2.047   3.557   3.901  0.7347  0.5749  0.8471
   48MOL    H1017024   2.003   3.802   3.935  0.9384  1.6801  1.4357
   48MOL    H1117025   2.095   3.836   3.793 -2.2765 -0.7065 -0.3149
   48MOL    H1217026   2.193   3.886   4.000 -0.8004 -0.4440  1.5628
   48MOL    H1317027   2.303   3.761   3.921  0.5900  1.4208  1.4462
   48MOL    H1417028   2.100   3.701   4.139 -0.2477 -0.1775  0.1719
   48MOL    H1517029   2.218   3.594   4.073 -2.3312  0.1293 -0.1041
   48MOL    H1617030   2.293   3.827   4.240 -1.4146  0.2110 -2.3155
   48MOL    H1717031   2.413   3.734   4.147  0.7791  3.5255  0.4592
   48MOL    H1817032   2.321   3.653   4.274 -0.0833 -0.1694 -0.5059
   48MOL    H1917033   1.850   3.690   3.797 -2.5140 -0.3174 -4.3039
   48MOL    C2017034   2.181   3.594   3.725 -0.4408  1.0174 -0.2217
   48MOL    C2117035   2.177   3.449   3.665  0.6011  0.0645 -0.0070
   48MOL    C2217036   2.284   3.419   3.558  0.1424 -0.5000  0.2006
   48MOL    C2317037   2.428   3.441   3.612  0.0031 -0.0850  0.4540
   48MOL    C2417038   2.539   3.459   3.500 -0.1153  0.0696  0.2697
   48MOL    C2517039   2.544   3.592   3.438  0.1497  0.5751  0.4155
   48MOL    H2617040   2.264   3.582   3.794 -0.0156  0.0521 -0.8922
   48MOL    H2717041   2.208   3.668   3.648  0.4098  2.3573  1.3360
   48MOL    H2817042   2.077   3.446   3.622  1.3285 -5.0420 -1.6853
   48MOL    H2917043   2.276   3.486   3.472 -0.8167 -1.4344 -0.4487
   48MOL    H3017044   2.278   3.319   3.515 -2.3958 -0.5873  0.6784
   48MOL    H3117045   2.457   3.362   3.681 -2.6207 -1.7203 -0.2774
   48MOL    H3217046   2.421   3.533   3.669 -0.0521  0.2788 -0.1272
   48MOL    H3317047   2.637   3.438   3.545  0.5754  1.9441 -0.3458
   48MOL    H3417048   2.523   3.378   3.429  0.1310 -3.2068  3.7507
   48MOL    H3517049   2.452   3.647   3.458 -1.4566 -1.5080 -0.9789
   48MOL    H3617050   2.621   3.657   3.479  2.5936 -0.6718 -2.0565
   48MOL    H3717051   2.550   3.587   3.329 -0.8823 -3.0656  0.4414
   48MOL    C3817052   2.179   3.339   3.774  0.0768  0.2391  0.1297
   48MOL    C3917053   2.097   3.215   3.733 -0.7099 -0.7561  0.0125
   48MOL    C4017054   2.134   3.090   3.830 -0.2738 -0.7681 -0.6598
   48MOL    C4117055   2.275   3.032   3.792  0.0475  0.1301 -0.4216
   48MOL    C4217056   2.326   2.911   3.882  0.4662  0.0454  0.1528
   48MOL    C4317057   2.230   2.795   3.861  0.1586 -0.0704  0.3838
   48MOL    H4417058   2.120   3.377   3.858 -1.9205 -0.7495 -0.7823
   48MOL    H4517059   2.283   3.327   3.803 -0.2991 -2.5896  0.4727
   48MOL    H4617060   2.143   3.189   3.638  2.0973 -0.1433  1.1592
   48MOL    H4717061   2.133   3.132   3.931 -0.6740  0.1244 -1.0327
   48MOL    H4817062   2.053   3.018   3.839 -1.9327  1.0696 -0.4375
   48MOL    H4917063   2.276   3.006   3.686  1.2541  1.6006 -0.7944
   48MOL    H5017064   2.352   3.109   3.798  0.8148 -0.5836 -1.0541
   48MOL    H5117065   2.426   2.885   3.847  0.6205  0.8451 -0.0276
   48MOL    H5217066   2.336   2.936   3.988 -0.5298  1.7718 -0.1438
   48MOL    H5317067   2.251   2.701   3.912  0.9913  0.2840  0.7000
   48MOL    H5417068   2.218   2.777   3.755  0.5796  0.4293  0.2492
   48MOL    H5517069   2.129   2.811   3.900 -1.0469 -1.4173 -2.0951
   48MOL    C5617070   1.949   3.239   3.714 -0.5464  0.0730 -0.0916
   48MOL    C5717071   1.875   3.113   3.660  0.8587  0.9414 -0.4714
   48MOL    C5817072   1.820   3.138   3.523  0.8769  0.1747 -0.2679
   48MOL    C5917073   1.927   3.150   3.407  0.1864  0.8108 -0.5275
   48MOL    C6017074   1.856   3.142   3.266  0.2733 -0.0160 -0.0095
   48MOL    C6117075   1.959   3.158   3.155  0.0503 -0.2301  0.2493
   48MOL    H6217076   1.912   3.260   3.815  1.8225  1.2959  0.5631
   48MOL    H6317077   1.928   3.325   3.650 -0.8193  0.2956  0.2868
   48MOL    H6417078   1.946   3.032   3.645 -0.4032 -0.3131  0.2609
   48MOL    H6517079   1.749   3.059   3.499  0.3412 -0.6274  3.6227
   48MOL    H6617080   1.759   3.228   3.533  0.2440 -0.4938  2.1874
   48MOL    H6717081   1.992   3.064   3.420 -3.4372 -1.8814  0.4606
   48MOL    H6817082   1.982   3.243   3.418 -0.7256  1.1865  0.9643
   48MOL    H6917083   1.823   3.039   3.255 -1.5687  0.5843 -0.2152
   48MOL    H7017084   1.774   3.212   3.257  1.3717  1.2258 -0.4319
   48MOL    H7117085   2.053   3.104   3.164  1.3587  1.6685 -1.5237
   48MOL    H7217086   1.913   3.127   3.061  0.2110  1.3205 -0.3544
   48MOL    H7317087   1.997   3.254   3.119 -1.3465  0.5184  0.7286
   48MOL    C7417088   1.771   3.062   3.765 -0.0565  0.4597  0.3937
   48MOL    C7517089   1.686   2.934   3.723 -0.4948  0.1905 -0.1696
   48MOL    C7617090   1.764   2.818   3.652 -0.6201 -0.0169  0.7178
   48MOL    C7717091   1.883   2.754   3.730  0.3825  0.4215 -0.1757
   48MOL    C7817092   1.978   2.685   3.635  0.7292 -0.6366  0.1369
   48MOL    C7917093   1.918   2.558   3.581  0.0509  0.5133 -1.0858
   48MOL    H8017094   1.830   3.038   3.854 -1.7256 -0.5987  1.2558
   48MOL    H8117095   1.704   3.144   3.791  1.6847  1.0208  3.3124
   48MOL    H8217096   1.614   2.978   3.654 -0.6596  2.1145  1.1813
   48MOL    H8317097   1.700   2.732   3.631 -0.1478 -0.5870  1.5987
   48MOL    H8417098   1.789   2.851   3.552  1.4507 -1.3182  0.7874
   48MOL    H8517099   1.940   2.830   3.781  1.3488  1.5917 -2.9076
   48MOL    H8617100   1.840   2.676   3.794 -0.9664 -2.0749 -3.8929
   48MOL    H8717101   2.067   2.651   3.687  1.0487 -0.5144 -0.3297
   48MOL    H8817102   2.009   2.758   3.560  1.1358 -0.2373  0.6828
   48MOL    H8917103   1.828   2.581   3.523 -1.1472 -0.6584  0.2898
   48MOL    H9017104   1.999   2.513   3.522  0.4789  1.5834 -1.3340
   48MOL    H9117105   1.897   2.480   3.653 -0.1268  0.3775 -1.2848
   48MOL    C9217106   1.610   2.878   3.847  0.6225 -0.4335  0.7696
   48MOL    C9317107   1.489   2.786   3.813  0.2274  0.3444 -0.4850
   48MOL    C9417108   1.426   2.720   3.944 -0.3470 -0.0578 -0.5788
   48MOL    C9517109   1.353   2.805   4.049  0.5526  0.0889 -0.6953
   48MOL    C9617110   1.275   2.721   4.153  0.2648 -0.0086  1.0762
   48MOL    C9717111   1.166   2.803   4.221  0.1935  0.7118  0.1335
   48MOL    H9817112   1.682   2.824   3.908 -0.0549  0.1591  2.0943
   48MOL    H9917113   1.573   2.959   3.909  1.8817  0.5275  0.2874
   48MOL   H10017114   1.538   2.701   3.766  0.5980 -1.0685  2.3194
   48MOL   H10117115   1.509   2.673   3.998  0.4076  0.6619 -1.0917
   48MOL   H10217116   1.357   2.642   3.914 -0.7991  0.3303 -0.5468
   48MOL   H10317117   1.432   2.864   4.095  1.3270 -2.1915  1.0356
   48MOL   H10417118   1.292   2.874   3.991 -1.8561 -0.1087  1.5034
   48MOL   H10517119   1.234   2.629   4.110 -0.7221  0.9860 -0.1388
   48MOL   H10617120   1.345   2.676   4.223  2.2950 -0.7757 -1.3752
   48MOL   H10717121   1.086   2.811   4.148  0.1952 -0.6987 -0.0239
   48MOL   H10817122   1.124   2.747   4.304  2.3313  0.3879  1.0326
   48MOL   H10917123   1.197   2.902   4.257  0.6036  0.1297  1.4142
   48MOL   C11017124   1.379   2.832   3.718 -0.2839  0.3510  0.0013
   48MOL   C11117125   1.391   2.758   3.582  0.0449  0.1247  0.2507
   48MOL   C11217126   1.334   2.842   3.463 -0.1046 -0.7570 -0.1928
   48MOL   C11317127   1.430   2.955   3.418 -0.0028  0.1443 -0.6012
   48MOL   C11417128   1.355   3.045   3.319  0.4265 -0.2689  0.1278
   48MOL   C11517129   1.451   3.160   3.287 -0.4245  0.2767  0.4970
   48MOL   H11617130   1.286   2.835   3.774 -1.6341  1.1085 -2.1839
   48MOL   H11717131   1.415   2.932   3.695  0.2514  0.3805  0.9590
   48MOL   H11817132   1.495   2.739   3.557 -0.6143 -0.2123 -2.3795
   48MOL   H11917133   1.236   2.887   3.477  0.3852 -0.2182  1.5691
   48MOL   H12017134   1.322   2.778   3.376  0.7346 -2.6882  1.0646
   48MOL   H12117135   1.522   2.911   3.380  0.6572 -0.0972  1.2564
   48MOL   H12217136   1.458   3.008   3.509 -1.3693  1.2152 -0.7801
   48MOL   H12317137   1.276   3.107   3.362  0.3725  1.2503 -2.0813
   48MOL   H12417138   1.310   2.991   3.236  0.5676  0.9104 -0.7342
   48MOL   H12517139   1.549   3.125   3.254 -0.8969 -2.3164  1.7168
   48MOL   H12617140   1.412   3.223   3.207  0.2036  4.1914  3.1563
   48MOL   H12717141   1.462   3.215   3.380  2.6003 -1.4707  1.2418
   48MOL   C12817142   1.306   2.626   3.590  0.2677  0.3701 -0.2199
   48MOL   C12917143   1.401   2.505   3.587 -0.3834  0.4668  0.0930
   48MOL   C13017144   1.453   2.498   3.441  0.9175  0.2567  0.2745
   48MOL   C13117145   1.588   2.413   3.430 -0.3705 -0.2309  0.8740
   48MOL   C13217146   1.650   2.427   3.288 -0.1497 -0.7396  0.5855
   48MOL   C13317147   1.795   2.413   3.279 -0.2493  0.6085  0.2047
   48MOL   H13417148   1.233   2.618   3.509 -0.2398 -0.3843  0.2982
   48MOL   H13517149   1.241   2.628   3.678 -1.2932  0.7035 -1.3505
   48MOL   H13617150   1.489   2.525   3.648  0.0773  1.7984 -0.9990
   48MOL   H13717151   1.383   2.442   3.380  1.0166 -1.0804  1.3653
   48MOL   H13817152   1.462   2.600   3.403  0.6746  0.1511 -0.0690
   48MOL   H13917153   1.581   2.308   3.455  1.4571 -0.9727 -1.5628
   48MOL   H14017154   1.660   2.453   3.502  0.3932  2.3305 -1.2046
   48MOL   H14117155   1.611   2.355   3.216 -0.1073  0.5892 -0.7765
   48MOL   H14217156   1.615   2.520   3.244 -0.1189 -1.6044 -1.3011
   48MOL   H14317157   1.852   2.501   3.309  1.5876 -0.8276  1.0474
   48MOL   H14417158   1.833   2.386   3.180  0.0540 -0.8840  0.7098
   48MOL   H14517159   1.821   2.335   3.350 -0.7715 -0.2553 -0.5426
   48MOL   C14617160   1.334   2.373   3.630 -0.2698 -0.6507 -0.2197
   48MOL   C14717161   1.294   2.355   3.782  0.0837  0.4806 -0.0793
   48MOL   C14817162   1.426   2.360   3.858  0.1703 -0.3811  0.0460
   48MOL   C14917163   1.410   2.330   4.007 -0.1077 -0.3993 -0.3167
   48MOL   C15017164   1.540   2.346   4.081 -0.8319 -0.2000  0.4490
   48MOL   C15117165   1.664   2.279   4.020 -0.2520 -0.3253 -0.5935
   48MOL   H15217166   1.244   2.364   3.569  1.6366 -1.5020 -3.0179
   48MOL   H15317167   1.399   2.293   3.594  0.3453  0.9199 -2.6955
   48MOL   H15417168   1.236   2.444   3.807 -1.1225 -0.1811 -0.5241
   48MOL   H15517169   1.474   2.458   3.863 -1.0097  0.1253  2.4264
   48MOL   H15617170   1.495   2.287   3.816 -0.9923 -0.3108 -2.0374
   48MOL   H15717171   1.347   2.402   4.059 -0.3183 -0.8282  0.0321
   48MOL   H15817172   1.370   2.229   4.021  3.2261 -1.7518 -0.2376
   48MOL   H15917173   1.531   2.308   4.182 -2.5175 -1.3303 -0.1030
   48MOL   H16017174   1.561   2.453   4.093 -1.6849 -0.2939  2.9969
   48MOL   H16117175   1.698   2.329   3.930 -1.0272 -3.4768 -2.7189
   48MOL   H16217176   1.746   2.281   4.092 -0.1998 -0.4571 -0.6503
   48MOL   H16317177   1.633   2.179   3.991  0.8389 -0.4609 -1.2794
   48MOL   C16417178   1.218   2.220   3.810  0.7894  0.2166 -0.2173
   48MOL   C16517179   1.087   2.195   3.728  0.0804  0.1693 -0.4292
   48MOL   C16617180   1.034   2.051   3.765  0.2356 -0.2666 -0.6622
   48MOL   C16717181   0.979   2.041   3.908 -0.7520 -0.3469  0.3854
   48MOL   C16817182   0.889   1.926   3.936  0.2573 -0.0298  1.0209
   48MOL   C16917183   0.943   1.784   3.890 -0.1478 -0.5533  0.0695
   48MOL   H17017184   1.286   2.135   3.813 -2.7492 -2.6823  0.9982
   48MOL   H17117185   1.181   2.233   3.912 -0.5171  0.2843 -0.6990
   48MOL   H17217186   1.118   2.188   3.624 -0.1046 -1.2370 -0.3991
   48MOL   H17317187   1.113   1.977   3.759  0.8985  0.5875 -2.6427
   48MOL   H17417188   0.961   2.014   3.693  0.4285 -1.4987 -0.2268
   48MOL   H17517189   0.924   2.126   3.946 -1.8419 -1.2899  0.9334
   48MOL   H17617190   1.069   2.021   3.966  0.1457 -1.6142 -1.3664
   48MOL   H17717191   0.789   1.939   3.893  1.3037  2.2837 -0.8229
   48MOL   H17817192   0.868   1.930   4.043  0.5117  1.7843  1.0230
   48MOL   H17917193   0.862   1.711   3.895 -0.7654  0.1087 -0.1676
   48MOL   H18017194   1.026   1.747   3.950  0.6618 -1.0347 -1.3155
   48MOL   H18117195   0.982   1.779   3.788  0.7782  3.6721  0.1574
   48MOL   C18217196   0.983   2.308   3.749 -0.3991 -0.0750  0.2508
   48MOL   C18317197   0.842   2.297   3.677  0.3762  0.5053 -0.1809
   48MOL   C18417198   0.866   2.255   3.525 -0.4730  0.1954  0.0166
   48MOL   C18517199   0.944   2.346   3.430  0.2985  0.0892  0.0010
   48MOL   C18617200   0.982   2.291   3.294 -0.6055  0.3097  0.0812
   48MOL   C18717201   1.034   2.392   3.195 -0.5546  0.6730  0.0238
   48MOL   H18817202   0.960   2.319   3.855  0.3027 -0.7735  0.4892
   48MOL   H18917203   1.024   2.406   3.725  0.3886 -0.1391  1.2629
   48MOL   H19017204   0.796   2.214   3.730 -0.5691  0.1485 -1.5327
   48MOL   H19117205   0.899   2.151   3.524 -2.8003 -0.5642 -1.9863
   48MOL   H19217206   0.765   2.246   3.484 -0.9018 -1.2846  1.3955
   48MOL   H19317207   1.029   2.381   3.489 -0.2064  1.6328 -0.1717
   48MOL   H19417208   0.887   2.437   3.415  0.4564  0.0689 -0.7216
   48MOL   H19517209   0.893   2.245   3.251 -0.0337  0.9065 -1.7945
   48MOL   H19617210   1.041   2.204   3.321  1.2521  1.0433 -1.4702
   48MOL   H19717211   1.089   2.346   3.113 -1.0064  0.5876 -0.2362
   48MOL   H19817212   1.093   2.469   3.244  0.4098 -0.2103  0.2609
   48MOL   H19917213   0.952   2.436   3.138 -0.2931 -0.7258 -1.4872
   48MOL   C20017214   0.764   2.433   3.692 -1.0750  0.6023 -0.4688
   48MOL   C20117215   0.619   2.433   3.640  0.0663  0.9494 -0.2405
   48MOL   C20217216   0.522   2.339   3.715  0.8563  0.5722  0.3050
   48MOL   C20317217   0.483   2.384   3.857  0.3755 -0.4420 -0.4039
   48MOL   C20417218   0.414   2.271   3.921  0.1916 -0.0517 -0.3228
   48MOL   C20517219   0.379   2.319   4.061 -0.1455  0.8429 -0.0910
   48MOL   H20617220   0.813   2.512   3.636 -2.2559  1.7022  0.0346
   48MOL   H20717221   0.779   2.479   3.789 -3.3984  0.1130  0.1776
   48MOL   H20817222   0.623   2.396   3.538  3.8443 -2.6216  1.0568
   48MOL   H20917223   0.567   2.240   3.715  1.2166  0.7378  0.6867
   48MOL   H21017224   0.435   2.326   3.650  0.2588 -1.8356  1.5663
   48MOL   H21117225   0.417   2.470   3.844 -0.9246 -1.2528  0.7741
   48MOL   H21217226   0.573   2.411   3.912 -0.0565  0.6270 -0.2038
   48MOL   H21317227   0.485   2.188   3.926 -0.2493 -0.4179 -0.0276
   48MOL   H21417228   0.325   2.235   3.868 -0.1729  1.2386 -0.5856
   48MOL   H21517229   0.318   2.410   4.064 -0.6713  0.4904 -0.0153
   48MOL   H21617230   0.324   2.239   4.112  1.1474  0.1130  0.1630
   48MOL   H21717231   0.470   2.331   4.120  0.2028  0.5260 -0.5612
   48MOL   C21817232   0.563   2.579   3.619  0.0296  0.3306  0.2082
   48MOL   C21917233   0.430   2.594   3.539 -1.0097  0.0377 -0.9571
   48MOL   C22017234   0.433   2.531   3.398 -0.3127 -0.2023 -0.0162
   48MOL   C22117235   0.547   2.584   3.312 -0.9637  0.0812 -0.1936
   48MOL   C22217236   0.523   2.555   3.159 -0.5952 -0.1225  0.0380
   48MOL   C22317237   0.558   2.414   3.118 -0.3985 -0.6686 -0.5883
   48MOL   H22417238   0.550   2.633   3.712  2.2212  1.0491  0.1260
   48MOL   H22517239   0.636   2.631   3.556 -0.1342  0.2930 -0.0156
   48MOL   H22617240   0.360   2.536   3.598  1.1204 -0.9405  0.6913
   48MOL   H22717241   0.337   2.528   3.346  0.4573 -0.1863 -1.4672
   48MOL   H22817242   0.452   2.424   3.409 -0.9834 -0.3392 -0.1262
   48MOL   H22917243   0.646   2.558   3.349 -1.8925 -0.2885  2.0648
   48MOL   H23017244   0.555   2.690   3.337 -1.4501 -0.1620  1.0130
   48MOL   H23117245   0.419   2.571   3.129 -0.8458  1.1646  1.5240
   48MOL   H23217246   0.585   2.624   3.101  2.8721 -1.2912  2.1938
   48MOL   H23317247   0.530   2.329   3.181  1.5928 -0.9896 -0.1082
   48MOL   H23417248   0.666   2.413   3.112 -0.3557 -0.8843  0.1617
   48MOL   H23517249   0.519   2.393   3.018 -1.8464  1.8106 -0.5878
   48MOL   C23617250   0.383   2.740   3.540  0.0863  0.4182 -0.6020
   48MOL   C23717251   0.241   2.765   3.509  0.2161 -0.4962  0.1057
   48MOL   C23817252   0.132   2.676   3.586 -0.0021 -0.4336  1.2586
   48MOL   C23917253   0.146   2.676   3.746  0.3204 -0.4271  1.0518
   48MOL   C24017254   0.039   2.575   3.803 -0.4976  0.1852 -0.0692
   48MOL   C24117255   0.020   2.578   3.953  0.2545  0.5946 -0.1414
   48MOL   H24217256   0.407   2.765   3.643  1.9855 -0.2851 -0.8520
   48MOL   H24317257   0.443   2.797   3.469  0.1088  2.0114  0.6723
   48MOL   H24417258   0.229   2.869   3.538 -1.1018 -1.4057  3.0684
   48MOL   H24517259   0.035   2.721   3.565 -0.2462 -0.9016  1.3762
   48MOL   H24617260   0.122   2.574   3.550 -2.3158  0.8114 -1.8580
   48MOL   H24717261   0.119   2.775   3.782  1.0786 -0.3737  1.4837
   48MOL   H24817262   0.247   2.642   3.771  0.4506 -0.0303  1.0628
   48MOL   H24917263   7.671   2.589   3.753 -0.9354  0.4515  0.8193
   48MOL   H25017264   0.070   2.476   3.770  0.8504 -0.1314  2.0484
   48MOL   H25117265   7.656   2.633   3.976 -1.0662 -0.3801 -2.8932
   48MOL   H25217266   0.001   2.476   3.986 -0.0232  0.2646 -1.2895
   48MOL   H25317267   0.112   2.596   4.009  0.1804 -1.4195  0.6668
   48MOL   C25417268   0.213   2.753   3.357 -0.2824 -0.0843  0.1044
   48MOL   C25517269   0.105   2.845   3.291  0.9295  0.6281 -0.0313
   48MOL   C25617270   0.025   2.768   3.179  0.7841  0.2271  0.5046
   48MOL   C25717271   0.101   2.762   3.042  0.4496 -0.4563  0.2516
   48MOL   C25817272   0.036   2.682   2.927 -0.5421 -0.3267 -1.0619
   48MOL   C25917273   7.610   2.707   2.916 -0.2520 -0.1735 -0.1424
   48MOL   H26017274   0.171   2.654   3.339  0.5163 -0.2885 -0.6843
   48MOL   H26117275   0.306   2.750   3.300 -0.6288  0.1729 -0.4823
   48MOL   H26217276   0.028   2.858   3.367 -0.1465  0.0868 -1.0116
   48MOL   H26317277   7.713   2.672   3.209 -1.4788 -0.3608 -3.8704
   48MOL   H26417278   7.659   2.821   3.161  1.1296 -0.0436 -2.2957
   48MOL   H26517279   0.106   2.863   3.000  2.7520 -0.9979 -0.8027
   48MOL   H26617280   0.201   2.723   3.058  0.9789  1.4401  1.7475
   48MOL   H26717281   0.073   2.580   2.940  4.0993  1.5057  1.2623
   48MOL   H26817282   0.082   2.712   2.833 -0.2294  1.4317 -0.3686
   48MOL   H26917283   7.560   2.681   3.009 -1.5919 -1.5986 -1.2328
   48MOL   H27017284   7.572   2.637   2.842  0.5073  0.1156 -0.8074
   48MOL   H27117285   7.585   2.810   2.888 -1.0540  0.6361  3.2878
   48MOL   C27217286   0.155   2.982   3.233  0.1553 -0.5043  0.0366
   48MOL   C27317287   0.195   3.090   3.339  0.6020  0.2347  0.1824
   48MOL   C27417288   0.079   3.124   3.428  0.3160  0.0780 -0.2796
   48MOL   C27517289   0.116   3.199   3.553  0.0809  0.2441  0.0146
   48MOL   C27617290   7.727   3.240   3.642 -1.0635  0.1179  0.3017
   48MOL   C27717291   0.056   3.322   3.752  0.3236  0.7366  0.1047
   48MOL   H27817292   0.235   2.968   3.161 -0.0809  2.2243 -0.7750
   48MOL   H27917293   0.073   3.010   3.167  1.2949 -1.5408 -1.8744
   48MOL   H28017294   0.277   3.040   3.390 -1.5663 -2.6932  0.9495
   48MOL   H28117295   0.043   3.029   3.468  1.9188  0.1008  1.2847
   48MOL   H28217296   0.005   3.187   3.379  2.5950  2.3130 -0.9406
   48MOL   H28317297   0.166   3.292   3.527 -2.0474  0.6928 -2.6462
   48MOL   H28417298   0.190   3.141   3.608  1.1664  2.3475  0.8378
   48MOL   H28517299   7.658   3.303   3.586 -0.1244  2.4486  1.6692
   48MOL   H28617300   7.677   3.149   3.675 -0.9789  0.0533  0.2490
   48MOL   H28717301   7.704   3.373   3.808 -0.8359  0.6751 -1.4494
   48MOL   H28817302   0.113   3.251   3.812 -2.0687 -0.7735  0.6726
   48MOL   H28917303   0.121   3.402   3.718  2.3879 -1.0637 -0.2398
   48MOL   C29017304   0.257   3.215   3.272  0.4295  0.2250 -0.2329
   48MOL   C29117305   0.407   3.191   3.224 -0.2824 -0.3389  0.3259
   48MOL   C29217306   0.415   3.230   3.079 -0.2239  0.6405 -0.3924
   48MOL   C29317307   0.530   3.169   2.996 -0.3666 -0.2634 -0.1359
   48MOL   C29417308   0.481   3.153   2.853 -0.6311 -0.1686  0.1459
   48MOL   C29517309   0.591   3.105   2.751  0.2028 -0.0017  0.7239
   48MOL   H29617310   0.257   3.304   3.336 -0.8434 -0.4409  0.7160
   48MOL   H29717311   0.190   3.253   3.195 -0.8504 -0.9086  0.3060
   48MOL   H29817312   0.439   3.088   3.234  1.2994  0.0113 -0.9885
   48MOL   H29917313   0.416   3.338   3.066  1.2913  1.0518  2.7897
   48MOL   H30017314   0.322   3.200   3.029 -0.3859  1.6906 -0.7496
   48MOL   H30117315   0.610   3.242   2.995  1.3511 -2.1210 -1.4675
   48MOL   H30217316   0.563   3.073   3.036 -0.7515  0.0527  0.9670
   48MOL   H30317317   0.428   3.241   2.818  0.9302  0.5334 -0.5372
   48MOL   H30417318   0.394   3.089   2.846 -1.7366  1.1819  1.2863
   48MOL   H30517319   0.662   3.187   2.738 -0.7082  1.1154  2.7056
   48MOL   H30617320   0.550   3.086   2.651  0.6879  0.2463  0.4767
   48MOL   H30717321   0.642   3.013   2.776  0.2823  0.3230  1.7544
   48MOL   C30817322   0.507   3.278   3.302  0.6219  0.3372 -0.3391
   48MOL   C30917323   0.517   3.251   3.457  0.1491 -0.4600 -0.5896
   48MOL   C31017324   0.572   3.385   3.526 -0.3282 -0.3815 -0.3448
   48MOL   C31117325   0.450   3.477   3.555  1.0083 -0.2514  0.0717
   48MOL   C31217326   0.489   3.605   3.620  1.0096  0.6476 -0.7192
   48MOL   C31317327   0.379   3.715   3.619 -0.0715  0.0025  0.3319
   48MOL   H31417328   0.603   3.249   3.260  0.7007 -1.6487  1.1290
   48MOL   H31517329   0.479   3.382   3.284 -2.2740 -0.1648  0.9276
   48MOL   H31617330   0.412   3.233   3.480 -0.0536  1.6259  0.2783
   48MOL   H31717331   0.660   3.434   3.486  0.6715 -1.9795 -0.1240
   48MOL   H31817332   0.599   3.353   3.627  0.3385 -2.4145 -1.1673
   48MOL   H31917333   0.369   3.427   3.607 -0.9845  1.7452 -1.0457
   48MOL   H32017334   0.402   3.502   3.460  0.3239  0.6998  0.6674
   48MOL   H32117335   0.532   3.584   3.718  0.4701 -0.8594 -0.7984
   48MOL   H32217336   0.568   3.651   3.561  1.5591 -3.3047 -3.2726
   48MOL   H32317337   0.282   3.672   3.645 -0.1383  1.4509  2.5535
   48MOL   H32417338   0.368   3.738   3.513 -0.8274 -4.1125 -0.6012
   48MOL   H32517339   0.409   3.800   3.680  0.9046 -0.8001  0.9893
   48MOL   C32617340   0.611   3.132   3.488 -0.3877  0.2210 -0.8001
   48MOL   C32717341   0.627   3.093   3.643  0.1336 -0.4599 -0.2418
   48MOL   C32817342   0.491   3.081   3.714  0.4160  0.2487 -0.7055
   48MOL   C32917343   0.492   3.068   3.866  0.5804 -0.1261 -0.5614
   48MOL   C33017344   0.537   3.190   3.959 -0.4383  0.1866  0.7453
   48MOL   C33117345   0.470   3.329   3.938 -0.0337 -0.5747 -0.2840
   48MOL   H33217346   0.709   3.156   3.449  0.1616 -0.4748  0.1240
   48MOL   H33317347   0.574   3.045   3.434  2.6196 -1.4158 -0.3045
   48MOL   H33417348   0.682   3.172   3.694 -2.3333  0.8194  0.5149
   48MOL   H33517349   0.431   3.167   3.684 -1.0956 -0.5988 -0.1988
   48MOL   H33617350   0.455   2.983   3.683  1.6320 -0.2800 -0.4721
   48MOL   H33717351   0.549   2.980   3.894  0.5602 -0.4530 -1.5373
   48MOL   H33817352   0.392   3.045   3.903  0.7586  0.7142  0.4670
   48MOL   H33917353   0.520   3.147   4.058  1.1122 -0.9956  0.5182
   48MOL   H34017354   0.645   3.195   3.945 -0.5308 -0.0065 -0.0730
   48MOL   H34117355   0.499   3.371   3.841  1.9562  0.4744  0.7332
   48MOL   H34217356   0.514   3.405   4.003  0.6076 -2.6168  1.7236
   48MOL   H34317357   0.363   3.335   3.955 -0.5448  1.3347 -3.5996
   48MOL   C34417358   0.712   2.967   3.658  0.3405 -1.7578  0.1850
   48MOL   C34517359   0.855   2.997   3.699 -0.2223 -0.4573  0.1548
   48MOL   C34617360   0.951   2.881   3.734 -0.2736 -0.0211  0.0098
   48MOL   C34717361   0.931   2.814   3.874  0.7276  0.4593 -0.7898
   48MOL   C34817362   1.006   2.686   3.883 -0.4960 -0.5563  0.3590
   48MOL   C34917363   0.945   2.603   3.998 -0.0908 -0.8656 -0.0806
   48MOL   H35017364   0.666   2.897   3.728 -0.2369 -1.6898 -0.1152
   48MOL   H35117365   0.709   2.915   3.562  0.2864 -0.9301 -0.2743
   48MOL   H35217366   0.867   3.060   3.787  2.4103 -0.3121 -0.2668
   48MOL   H35317367   0.925   2.804   3.661  0.1738  0.3530 -0.5417
   48MOL   H35417368   1.053   2.914   3.715 -0.2089 -0.3438 -0.2057
   48MOL   H35517369   0.961   2.891   3.946  0.1177  1.2975 -1.4203
   48MOL   H35617370   0.826   2.794   3.896  0.2610  1.9495 -1.5979
   48MOL   H35717371   0.997   2.624   3.794 -0.6213 -0.8424  0.5701
   48MOL   H35817372   1.113   2.699   3.901 -0.0910 -0.2501 -2.1265
   48MOL   H35917373   0.846   2.563   3.976 -0.7219  0.9333 -0.6241
   48MOL   H36017374   1.012   2.519   4.017  0.1725 -1.0551 -1.7361
   48MOL   H36117375   0.934   2.646   4.097  0.6588 -2.4019  0.6770
   48MOL   H36217376   0.899   3.058   3.621  2.6009 -1.1442  1.1376
   49MOL     C117377   4.630   7.171   0.979 -0.4987 -0.2081  0.1255
   49MOL     C217378   4.516   7.136   0.874  0.0579  0.1939  0.0234
   49MOL     C317379   4.561   7.035   0.766 -0.4741  0.2191 -0.0470
   49MOL     C417380   4.525   6.887   0.790 -0.1873 -0.0803  0.3280
   49MOL     C517381   4.520   6.802   0.661 -0.8380  0.8033  0.1611
   49MOL     C617382   4.391   6.818   0.585  0.3321  0.6371  0.6753
   49MOL     H717383   4.590   7.234   1.059 -0.6622 -0.6752  0.4154
   49MOL     H817384   4.676   7.085   1.028  1.3930 -0.0668 -1.3590
   49MOL     H917385   4.444   7.088   0.941  2.3677 -3.0390  0.2820
   49MOL    H1017386   4.670   7.026   0.761 -0.4658  0.7459 -0.9907
   49MOL    H1117387   4.535   7.072   0.667  0.5976 -5.4723 -2.6683
   49MOL    H1217388   4.425   6.886   0.834  0.2545 -1.3471  1.3293
   49MOL    H1317389   4.597   6.843   0.859  0.6007  0.6980  0.0095
   49MOL    H1417390   4.611   6.828   0.607  0.7626  2.7639  3.5913
   49MOL    H1517391   4.520   6.695   0.682  1.7374  0.7894  0.3119
   49MOL    H1617392   4.414   6.788   0.483 -0.4299 -0.2772  0.7616
   49MOL    H1717393   4.344   6.917   0.583 -0.3350  0.3092 -0.4408
   49MOL    H1817394   4.315   6.750   0.624 -0.6587  0.0182 -2.2029
   49MOL    H1917395   4.710   7.223   0.928 -0.6786 -0.2739 -0.2246
   49MOL    C2017396   4.454   7.261   0.816  0.1197 -0.0696 -1.4059
   49MOL    C2117397   4.359   7.347   0.898 -0.0882 -0.5732 -0.0478
   49MOL    C2217398   4.325   7.484   0.829  0.7242 -0.3685  0.2258
   49MOL    C2317399   4.275   7.474   0.684 -0.3156 -0.2718  0.0694
   49MOL    C2417400   4.238   7.616   0.622  0.0882  0.2374  0.4699
   49MOL    C2517401   4.180   7.603   0.480  0.0195 -0.4773  0.2350
   49MOL    H2617402   4.410   7.224   0.724 -1.0223  1.1310 -1.3452
   49MOL    H2717403   4.532   7.325   0.775  0.3436  0.9003  0.4869
   49MOL    H2817404   4.408   7.365   0.993  0.1246 -1.2378 -0.0283
   49MOL    H2917405   4.403   7.560   0.841 -1.8483  1.9452  3.3889
   49MOL    H3017406   4.248   7.530   0.891  0.5226  0.2221 -0.4519
   49MOL    H3117407   4.189   7.407   0.680 -0.0168 -0.6718  0.3744
   49MOL    H3217408   4.341   7.422   0.615  1.0149  1.6098 -0.1289
   49MOL    H3317409   4.162   7.672   0.676 -0.6282 -1.6333  1.4131
   49MOL    H3417410   4.327   7.680   0.618 -0.0065  0.2639 -1.9108
   49MOL    H3517411   4.103   7.526   0.481 -0.2723 -0.1623  2.1498
   49MOL    H3617412   4.135   7.699   0.453  0.9456 -0.6977 -2.2811
   49MOL    H3717413   4.263   7.582   0.412  0.9276  1.9164  0.5531
   49MOL    C3817414   4.223   7.268   0.932 -0.4250  0.2044  0.3296
   49MOL    C3917415   4.197   7.229   1.081 -0.0369 -0.0842 -0.3006
   49MOL    C4017416   4.181   7.355   1.179  0.4902  0.2678  0.6698
   49MOL    C4117417   4.062   7.454   1.156 -0.2621 -0.1367 -0.0051
   49MOL    C4217418   4.079   7.587   1.230 -0.5402 -0.3618 -0.0037
   49MOL    C4317419   3.950   7.674   1.238 -0.5363  0.0540  0.1143
   49MOL    H4417420   4.223   7.174   0.877  0.7133  1.2141 -1.4445
   49MOL    H4517421   4.132   7.312   0.890  1.5880  2.0090 -2.3215
   49MOL    H4617422   4.289   7.192   1.127 -0.3007  1.8746  1.9192
   49MOL    H4717423   4.174   7.328   1.285  1.6803 -1.7592  0.2695
   49MOL    H4817424   4.270   7.416   1.188 -0.4808  1.5548  1.7422
   49MOL    H4917425   4.047   7.478   1.050  0.1227  1.6649  0.3371
   49MOL    H5017426   3.968   7.406   1.182 -0.3423  1.5948  3.1513
   49MOL    H5117427   4.115   7.567   1.331  1.9206  0.6513 -0.6626
   49MOL    H5217428   4.157   7.645   1.182 -0.0482 -1.6486 -0.7954
   49MOL    H5317429   3.970   0.040   1.291  0.1534  0.8605 -1.5276
   49MOL    H5417430   3.877   7.615   1.292 -0.9381 -0.1178 -0.5995
   49MOL    H5517431   3.905   7.689   1.139 -1.3807  0.3635  0.5437
   49MOL    C5617432   4.085   7.124   1.084 -0.4528 -0.3262  0.0885
   49MOL    C5717433   4.078   7.043   1.213 -0.3310 -0.7792 -0.3009
   49MOL    C5817434   4.209   6.966   1.253  0.0813 -0.1380  0.3667
   49MOL    C5917435   4.259   6.864   1.153 -0.0600 -0.3973  0.5254
   49MOL    C6017436   4.397   6.817   1.192  0.0910  0.0856 -0.2650
   49MOL    C6117437   4.385   6.694   1.293 -0.0667 -0.0114 -0.1249
   49MOL    H6217438   3.985   7.165   1.066 -0.1947  0.2165 -0.0958
   49MOL    H6317439   4.092   7.050   1.004  0.4483 -2.0060  1.6791
   49MOL    H6417440   4.057   7.110   1.297 -0.4756  0.1411 -1.0638
   49MOL    H6517441   4.288   7.037   1.277 -1.0431 -0.0113  3.9991
   49MOL    H6617442   4.200   6.917   1.349 -0.0776 -0.9677 -0.0666
   49MOL    H6717443   4.277   6.915   1.058  1.4064 -2.2238 -0.2000
   49MOL    H6817444   4.181   6.792   1.126  1.8895 -2.0771 -0.7772
   49MOL    H6917445   4.441   6.782   1.099  0.9912  3.4653 -1.1593
   49MOL    H7017446   4.472   6.890   1.225 -0.3081 -0.0876  1.0855
   49MOL    H7117447   4.312   6.615   1.273  1.0350 -1.6034  2.0523
   49MOL    H7217448   4.475   6.637   1.311 -0.2425 -0.3493 -0.3189
   49MOL    H7317449   4.367   6.726   1.396 -0.3749 -0.4089 -0.0547
   49MOL    C7417450   3.957   6.950   1.206  0.1919 -0.6351 -0.4659
   49MOL    C7517451   3.832   6.988   1.287 -0.0416 -0.7679  0.6869
   49MOL    C7617452   3.853   6.974   1.440  0.1135 -0.6538 -0.1360
   49MOL    C7717453   3.845   6.823   1.471  0.1095  0.7208 -0.0263
   49MOL    C7817454   3.803   6.795   1.618  0.5272  0.2291  0.5315
   49MOL    C7917455   3.911   6.814   1.731  0.0097  0.2973  0.2443
   49MOL    H8017456   3.931   6.933   1.102 -2.7111 -0.3886  0.1940
   49MOL    H8117457   3.994   6.854   1.241  0.9210 -0.4906 -0.8286
   49MOL    H8217458   3.753   6.920   1.257 -0.9361  0.2258  0.7568
   49MOL    H8317459   3.947   7.014   1.480 -0.7466 -0.3211  1.6435
   49MOL    H8417460   3.771   7.020   1.496 -1.0902 -0.5433 -1.9817
   49MOL    H8517461   3.769   6.772   1.413  1.7508 -1.1743 -0.5481
   49MOL    H8617462   3.941   6.782   1.442 -0.0775 -0.9520  1.6315
   49MOL    H8717463   3.784   6.688   1.625 -0.9877  0.3165 -1.7949
   49MOL    H8817464   3.707   6.844   1.635 -0.2094 -1.5310  1.6026
   49MOL    H8917465   3.990   6.740   1.720  0.3317  0.7865 -0.8220
   49MOL    H9017466   3.963   6.909   1.720 -0.1775  0.5086  1.1662
   49MOL    H9117467   3.863   6.805   1.828  1.6907 -0.0990  1.0444
   49MOL    C9217468   3.772   7.123   1.251 -0.5208  0.2990 -0.2823
   49MOL    C9317469   3.628   7.147   1.293  0.3240  0.0337 -0.0165
   49MOL    C9417470   3.565   7.289   1.309 -1.3519  0.6244  0.0467
   49MOL    C9517471   3.635   7.360   1.429  1.0076  0.0999 -0.1200
   49MOL    C9617472   3.586   7.313   1.567  0.4525  0.3430 -0.3021
   49MOL    C9717473   3.645   7.398   1.684 -0.5486 -0.0504  0.0913
   49MOL    H9817474   3.837   7.201   1.291 -1.5730  1.4060 -0.7149
   49MOL    H9917475   3.784   7.136   1.143  1.3859  0.8972 -0.0248
   49MOL   H10017476   3.617   7.097   1.389  1.0962  2.5717  1.4490
   49MOL   H10117477   3.456   7.290   1.309 -1.4306 -0.8779 -2.7779
   49MOL   H10217478   3.586   7.347   1.218 -0.2009  0.4369  0.1834
   49MOL   H10317479   3.743   7.357   1.417  0.9715  0.7684 -0.6062
   49MOL   H10417480   3.613   7.466   1.420  0.1374 -0.0943 -0.3143
   49MOL   H10517481   3.477   7.311   1.572  0.4447  0.0309 -0.5343
   49MOL   H10617482   3.613   7.208   1.583  1.1824  0.7440  1.1081
   49MOL   H10717483   3.749   7.380   1.710 -1.1981 -0.4783  2.4880
   49MOL   H10817484   3.633   7.505   1.666 -2.9688 -0.2499  0.2948
   49MOL   H10917485   3.599   7.387   1.782 -2.2875  3.6397 -0.2396
   49MOL   C11017486   3.530   7.074   1.194 -0.3985  0.2198  0.0631
   49MOL   C11117487   3.407   7.007   1.265  0.1867  0.7668 -0.3107
   49MOL   C11217488   3.439   6.887   1.349 -0.7315  0.2076 -0.4611
   49MOL   C11317489   3.317   6.851   1.439  0.6616  0.6469  0.2716
   49MOL   C11417490   3.343   6.725   1.527 -0.2121  0.0672 -0.3298
   49MOL   C11517491   3.233   6.703   1.632  0.3128 -0.6916 -0.1010
   49MOL   H11617492   3.505   7.148   1.117 -0.4353  0.6465  0.4890
   49MOL   H11717493   3.580   6.990   1.146  0.6996  1.5742 -1.1983
   49MOL   H11817494   3.355   7.082   1.326  0.7417  0.5475  0.4383
   49MOL   H11917495   3.520   6.913   1.417 -1.9895 -1.8444  1.8951
   49MOL   H12017496   3.462   6.801   1.286  2.8210 -0.2807  1.4074
   49MOL   H12117497   3.226   6.827   1.384  0.0984 -1.7718  2.1941
   49MOL   H12217498   3.299   6.933   1.508 -1.9720 -0.3989  0.8699
   49MOL   H12317499   3.442   6.735   1.573  0.5376 -0.1786 -1.8592
   49MOL   H12417500   3.359   6.635   1.467  0.6009 -0.0655  0.0748
   49MOL   H12517501   3.140   6.670   1.586  1.4813  0.4167 -3.3849
   49MOL   H12617502   3.269   6.621   1.694 -0.6097 -0.2986  0.9682
   49MOL   H12717503   3.222   6.789   1.698 -0.2796 -0.5925 -0.3279
   49MOL   C12817504   3.318   6.967   1.147  0.3601 -0.2899  0.7293
   49MOL   C12917505   3.226   7.083   1.103 -0.3229  0.4440  0.8415
   49MOL   C13017506   3.093   7.074   1.161 -0.2036 -0.3798 -0.2723
   49MOL   C13117507   3.088   7.101   1.315  0.1446  0.0107 -0.3399
   49MOL   C13217508   2.950   7.101   1.382  0.0584  0.4448 -0.1134
   49MOL   C13317509   2.875   7.239   1.376 -0.2244  0.3125  0.1633
   49MOL   H13417510   3.254   6.882   1.171  0.0759  0.0054  1.0111
   49MOL   H13517511   3.386   6.930   1.069 -0.0448 -0.2054  0.3318
   49MOL   H13617512   3.264   7.180   1.137 -2.3327  2.2863 -1.9861
   49MOL   H13717513   3.033   7.155   1.121  0.2709  0.4433  0.6483
   49MOL   H13817514   3.039   6.984   1.132 -0.9007  0.4226 -1.4989
   49MOL   H13917515   3.134   7.194   1.350 -0.6114 -0.4773  2.0886
   49MOL   H14017516   3.145   7.022   1.363  1.4858  1.4662  0.5154
   49MOL   H14117517   2.885   7.028   1.334  0.1806 -0.0030  0.3891
   49MOL   H14217518   2.961   7.066   1.485  0.3350 -0.3556 -0.4088
   49MOL   H14317519   2.851   7.244   1.270 -0.3311 -0.2359  0.1626
   49MOL   H14417520   2.928   7.331   1.405  1.7959 -0.8081  0.1223
   49MOL   H14517521   2.780   7.240   1.430  0.8148 -0.9222  2.1049
   49MOL   C14617522   3.206   7.097   0.953 -0.5931  0.2918  0.6697
   49MOL   C14717523   3.320   7.156   0.868  0.0265  0.4877 -0.1734
   49MOL   C14817524   3.343   7.302   0.901 -0.0216 -0.5653 -0.1323
   49MOL   C14917525   3.488   7.346   0.864 -0.8892  0.1991 -0.3552
   49MOL   C15017526   3.506   7.498   0.883 -0.2619  0.1497  0.2927
   49MOL   C15117527   3.636   7.573   0.836 -0.7452 -0.0385  0.0147
   49MOL   H15217528   3.179   6.995   0.925  0.9880 -0.0779  0.4765
   49MOL   H15317529   3.120   7.160   0.928 -0.8865 -1.7870 -4.3600
   49MOL   H15417530   3.414   7.104   0.887 -0.6800 -2.0155 -3.0843
   49MOL   H15517531   3.321   7.329   1.004  0.5782  1.9117 -0.5958
   49MOL   H15617532   3.276   7.361   0.838 -0.2756 -0.2764  0.4077
   49MOL   H15717533   3.557   7.297   0.933  0.9999  0.4337 -2.0234
   49MOL   H15817534   3.519   7.320   0.762 -0.2447  0.0618 -0.1263
   49MOL   H15917535   3.498   7.521   0.990  1.3844 -1.8965  0.8690
   49MOL   H16017536   3.424   7.547   0.829 -2.7083 -1.5387  2.3440
   49MOL   H16117537   3.721   7.526   0.886 -1.9030 -2.6377 -0.3530
   49MOL   H16217538   3.640   7.567   0.728  0.5185 -0.7266  0.0844
   49MOL   H16317539   3.648   7.673   0.877  1.3804 -0.4416  0.4477
   49MOL   C16417540   3.280   7.136   0.715  0.3341 -0.1296 -0.4314
   49MOL   C16517541   3.385   7.058   0.627  0.1622 -0.2897 -0.4906
   49MOL   C16617542   3.419   6.919   0.674 -0.2329  0.2906 -0.3387
   49MOL   C16717543   3.298   6.819   0.665 -0.2191  0.6288 -0.5037
   49MOL   C16817544   3.329   6.681   0.731 -0.7567 -0.0953  0.6222
   49MOL   C16917545   3.222   6.577   0.709 -0.4428 -0.0106  0.1935
   49MOL   H17017546   3.182   7.090   0.704 -0.1937  1.0456 -0.6997
   49MOL   H17117547   3.273   7.231   0.662 -0.7791 -0.9201 -1.7063
   49MOL   H17217548   3.479   7.113   0.624 -1.4925  2.6152 -0.6070
   49MOL   H17317549   3.467   6.916   0.772  0.9731  1.0554 -0.8895
   49MOL   H17417550   3.495   6.882   0.606  1.8652 -0.3758  2.2691
   49MOL   H17517551   3.266   6.799   0.562 -3.0282 -1.8611  0.7679
   49MOL   H17617552   3.206   6.859   0.709 -0.8611  0.8958 -2.0558
   49MOL   H17717553   3.354   6.698   0.835 -0.1924  1.2199  0.2811
   49MOL   H17817554   3.426   6.654   0.689 -1.9003 -0.8626 -1.6013
   49MOL   H17917555   3.210   6.554   0.604 -0.5503 -1.7225  0.5739
   49MOL   H18017556   3.121   6.615   0.726 -0.9705 -0.2922 -2.1059
   49MOL   H18117557   3.243   6.483   0.759 -1.2344 -0.0906  0.3863
   49MOL   C18217558   3.333   7.063   0.470  0.4279  0.0531 -0.1061
   49MOL   C18317559   3.445   7.030   0.365  0.0030 -0.0497  0.3070
   49MOL   C18417560   3.553   7.149   0.347  0.5875  0.6848 -0.5804
   49MOL   C18517561   3.671   7.091   0.255  0.2818  0.2246  1.1593
   49MOL   C18617562   3.779   7.196   0.227  0.0444  0.0871  0.4029
   49MOL   C18717563   3.891   7.153   0.137 -0.1017  0.3850  0.6459
   49MOL   H18817564   3.246   6.998   0.461  0.0305  0.7265 -1.1388
   49MOL   H18917565   3.301   7.165   0.450 -1.7920 -0.6619 -0.2757
   49MOL   H19017566   3.496   6.937   0.390  0.1150 -0.9850 -3.1309
   49MOL   H19117567   3.503   7.241   0.317  1.0569  1.5059  1.0826
   49MOL   H19217568   3.605   7.168   0.441  1.1375  0.1127 -0.7619
   49MOL   H19317569   3.631   7.060   0.159  2.4918  1.2305 -0.1167
   49MOL   H19417570   3.700   6.990   0.283  1.1091  0.0914 -0.1113
   49MOL   H19517571   3.824   7.230   0.320 -1.1282 -3.0929  2.2187
   49MOL   H19617572   3.725   7.280   0.183 -1.4780 -1.9531 -1.7696
   49MOL   H19717573   3.963   7.080   0.176 -0.2730 -0.4224 -0.5238
   49MOL   H19817574   3.945   7.240   0.100  1.4844 -0.9334 -0.2029
   49MOL   H19917575   3.849   7.103   0.049 -1.8732 -2.3574  2.9254
   49MOL   C20017576   3.367   7.000   0.229 -0.6093 -0.0322  0.1191
   49MOL   C20117577   3.292   6.866   0.217  0.6685 -0.2313  0.4863
   49MOL   C20217578   3.165   6.896   0.125  0.0707 -0.6043 -0.6597
   49MOL   C20317579   3.193   6.914   7.703  0.2572 -0.6883 -0.2864
   49MOL   C20417580   3.066   6.963   7.629 -0.0749 -0.8056  0.4070
   49MOL   C20517581   3.110   6.988   7.487 -0.1425 -0.1243  0.0927
   49MOL   H20617582   3.436   6.989   0.145 -0.5306  2.6506 -0.2256
   49MOL   H20717583   3.306   7.087   0.206 -1.7842 -0.7128  0.6422
   49MOL   H20817584   3.255   6.842   0.317  0.0539 -2.5261 -0.2521
   49MOL   H20917585   3.118   6.987   0.162  0.9904 -0.5587  0.4635
   49MOL   H21017586   3.101   6.812   0.150 -0.0805 -0.0174  0.9971
   49MOL   H21117587   3.218   6.820   7.654  1.1915  0.6220 -2.3983
   49MOL   H21217588   3.267   6.994   7.691 -1.7696  1.2413 -0.1160
   49MOL   H21317589   3.028   7.054   7.676 -0.5057 -0.2108 -1.0633
   49MOL   H21417590   2.989   6.886   7.632  0.4606 -1.3233  1.2562
   49MOL   H21517591   3.033   7.037   7.427  0.8902  0.9388 -0.3805
   49MOL   H21617592   3.192   7.059   7.478  0.2298 -0.7420 -1.5662
   49MOL   H21717593   3.133   6.888   7.451 -1.0494 -0.3220  0.0553
   49MOL   C21817594   3.393   6.758   0.166  0.2593 -0.0608  0.7620
   49MOL   C21917595   3.329   6.622   0.166  0.0797  0.1074  0.5298
   49MOL   C22017596   3.332   6.564   0.312  0.5891 -0.2972  1.2047
   49MOL   C22117597   3.252   6.434   0.323 -0.2225 -0.5501 -0.2113
   49MOL   C22217598   3.302   6.344   0.441 -0.2343 -1.2336  0.0126
   49MOL   C22317599   3.344   6.204   0.396  0.1599  0.2109 -0.3606
   49MOL   H22417600   3.425   6.790   0.067 -0.9986  3.7842  1.5283
   49MOL   H22517601   3.478   6.760   0.233 -0.7537 -0.3584  2.0901
   49MOL   H22617602   3.230   6.623   0.120  1.2592  1.8984 -2.0658
   49MOL   H22717603   3.293   6.642   0.377  0.4458  0.4979  0.1732
   49MOL   H22817604   3.432   6.537   0.346 -0.0644 -2.4066  1.5254
   49MOL   H22917605   3.242   6.381   0.228 -2.4532  2.5986 -1.8533
   49MOL   H23017606   3.144   6.449   0.336 -0.0444 -0.4574  1.1922
   49MOL   H23117607   3.384   6.392   0.494 -0.7736 -0.1685 -0.1035
   49MOL   H23217608   3.219   6.337   0.512  0.0899 -2.6991  0.2584
   49MOL   H23317609   3.443   6.188   0.353  0.6028 -1.7728  1.3294
   49MOL   H23417610   3.286   6.162   0.313 -0.3715 -0.1141  0.1726
   49MOL   H23517611   3.342   6.134   0.479 -0.3071  0.9879  0.2910
   49MOL   C23617612   3.421   6.522   0.087  0.0789 -0.0696  0.2212
   49MOL   C23717613   3.427   6.549   7.662 -0.5294  1.0260 -0.0515
   49MOL   C23817614   3.295   6.504   7.595 -0.7806 -0.8677  0.4217
   49MOL   C23917615   3.296   6.524   7.441 -0.1959 -0.1550  0.5921
   49MOL   C24017616   3.149   6.528   7.389  0.6215 -0.3500 -0.0392
   49MOL   C24117617   3.138   6.597   7.255  0.3353 -0.2610  0.7500
   49MOL   H24217618   3.523   6.536   0.122 -0.1167 -1.0974  1.2577
   49MOL   H24317619   3.394   6.419   0.112 -0.5928 -0.0808 -0.5265
   49MOL   H24417620   3.439   6.657   7.648 -1.2193  1.3508  1.7324
   49MOL   H24517621   3.267   6.404   7.626 -0.1988 -0.5009  2.1646
   49MOL   H24617622   3.216   6.560   7.647 -0.5803 -0.6280  0.4697
   49MOL   H24717623   3.342   6.440   7.389 -0.4801  0.0292  0.0304
   49MOL   H24817624   3.353   6.613   7.413 -1.6618  1.0000  1.1804
   49MOL   H24917625   3.111   6.426   7.383  2.5477 -1.0407 -0.8485
   49MOL   H25017626   3.082   6.574   7.462 -0.6315 -1.3134 -0.5428
   49MOL   H25117627   3.036   6.594   7.216  0.1372  1.2201  1.1261
   49MOL   H25217628   3.165   6.702   7.264 -1.2721  0.0825  1.7967
   49MOL   H25317629   3.202   6.550   7.180 -0.1630 -0.4185  0.4153
   49MOL   C25417630   3.553   6.461   7.612 -0.1753 -0.2854  0.0424
   49MOL   C25517631   3.638   6.512   7.490 -0.1279  0.7726 -0.0226
   49MOL   C25617632   3.674   6.394   7.396 -0.1061  0.6486 -0.0807
   49MOL   C25717633   3.731   6.424   7.255 -0.2953  0.3186 -0.3206
   49MOL   C25817634   3.765   6.309   7.162  0.3985  0.0320  0.4575
   49MOL   C25917635   3.853   6.354   7.037  0.1597 -0.3188 -0.2350
   49MOL   H26017636   3.515   6.359   7.601 -1.1490 -0.1208  1.7974
   49MOL   H26117637   3.629   6.452   7.690 -0.4299 -1.6071  0.1457
   49MOL   H26217638   3.590   6.585   7.424  2.2279  1.0734 -1.4555
   49MOL   H26317639   3.741   6.327   7.450  1.8371  0.4288 -2.6673
   49MOL   H26417640   3.585   6.333   7.381 -0.1931  0.5414  0.8516
   49MOL   H26517641   3.656   6.480   7.198  1.5556  0.2838 -2.9213
   49MOL   H26617642   3.817   6.490   7.267 -1.5085  1.5319  1.9684
   49MOL   H26717643   3.682   6.257   7.115  2.6589 -1.2569 -2.2498
   49MOL   H26817644   3.827   6.234   7.213  1.0315  0.4085  0.2395
   49MOL   H26917645   3.891   6.456   7.042 -1.0594  0.2534 -2.1044
   49MOL   H27017646   3.802   6.354   6.940 -1.3506 -0.4955  0.5346
   49MOL   H27117647   3.940   6.290   7.029 -0.3691 -0.9987 -0.6273
   49MOL   C27217648   3.764   6.590   7.539 -0.0857  0.1251 -0.0412
   49MOL   C27317649   3.741   6.719   7.621  0.5386 -0.0117 -0.5857
   49MOL   C27417650   3.667   6.827   7.533 -0.2043  0.0747  0.4995
   49MOL   C27517651   3.751   6.870   7.403 -0.4068 -0.1150  0.4944
   49MOL   C27617652   3.676   6.982   7.317  0.3712 -0.2737 -0.0366
   49MOL   C27717653   3.780   7.062   7.233  0.0636  0.4338  0.5568
   49MOL   H27817654   3.806   6.521   7.613 -1.9192 -0.7423  0.2274
   49MOL   H27917655   3.840   6.597   7.461 -0.8346  0.4085 -0.7475
   49MOL   H28017656   3.674   6.684   7.700 -0.3596  0.7427 -1.0087
   49MOL   H28117657   3.645   6.911   7.600  1.7740 -1.1478  2.7645
   49MOL   H28217658   3.575   6.783   7.495 -0.4201  1.9563 -1.2649
   49MOL   H28317659   3.761   6.778   7.346  0.1228 -0.2617  0.8221
   49MOL   H28417660   3.850   6.905   7.431  0.5019 -0.7493 -1.8102
   49MOL   H28517661   3.605   6.920   7.262  1.9394 -2.8226  0.7312
   49MOL   H28617662   3.617   7.039   7.389 -1.0061 -2.6262  0.7364
   49MOL   H28717663   3.856   7.114   7.291  0.6037 -0.6963  0.8808
   49MOL   H28817664   3.831   7.004   7.156 -0.0264 -1.2982  1.7610
   49MOL   H28917665   3.718   7.134   7.181 -0.6575  0.1479  1.0174
   49MOL   C29017666   3.865   6.775   7.683 -0.9362 -0.0421  0.2290
   49MOL   C29117667   3.921   6.709   0.083 -0.1837  0.6739  0.1949
   49MOL   C29217668   4.067   6.771   0.103 -0.0573 -0.0535 -1.1403
   49MOL   C29317669   4.188   6.711   0.030 -0.0416 -0.3310  0.1261
   49MOL   C29417670   4.323   6.793   0.035  0.3285 -0.1069 -0.3278
   49MOL   C29517671   4.388   6.791   0.171  0.2565 -0.1539 -0.5443
   49MOL   H29617672   3.831   6.870   7.723  1.9862  0.2632  2.1350
   49MOL   H29717673   3.938   6.795   7.605 -0.8234  1.8331  0.8028
   49MOL   H29817674   3.948   6.603   0.081 -1.1338  0.3998  1.4712
   49MOL   H29917675   4.084   6.769   0.211 -3.1515  1.8937 -0.5388
   49MOL   H30017676   4.064   6.879   0.087  1.5201  0.3414  1.0697
   49MOL   H30117677   4.213   6.609   0.060 -0.0031  0.3196  2.3758
   49MOL   H30217678   4.161   6.708   7.652  0.2910  2.5284 -0.0698
   49MOL   H30317679   4.304   6.899   0.017 -0.0858 -0.3601 -1.4515
   49MOL   H30417680   4.402   6.771   7.691  2.0094  1.5605  0.9897
   49MOL   H30517681   4.492   6.823   0.173  0.0161  0.5745  2.7208
   49MOL   H30617682   4.394   6.690   0.211  2.0357  0.8741  1.9562
   49MOL   H30717683   4.321   6.842   0.240 -1.0757 -1.5151 -0.8098
   49MOL   C30817684   3.826   6.751   0.200 -0.1333  0.5229  0.0812
   49MOL   C30917685   3.844   6.669   0.336 -0.5992  0.1826 -0.0022
   49MOL   C31017686   3.761   6.538   0.349 -0.5893 -0.5940 -0.2685
   49MOL   C31117687   3.780   6.434   0.239 -0.8191  0.6185 -0.5264
   49MOL   C31217688   3.923   6.367   0.234 -0.2736 -0.4706  0.4051
   49MOL   C31317689   3.955   6.294   0.103 -0.6583 -0.2193 -0.2992
   49MOL   H31417690   3.848   6.857   0.211 -2.3301  1.2198 -1.9877
   49MOL   H31517691   3.721   6.745   0.174 -0.1595 -3.7382  0.8511
   49MOL   H31617692   3.949   6.647   0.355 -1.0627 -2.3711 -0.2568
   49MOL   H31717693   3.654   6.554   0.346 -0.4631  0.3262 -0.0911
   49MOL   H31817694   3.774   6.490   0.447  1.5778  1.2625  0.3998
   49MOL   H31917695   3.751   6.468   0.139 -1.0119 -1.4783 -1.2244
   49MOL   H32017696   3.711   6.351   0.256  0.8294 -0.4194  1.2507
   49MOL   H32117697   4.006   6.434   0.257  0.5775 -2.1811  2.5115
   49MOL   H32217698   3.930   6.294   0.315  2.1693 -0.1756  0.5166
   49MOL   H32317699   3.981   6.368   0.028 -1.5630  0.7653  0.3445
   49MOL   H32417700   3.881   6.227   0.058  1.6686 -3.0520 -0.0652
   49MOL   H32517701   4.043   6.231   0.116  0.3887  0.8313 -2.1490
   49MOL   C32617702   3.793   6.757   0.452 -0.6155  0.4392 -0.3470
   49MOL   C32717703   3.893   6.845   0.524 -0.1553 -0.4799  0.0374
   49MOL   C32817704   3.844   6.981   0.580  0.6435 -0.3051  0.3054
   49MOL   C32917705   3.949   7.085   0.589  0.1721  0.3821  0.4672
   49MOL   C33017706   3.893   7.230   0.611 -0.4609  0.3029  0.3041
   49MOL   C33117707   3.832   7.250   0.747  0.6076 -0.6177 -1.1081
   49MOL   H33217708   3.756   6.703   0.539 -0.1234  0.4396 -0.1346
   49MOL   H33317709   3.705   6.813   0.422  1.2494  2.9809 -1.2675
   49MOL   H33417710   3.947   6.869   0.432  0.7071 -1.0109  0.4046
   49MOL   H33517711   3.767   7.007   0.506 -0.0646 -4.2696 -0.4937
   49MOL   H33617712   3.790   6.954   0.670 -1.9695  3.0569 -0.1603
   49MOL   H33717713   4.017   7.081   0.505 -1.2879 -2.9982 -0.6332
   49MOL   H33817714   4.009   7.054   0.674  0.3805 -1.5261 -0.3518
   49MOL   H33917715   3.966   7.308   0.590  0.1993  0.0310  1.5274
   49MOL   H34017716   3.818   7.258   0.537  0.2972 -4.1897 -2.3560
   49MOL   H34117717   3.734   7.204   0.760  0.5563 -0.1529  0.1973
   49MOL   H34217718   3.829   7.357   0.769  0.1692 -0.7548 -0.4897
   49MOL   H34317719   3.891   7.197   0.821  0.9325 -2.0686 -2.3661
   49MOL   C34417720   3.986   6.767   0.618  0.3587 -0.1112  0.4148
   49MOL   C34517721   3.936   6.756   0.765 -0.0360 -0.9026 -0.6732
   49MOL   C34617722   4.030   6.673   0.858  0.0741 -0.3106 -0.3895
   49MOL   C34717723   4.023   6.521   0.831 -0.0050  0.1611 -0.7110
   49MOL   C34817724   4.078   6.427   0.940  0.2200  0.1737 -0.0774
   49MOL   C34917725   4.048   6.282   0.923  0.1997 -0.3643  0.1288
   49MOL   H35017726   3.998   6.666   0.578 -2.9933 -0.8573  1.1354
   49MOL   H35117727   4.080   6.821   0.609  0.8874 -0.2118  4.4599
   49MOL   H35217728   3.835   6.715   0.766 -0.9684  1.3526 -0.0004
   49MOL   H35317729   4.135   6.699   0.845 -0.1696  1.3991  0.8646
   49MOL   H35417730   4.001   6.696   0.960  1.0665  1.3454 -0.4616
   49MOL   H35517731   3.915   6.506   0.830 -0.2105  1.4405  0.4291
   49MOL   H35617732   4.057   6.497   0.730  1.0606 -2.3196  0.1981
   49MOL   H35717733   4.182   6.448   0.964  0.2974 -0.0990 -0.1735
   49MOL   H35817734   4.029   6.461   1.032 -3.1044 -2.5562 -0.7295
   49MOL   H35917735   3.944   6.270   0.896  0.5658  0.6406 -1.8215
   49MOL   H36017736   4.103   6.237   0.840 -0.0297  0.9041 -0.7134
   49MOL   H36117737   4.052   6.225   1.016  0.0593 -1.5781 -0.5844
   49MOL   H36217738   3.925   6.849   0.820  3.6490 -0.7601 -0.0882
   50MOL     C117739   4.688   2.296   0.138 -0.2574  0.1630  1.1019
   50MOL     C217740   4.607   2.422   0.182  0.2925  0.9971 -0.3303
   50MOL     C317741   4.681   2.540   0.241  0.2768  0.5550 -0.2681
   50MOL     C417742   4.776   2.508   0.349  0.6105 -0.2030 -0.1494
   50MOL     C517743   4.833   2.639   0.403  0.2470 -0.2937 -0.1018
   50MOL     C617744   4.926   2.610   0.521 -0.5281 -0.2073 -0.8197
   50MOL     H717745   4.742   2.246   0.218  0.0722 -0.1454  0.6830
   50MOL     H817746   4.618   2.228   0.090 -1.0168  1.4475  0.3403
   50MOL     H917747   4.554   2.463   0.095  0.0088  1.0086 -0.1531
   50MOL    H1017748   4.607   2.609   0.283  0.8371  1.3349 -0.5452
   50MOL    H1117749   4.732   2.598   0.163  0.1510  0.3829 -0.4791
   50MOL    H1217750   4.856   2.448   0.305 -0.0586 -0.9553 -0.3536
   50MOL    H1317751   4.726   2.458   0.432  0.8842  1.7359  1.2044
   50MOL    H1417752   4.891   2.679   0.320  0.8607 -2.1014 -0.5556
   50MOL    H1517753   4.759   2.713   0.434  1.0618 -0.0687  1.3737
   50MOL    H1617754   4.929   2.703   0.577 -1.3761  1.5839 -3.6504
   50MOL    H1717755   5.026   2.575   0.495  0.9687  2.6896  0.7733
   50MOL    H1817756   4.889   2.541   0.597 -0.6819  0.5642 -0.1936
   50MOL    H1917757   4.762   2.329   0.065  0.2442 -2.1566  0.5299
   50MOL    C2017758   4.487   2.367   0.267  0.1595 -0.2913 -0.2590
   50MOL    C2117759   4.363   2.311   0.191 -0.4117 -0.6558  0.4438
   50MOL    C2217760   4.302   2.193   0.275 -0.0142 -0.2829 -0.8626
   50MOL    C2317761   4.181   2.111   0.221 -0.8824  0.7097 -0.4766
   50MOL    C2417762   4.141   1.992   0.310 -0.2665 -0.3925  0.0687
   50MOL    C2517763   4.059   2.025   0.427 -0.4958  0.0278 -0.0721
   50MOL    H2617764   4.453   2.458   0.317 -1.0292 -0.4931 -0.6840
   50MOL    H2717765   4.518   2.303   0.350  2.1133  1.9372  0.7924
   50MOL    H2817766   4.400   2.287   0.092  0.3936  2.7046 -0.1238
   50MOL    H2917767   4.286   2.226   0.378  0.8789  1.0971 -1.1537
   50MOL    H3017768   4.378   2.115   0.277  1.1693  0.8024 -2.2753
   50MOL    H3117769   4.221   2.064   0.131 -2.5048 -2.5526  0.4190
   50MOL    H3217770   4.090   2.170   0.209 -0.7446  0.7399 -1.3916
   50MOL    H3317771   4.093   1.914   0.251  0.8570  1.2519 -3.1276
   50MOL    H3417772   4.232   1.944   0.347 -1.4985 -1.7120  1.5025
   50MOL    H3517773   3.967   2.073   0.392  0.0136  2.1367  1.3827
   50MOL    H3617774   4.047   1.933   0.486  3.9432 -0.7561 -0.2490
   50MOL    H3717775   4.117   2.091   0.491 -1.7715 -0.0296  1.1655
   50MOL    C3817776   4.258   2.426   0.154 -0.6052 -0.6061 -0.2893
   50MOL    C3917777   4.181   2.401   0.026  0.0628  0.2242  0.6038
   50MOL    C4017778   4.032   2.444   0.041  0.1756 -0.2835  0.6366
   50MOL    C4117779   4.014   2.592   0.076 -0.3940 -0.4936 -0.5669
   50MOL    C4217780   3.876   2.645   0.082 -0.4789  0.8242  1.0904
   50MOL    C4317781   3.815   2.619   0.219  0.2992 -0.1454  0.1224
   50MOL    H4417782   4.303   2.524   0.166 -2.1449  0.0352  0.3594
   50MOL    H4517783   4.188   2.429   0.238 -0.1530 -1.2976  0.1192
   50MOL    H4617784   4.185   2.293   0.009 -0.5057  0.3696 -0.4889
   50MOL    H4717785   3.978   2.402   7.683  0.4533 -1.1656  0.8964
   50MOL    H4817786   3.997   2.388   0.128 -2.9649 -0.5077 -0.6951
   50MOL    H4917787   4.068   2.631   0.162 -1.9436 -1.5013  0.9032
   50MOL    H5017788   4.065   2.643   7.721 -0.1967  0.2848  0.0373
   50MOL    H5117789   3.881   2.753   0.066 -1.0305  0.6616 -0.2610
   50MOL    H5217790   3.826   2.602   7.722 -2.1458  2.7616  1.0561
   50MOL    H5317791   3.846   2.692   0.294 -1.3980 -0.2654  0.9710
   50MOL    H5417792   3.846   2.521   0.256  2.7886  0.5781  0.0086
   50MOL    H5517793   3.706   2.630   0.221  0.4825  1.8244  0.5382
   50MOL    C5617794   4.250   2.455   7.624 -0.5062 -0.4912 -0.0767
   50MOL    C5717795   4.240   2.355   7.505  0.8366 -0.5493  0.8013
   50MOL    C5817796   4.339   2.239   7.518  0.1787  0.7674 -0.1543
   50MOL    C5917797   4.312   2.113   7.434  0.1556  0.1525 -0.4274
   50MOL    C6017798   4.420   2.007   7.453  0.3556 -0.4211  0.1054
   50MOL    C6117799   4.543   2.041   7.375 -0.0730 -0.4721 -0.4605
   50MOL    H6217800   4.189   2.534   7.579 -0.5226 -0.0355  0.7382
   50MOL    H6317801   4.351   2.490   7.644  0.0707 -0.7287 -2.4664
   50MOL    H6417802   4.147   2.302   7.525 -1.8718  3.2291 -1.2866
   50MOL    H6517803   4.441   2.272   7.497  0.2449  0.4168 -0.3905
   50MOL    H6617804   4.333   2.212   7.624  1.2368  0.0591 -0.2607
   50MOL    H6717805   4.281   2.144   7.334  1.7777 -1.0373 -1.3165
   50MOL    H6817806   4.221   2.074   7.480  1.1159  0.0789  1.4387
   50MOL    H6917807   4.429   1.993   7.561  3.6160 -2.0360 -0.3077
   50MOL    H7017808   4.377   1.914   7.416  0.7183 -0.5614  0.0338
   50MOL    H7117809   4.516   2.068   7.273  0.1316 -1.1293 -0.6936
   50MOL    H7217810   4.580   2.136   7.412 -1.4574 -0.3224  0.5640
   50MOL    H7317811   4.622   1.965   7.374  0.8494  0.4783 -0.6254
   50MOL    C7417812   4.243   2.419   7.365 -0.8291  0.1244  0.6365
   50MOL    C7517813   4.113   2.495   7.324 -0.7040  0.2334  0.9123
   50MOL    C7617814   4.151   2.635   7.260 -0.3136  0.5116  0.3449
   50MOL    C7717815   4.211   2.742   7.340 -0.2208  0.1948 -0.0332
   50MOL    C7817816   4.196   2.884   7.288 -1.2587  0.5910 -0.9039
   50MOL    C7917817   4.281   2.986   7.369 -0.2857  0.6207 -0.2163
   50MOL    H8017818   4.327   2.490   7.368 -0.8879  0.2544 -0.6717
   50MOL    H8117819   4.263   2.350   7.283  0.2741  0.5110  0.5651
   50MOL    H8217820   4.046   2.500   7.411 -0.3471 -3.4556  1.4709
   50MOL    H8317821   4.203   2.615   7.166 -1.1088  2.1435 -0.4609
   50MOL    H8417822   4.058   2.671   7.218 -1.1601 -2.1481 -0.1834
   50MOL    H8517823   4.164   2.733   7.438 -0.6718  1.9270 -0.0853
   50MOL    H8617824   4.315   2.722   7.366 -0.0527 -0.6237 -1.2887
   50MOL    H8717825   4.091   2.914   7.292 -1.7742 -1.2163 -0.7788
   50MOL    H8817826   4.229   2.887   7.184  0.0726 -1.9650 -0.5870
   50MOL    H8917827   4.273   3.087   7.329 -2.0916  0.9971  1.0660
   50MOL    H9017828   4.234   2.983   7.466 -0.0879 -1.3401 -0.1671
   50MOL    H9117829   4.385   2.951   7.365 -1.0692 -1.8996  0.6166
   50MOL    C9217830   4.037   2.411   7.215 -0.2848  0.1761  0.2423
   50MOL    C9317831   3.986   2.273   7.267 -0.7074  0.0987 -0.0536
   50MOL    C9417832   3.894   2.272   7.393  0.1634  0.1335 -0.4139
   50MOL    C9517833   3.757   2.354   7.383  0.5887  0.5720 -0.2045
   50MOL    C9617834   3.683   2.371   7.519 -0.2466 -0.0172  0.7828
   50MOL    C9717835   3.624   2.247   7.576 -0.1437  0.2789 -0.3062
   50MOL    H9817836   3.956   2.476   7.182 -0.9606 -0.5372  0.4703
   50MOL    H9917837   4.108   2.388   7.136 -0.3944 -2.9311  0.9544
   50MOL   H10017838   4.078   2.221   7.292 -1.8437 -2.0048 -0.1092
   50MOL   H10117839   3.945   2.326   7.474 -0.6290  0.8382 -0.3739
   50MOL   H10217840   3.888   2.175   7.442 -3.3574  0.7784  0.5744
   50MOL   H10317841   3.773   2.453   7.339  0.7720  0.7099  0.1663
   50MOL   H10417842   3.700   2.304   7.306  1.7209 -1.7697  0.4340
   50MOL   H10517843   3.748   2.417   7.593  0.7003 -1.9766  1.2062
   50MOL   H10617844   3.601   2.438   7.492  0.5818 -0.5186 -3.3632
   50MOL   H10717845   3.549   2.204   7.510  2.3612 -2.8641 -1.2138
   50MOL   H10817846   3.695   2.168   7.602 -1.4922 -1.2883 -1.2321
   50MOL   H10917847   3.565   2.267   7.666  1.0253 -0.3793  0.6197
   50MOL   C11017848   3.917   2.200   7.153  0.1544  0.0640  0.6138
   50MOL   C11117849   3.900   2.052   7.173  0.4787  0.2534  0.0106
   50MOL   C11217850   4.026   1.974   7.184 -0.1416  0.3423 -0.0004
   50MOL   C11317851   4.132   1.998   7.074  0.6118 -0.3810  0.0944
   50MOL   C11417852   4.230   1.883   7.084  0.0325  0.1380  0.1793
   50MOL   C11517853   4.354   1.898   6.997 -0.8245 -0.3043 -0.1329
   50MOL   H11617854   3.818   2.244   7.145  1.1987  2.1237 -1.5569
   50MOL   H11717855   3.965   2.227   7.058  0.6775 -0.3982  0.7407
   50MOL   H11817856   3.828   2.043   7.254 -1.6638  1.1440 -1.7343
   50MOL   H11917857   4.007   1.867   7.179  2.0473 -0.1572  1.8538
   50MOL   H12017858   4.075   1.988   7.280 -1.1624 -2.9223  1.0738
   50MOL   H12117859   4.192   2.088   7.088  1.2797 -0.9316  0.8091
   50MOL   H12217860   4.094   2.008   6.972  1.9165  3.2792 -0.1031
   50MOL   H12317861   4.178   1.791   7.055  0.4737 -0.0496 -0.0272
   50MOL   H12417862   4.258   1.864   7.188 -0.5652 -0.8713  0.1635
   50MOL   H12517863   4.328   1.934   6.898 -0.8991 -0.2675 -0.1002
   50MOL   H12617864   4.417   1.979   7.035 -1.1512 -0.6206  1.0975
   50MOL   H12717865   4.419   1.810   7.000 -0.4973 -0.1595 -2.1569
   50MOL   C12817866   3.802   1.989   7.068 -0.1791 -0.0077  0.1762
   50MOL   C12917867   3.696   1.897   7.116  0.0564  0.2639 -0.0196
   50MOL   C13017868   3.578   1.980   7.178  0.3915  0.0989  0.5221
   50MOL   C13117869   3.440   1.913   7.168 -0.1623  0.7022 -0.2513
   50MOL   C13217870   3.321   1.997   7.231  0.4526 -0.2061 -0.1545
   50MOL   C13317871   3.197   1.918   7.266 -0.4225  0.7260  0.5436
   50MOL   H13417872   3.852   1.947   6.980  1.9947 -3.1976  2.8256
   50MOL   H13517873   3.751   2.068   7.013 -3.4499 -0.3285  2.6115
   50MOL   H13617874   3.655   1.846   7.029  0.5374 -1.0143  0.4915
   50MOL   H13717875   3.593   2.002   7.284 -1.8360 -0.4961  0.9913
   50MOL   H13817876   3.563   2.078   7.131 -0.8622 -0.2028  0.2776
   50MOL   H13917877   3.450   1.819   7.221 -0.3727  1.0336  0.3745
   50MOL   H14017878   3.418   1.889   7.064  0.6323  1.5646 -0.6242
   50MOL   H14117879   3.348   2.043   7.326 -0.7328 -0.3986  0.2841
   50MOL   H14217880   3.299   2.074   7.157  2.1347  1.0988  0.6578
   50MOL   H14317881   3.135   1.915   7.177  2.4429 -3.5675 -1.5009
   50MOL   H14417882   3.137   1.958   7.348 -2.5979 -0.3736 -0.4743
   50MOL   H14517883   3.222   1.816   7.295 -1.7517  0.5404  1.0472
   50MOL   C14617884   3.740   1.777   7.194 -0.8121 -0.7045 -0.2282
   50MOL   C14717885   3.814   1.647   7.137  0.0859 -0.0626  0.0003
   50MOL   C14817886   3.722   1.574   7.028 -0.7308 -0.5437  0.0972
   50MOL   C14917887   3.599   1.507   7.078  0.4257  0.1847  0.2182
   50MOL   C15017888   3.506   1.436   6.967  0.0690 -0.0240 -0.1346
   50MOL   C15117889   3.386   1.350   7.017 -0.6191  0.0119  0.3120
   50MOL   H15217890   3.796   1.801   7.285  0.6903 -1.6781 -0.8885
   50MOL   H15317891   3.647   1.729   7.224 -1.1822  0.5483  0.6831
   50MOL   H15417892   3.911   1.667   7.090 -0.5628 -0.8686 -1.7338
   50MOL   H15517893   3.796   1.511   6.979  0.2975 -0.6163  1.7113
   50MOL   H15617894   3.695   1.650   6.954 -0.4006  1.1854  1.6955
   50MOL   H15717895   3.629   1.444   7.162 -1.8131 -2.5372 -0.9302
   50MOL   H15817896   3.528   1.586   7.104  1.6810  1.7091 -0.9085
   50MOL   H15917897   3.573   1.370   6.912 -0.1373 -2.1848  2.1232
   50MOL   H16017898   3.473   1.514   6.898  1.2443 -0.2757 -1.0062
   50MOL   H16117899   3.329   1.409   7.088 -0.6048  0.0197  0.3165
   50MOL   H16217900   3.316   1.315   6.942 -0.5057 -1.5870  0.9341
   50MOL   H16317901   3.415   1.266   7.079 -0.3775  0.8849  1.3951
   50MOL   C16417902   3.867   1.559   7.248 -0.1780  0.4837  0.3849
   50MOL   C16517903   3.929   1.419   7.202 -0.4694 -0.1085  0.1138
   50MOL   C16617904   4.070   1.423   7.113  0.7894  0.1475 -0.2021
   50MOL   C16717905   4.191   1.476   7.194 -0.1349  0.1061 -0.5217
   50MOL   C16817906   4.316   1.481   7.107 -0.6312 -0.2033  0.5768
   50MOL   C16917907   4.422   1.547   7.195 -0.1545  0.4902  0.0727
   50MOL   H17017908   3.935   1.612   7.315  0.9403 -0.9562  0.4121
   50MOL   H17117909   3.786   1.529   7.315 -1.3860  0.0154 -1.2552
   50MOL   H17217910   3.848   1.370   7.146  1.6561 -0.9480 -2.3310
   50MOL   H17317911   4.063   1.498   7.034  2.1354 -1.6924 -2.1182
   50MOL   H17417912   4.090   1.324   7.071 -1.0285 -0.9125  1.3510
   50MOL   H17517913   4.208   1.407   7.277 -2.8684 -1.2279 -0.9955
   50MOL   H17617914   4.173   1.570   7.246  0.2798 -1.3213  2.3100
   50MOL   H17717915   4.298   1.542   7.019 -1.6165 -0.2398  0.7409
   50MOL   H17817916   4.345   1.382   7.073  1.0811  1.0598 -1.7998
   50MOL   H17917917   4.506   1.558   7.127 -0.6298  1.1904 -0.4087
   50MOL   H18017918   4.446   1.484   7.281  0.5624  0.3229 -0.2423
   50MOL   H18117919   4.408   1.641   7.248  1.4427  0.1924  1.0506
   50MOL   C18217920   3.951   1.333   7.322  0.2774  0.0962  0.3907
   50MOL   C18317921   3.996   1.185   7.306  0.0044 -0.3310 -0.5494
   50MOL   C18417922   3.935   1.119   7.179 -0.1844 -0.2344  0.4886
   50MOL   C18517923   3.786   1.103   7.189  0.1261 -0.3462 -0.8786
   50MOL   C18617924   3.738   1.041   7.061  0.2204 -0.4851 -0.0146
   50MOL   C18717925   3.588   1.018   7.046  0.6233 -0.3930 -0.0931
   50MOL   H18817926   4.014   1.387   7.393 -0.0174  2.1314 -0.8455
   50MOL   H18917927   3.850   1.319   7.362  1.0583  2.0367  3.2637
   50MOL   H19017928   4.103   1.197   7.287 -0.6027  4.0926 -1.5643
   50MOL   H19117929   3.948   1.172   7.084 -1.9902 -0.3466  0.1629
   50MOL   H19217930   3.979   1.020   7.167  0.1926 -0.2294  1.7383
   50MOL   H19317931   3.720   1.187   7.207  2.5150  1.5291 -0.6268
   50MOL   H19417932   3.762   1.032   7.269  1.0840 -0.1776 -0.4242
   50MOL   H19517933   3.791   0.949   7.036  0.6987 -0.5409  1.1391
   50MOL   H19617934   3.769   1.106   6.980 -1.8737  0.7300  0.1240
   50MOL   H19717935   3.569   0.944   6.968  1.5236  0.1892 -0.8752
   50MOL   H19817936   3.539   1.113   7.024 -0.7834 -0.7995  1.1478
   50MOL   H19917937   3.537   0.987   7.138 -0.6118 -1.0146 -0.9721
   50MOL   C20017938   3.984   1.100   7.429  0.4040  0.6501  0.3018
   50MOL   C20117939   4.038   1.145   7.569 -0.3703  0.9299 -0.2452
   50MOL   C20217940   3.956   1.081   7.684 -0.0897 -0.2351  0.6966
   50MOL   C20317941   3.832   1.154   7.722 -0.2237  0.5691 -0.1440
   50MOL   C20417942   3.851   1.287   0.061 -0.2405 -0.3444 -0.1780
   50MOL   C20517943   3.714   1.365   0.092 -0.7815  0.0721  0.3649
   50MOL   H20617944   4.030   1.002   7.417 -0.9469  0.2398 -1.6006
   50MOL   H20717945   3.876   1.088   7.437  0.0984  2.1915 -1.4386
   50MOL   H20817946   4.037   1.254   7.574 -2.1916  1.0032 -1.7007
   50MOL   H20917947   4.021   1.083   0.044 -1.4339  3.2330  1.7154
   50MOL   H21017948   3.933   0.976   7.668  2.1146 -0.8745  1.5448
   50MOL   H21117949   3.775   1.089   0.062 -0.4744 -1.3224 -2.1442
   50MOL   H21217950   3.772   1.185   7.636 -0.0094  0.7775 -0.2211
   50MOL   H21317951   3.906   1.357   7.726 -0.8247 -0.0005 -0.3141
   50MOL   H21417952   3.907   1.267   0.152  1.1129  0.5004 -0.8203
   50MOL   H21517953   3.636   1.373   0.015 -1.5905 -0.4702  1.1166
   50MOL   H21617954   3.665   1.317   0.177 -2.1930 -0.4249 -0.7040
   50MOL   H21717955   3.744   1.467   0.118  0.9830 -0.7019  1.3779
   50MOL   C21817956   4.189   1.104   7.589 -0.0855 -0.7904  0.4555
   50MOL   C21917957   4.304   1.180   7.522 -0.1341  0.3283  0.2339
   50MOL   C22017958   4.403   1.081   7.451 -0.5225 -0.3925 -0.1403
   50MOL   C22117959   4.362   1.023   7.314  1.1701  0.1578  0.7562
   50MOL   C22217960   4.378   1.122   7.192 -0.6018  0.1917 -0.2019
   50MOL   C22317961   4.308   1.086   7.056  0.1344 -0.4981  0.5743
   50MOL   H22417962   4.214   1.098   7.695 -1.5885  0.6111  0.9077
   50MOL   H22517963   4.198   0.998   7.565  2.5608 -0.5578  0.2492
   50MOL   H22617964   4.264   1.238   7.438 -3.0519  0.0483  1.3804
   50MOL   H22717965   4.419   1.006   7.527  0.1826  0.7170  0.8259
   50MOL   H22817966   4.495   1.135   7.428  0.8679 -2.5521  0.2649
   50MOL   H22917967   4.260   0.983   7.309  1.7788 -1.2850 -0.4672
   50MOL   H23017968   4.430   0.939   7.302 -0.1288 -1.2664  2.9658
   50MOL   H23117969   4.337   1.213   7.237  2.3662  1.7239 -0.4763
   50MOL   H23217970   4.483   1.138   7.168 -0.4384 -2.6888 -1.5692
   50MOL   H23317971   4.347   0.995   7.009 -0.1528 -0.5135  0.3630
   50MOL   H23417972   4.338   1.161   6.983  1.6003 -2.6464 -1.0935
   50MOL   H23517973   4.199   1.085   7.062  0.1309 -1.8217  0.5929
   50MOL   C23617974   4.381   1.271   7.630  0.3188 -0.5883 -0.0537
   50MOL   C23717975   4.302   1.377   7.704  0.6084 -0.3884 -0.2839
   50MOL   C23817976   4.283   1.500   7.614 -0.5633 -0.2260  0.5364
   50MOL   C23917977   4.161   1.587   7.632 -0.0968 -0.6282 -0.8802
   50MOL   C24017978   4.173   1.716   7.549  0.2267 -0.0035 -0.2430
   50MOL   C24117979   4.054   1.807   7.556  0.2252 -0.6304 -0.3686
   50MOL   H24217980   4.413   1.195   7.702 -0.2361  0.1669  1.0018
   50MOL   H24317981   4.470   1.319   7.591  0.4991  1.0131  2.2378
   50MOL   H24417982   4.202   1.335   7.718  0.0603  1.2484  0.8448
   50MOL   H24517983   4.377   1.556   7.615  0.5007 -1.9605  0.0915
   50MOL   H24617984   4.271   1.463   7.512  1.2349  1.6266 -0.4002
   50MOL   H24717985   4.155   1.605   0.013 -0.9842 -1.2314 -0.8223
   50MOL   H24817986   4.071   1.531   7.606  0.0299  0.2229 -3.2320
   50MOL   H24917987   4.260   1.769   7.586  0.3503  1.4146 -2.5094
   50MOL   H25017988   4.184   1.694   7.443  0.8252  0.6663 -0.3170
   50MOL   H25117989   4.083   1.899   7.506  0.0749  1.0586  2.5801
   50MOL   H25217990   3.973   1.766   7.496 -1.3248  0.8662  0.6688
   50MOL   H25317991   4.025   1.837   7.657  0.9709 -1.9764  0.2710
   50MOL   C25417992   4.371   1.424   0.112 -0.4734  0.5591 -0.9961
   50MOL   C25517993   4.344   1.334   0.240 -0.1722  0.1647  0.1349
   50MOL   C25617994   4.195   1.349   0.291 -0.6005  0.5561  0.5143
   50MOL   C25717995   4.172   1.481   0.360 -0.1051  0.5365  0.6133
   50MOL   C25817996   4.024   1.513   0.370  0.1069 -0.3762 -0.7338
   50MOL   C25917997   4.000   1.633   0.446  0.2999 -0.1110 -0.2244
   50MOL   H26017998   4.336   1.525   0.134 -1.7215  0.3900 -2.0998
   50MOL   H26117999   4.477   1.438   0.094 -0.4251 -0.4284 -1.5792
   50MOL   H26218000   4.350   1.231   0.205 -1.8131  0.6626 -1.6791
   50MOL   H26318001   4.124   1.342   0.209 -0.2478 -2.2967  0.4105
   50MOL   H26418002   4.186   1.268   0.363 -1.8228 -0.5501 -0.8486
   50MOL   H26518003   4.224   1.468   0.455  1.5104  0.8117 -0.2213
   50MOL   H26618004   4.229   1.557   0.308  2.5313 -1.1091  1.0064
   50MOL   H26718005   3.968   1.430   0.414  1.0643 -0.4716  0.3196
   50MOL   H26818006   3.971   1.532   0.276  1.0856  1.6698 -0.9026
   50MOL   H26918007   4.028   1.614   0.549 -1.3213 -2.2874 -0.1564
   50MOL   H27018008   3.896   1.668   0.445  0.3529  0.0416 -0.6609
   50MOL   H27118009   4.066   1.713   0.411  0.4687  0.1613  0.7164
   50MOL   C27218010   4.450   1.357   0.353 -0.2665  0.3198  0.3505
   50MOL   C27318011   4.590   1.300   0.324  0.3215  0.1975  0.7567
   50MOL   C27418012   4.601   1.141   0.313 -0.3891 -0.4729 -0.2881
   50MOL   C27518013   4.543   1.053   0.434  0.3430  0.5006  0.0614
   50MOL   C27618014   4.572   0.913   0.406  0.1639 -0.0477  0.3868
   50MOL   C27718015   4.493   0.808   0.486 -0.3932  0.8560  0.1561
   50MOL   H27818016   4.456   1.465   0.367 -0.0014  0.5181 -1.1460
   50MOL   H27918017   4.409   1.308   0.441 -0.0528 -1.1479 -0.3428
   50MOL   H28018018   4.631   1.348   0.235  1.3842  0.3329  1.3069
   50MOL   H28118019   4.705   1.109   0.310  0.6326  2.8627 -2.1211
   50MOL   H28218020   4.552   1.103   0.224 -2.3448 -2.6192  1.6256
   50MOL   H28318021   4.436   1.074   0.439  0.1852 -0.6706  1.7106
   50MOL   H28418022   4.581   1.087   0.530  0.4074  2.2788 -0.5652
   50MOL   H28518023   4.570   0.887   0.301  1.3705 -0.2811  0.4117
   50MOL   H28618024   4.673   0.883   0.433  0.7505  0.1603 -1.5158
   50MOL   H28718025   4.552   0.721   0.512  0.9585  0.7892 -2.9850
   50MOL   H28818026   4.452   0.848   0.579  2.0490 -0.3330  1.7825
   50MOL   H28918027   4.419   0.767   0.418  1.0138 -0.5367 -0.5445
   50MOL   C29018028   4.684   1.348   0.432 -0.3375  0.1008  0.1508
   50MOL   C29118029   4.826   1.398   0.394 -0.1118  0.6176 -0.0917
   50MOL   C29218030   4.921   1.284   0.338  0.0002 -0.4491  0.0352
   50MOL   C29318031   4.966   1.189   0.450 -0.8524 -0.2440  0.2986
   50MOL   C29418032   5.062   1.071   0.405  0.4334 -0.5002  0.0446
   50MOL   C29518033   5.185   1.117   0.326 -0.9521 -0.4144 -0.1924
   50MOL   H29618034   4.700   1.278   0.514 -1.4915  2.4847  2.4900
   50MOL   H29718035   4.640   1.437   0.477  1.1085  3.2202 -4.2172
   50MOL   H29818036   4.873   1.441   0.483 -1.1141 -0.4715  0.9721
   50MOL   H29918037   4.999   1.341   0.287  0.1526 -0.2948  0.4465
   50MOL   H30018038   4.854   1.232   0.268  0.3117  1.5681 -1.8298
   50MOL   H30118039   5.019   1.244   0.528 -2.3796 -2.0059  2.6596
   50MOL   H30218040   4.877   1.153   0.501 -0.9659  0.3072  0.4889
   50MOL   H30318041   4.994   1.008   0.347 -0.9487  1.7416 -0.8815
   50MOL   H30418042   5.101   1.017   0.490 -0.3422 -0.5276  0.3848
   50MOL   H30518043   5.246   1.188   0.383 -0.1219 -1.0946 -0.2233
   50MOL   H30618044   5.155   1.164   0.233  0.1158  0.5496 -0.0608
   50MOL   H30718045   5.241   1.023   0.320 -0.0898 -0.2423  3.5485
   50MOL   C30818046   4.824   1.511   0.282 -0.2770  0.2194  0.8344
   50MOL   C30918047   4.750   1.645   0.295 -0.0435  0.0020 -0.3934
   50MOL   C31018048   4.760   1.730   0.166  0.0618 -0.2962  0.2302
   50MOL   C31118049   4.698   1.667   0.037  0.0653  0.2253  0.4638
   50MOL   C31218050   4.739   1.742   7.634 -0.1706 -0.4230  0.0972
   50MOL   C31318051   4.707   1.660   7.505  0.1491  0.2504  0.3634
   50MOL   H31418052   4.928   1.539   0.267 -0.2562 -0.1962  0.1789
   50MOL   H31518053   4.806   1.452   0.192  0.5446 -0.3025  1.0093
   50MOL   H31618054   4.647   1.617   0.317 -0.4086  1.6222  0.0191
   50MOL   H31718055   4.863   1.755   0.141 -0.4169  0.0864 -1.4554
   50MOL   H31818056   4.712   1.827   0.178  2.1668  0.7427  0.3598
   50MOL   H31918057   4.590   1.678   0.047  0.2146  0.5629  1.7698
   50MOL   H32018058   4.715   1.560   0.034  0.2592  0.2357  1.2336
   50MOL   H32118059   4.696   1.842   7.630  0.6905 -0.0071  0.8866
   50MOL   H32218060   4.846   1.761   7.630 -0.2602 -0.2602 -2.0125
   50MOL   H32318061   4.763   1.706   7.423  2.1547 -2.4256  0.1800
   50MOL   H32418062   4.600   1.664   7.482  0.0678 -0.6255  0.5629
   50MOL   H32518063   4.742   1.557   7.506 -1.1692 -0.2494 -1.3003
   50MOL   C32618064   4.816   1.735   0.404  0.2325  0.0137  0.2879
   50MOL   C32718065   4.726   1.853   0.441 -0.6411 -0.0102  0.3626
   50MOL   C32818066   4.619   1.820   0.549  0.0053  0.2215  0.1018
   50MOL   C32918067   4.502   1.922   0.568  0.3379  0.5273  0.0984
   50MOL   C33018068   4.407   1.891   0.692 -0.2801  0.5902 -0.3717
   50MOL   C33118069   4.325   1.759   0.684  0.5291  0.1299  0.5196
   50MOL   H33218070   4.911   1.768   0.363  1.5628 -2.5868  1.1550
   50MOL   H33318071   4.839   1.679   0.495  2.2912 -0.2937 -0.3964
   50MOL   H33418072   4.658   1.888   0.363  0.3621  0.7390 -0.1962
   50MOL   H33518073   4.570   1.724   0.528  2.7679 -0.7484 -2.2181
   50MOL   H33618074   4.667   1.798   0.645  1.9730  0.5971 -0.7746
   50MOL   H33718075   4.439   1.924   0.479 -1.5926  1.8026  1.4546
   50MOL   H33818076   4.546   2.022   0.572 -0.9708  1.1265 -0.2008
   50MOL   H33918077   4.465   1.885   0.784  0.4070 -0.9561 -0.8884
   50MOL   H34018078   4.326   1.964   0.694 -1.0231 -0.2258 -0.0823
   50MOL   H34118079   4.380   1.664   0.687  1.9142  0.8456 -1.6787
   50MOL   H34218080   4.246   1.766   0.611 -0.1432 -0.7976  1.1455
   50MOL   H34318081   4.265   1.756   0.775  0.6955  0.0645  0.6271
   50MOL   C34418082   4.810   1.979   0.476  0.0303  0.1053 -0.0074
   50MOL   C34518083   4.902   2.039   0.368  0.2681  1.0591  0.2142
   50MOL   C34618084   4.992   2.151   0.427 -0.6202  0.1815 -0.0626
   50MOL   C34718085   5.078   2.215   0.321  0.2716 -0.3467 -0.3858
   50MOL   C34818086   5.180   2.115   0.257  0.2622 -0.3696  0.2721
   50MOL   C34918087   5.273   2.032   0.348 -0.2620  0.2429  0.4889
   50MOL   H35018088   4.745   2.058   0.513  1.5357  1.0701  0.5843
   50MOL   H35118089   4.859   1.948   0.569 -0.8655 -0.7208  0.2016
   50MOL   H35218090   4.852   2.075   0.279  0.2949 -0.8435 -0.5912
   50MOL   H35318091   4.943   2.241   0.463 -0.2386  0.2514  0.2845
   50MOL   H35418092   5.045   2.103   0.509  0.4824  0.6885 -0.4850
   50MOL   H35518093   5.014   2.256   0.242  2.8325  0.3983 -2.1501
   50MOL   H35618094   5.136   2.292   0.372  1.5891 -0.6286 -1.4329
   50MOL   H35718095   5.126   2.042   0.196 -0.1347 -1.4751  1.9104
   50MOL   H35818096   5.246   2.168   0.189 -0.2881  0.6125  0.5058
   50MOL   H35918097   5.350   1.979   0.293  0.3973  0.2775  1.3515
   50MOL   H36018098   5.328   2.082   0.429 -0.8725  0.1028  0.9958
   50MOL   H36118099   5.216   1.952   0.396 -4.0807  1.3909 -1.9124
   50MOL   H36218100   4.964   1.960   0.327 -0.1392  1.1588 -0.5989
   51MOL     C118101   1.092   0.327   6.108  0.1393  0.4952  0.3051
   51MOL     C218102   1.190   0.378   5.995  0.5399  0.5384 -0.1074
   51MOL     C318103   1.247   0.253   5.920 -0.8694  0.1301  0.4940
   51MOL     C418104   1.147   0.152   5.869  0.6120  0.0621 -0.1422
   51MOL     C518105   1.222   0.021   5.814  0.2898 -0.5615  0.8048
   51MOL     C618106   1.123   7.652   5.745  0.3607 -0.4805  0.1561
   51MOL     H718107   1.004   0.277   6.067 -0.8345  0.5716  2.2405
   51MOL     H818108   1.155   0.263   6.169  2.0979 -2.2117 -4.2801
   51MOL     H918109   1.129   0.439   5.929  1.4878  0.3648 -1.1624
   51MOL    H1018110   1.319   0.200   5.982 -2.1522 -0.4616  1.5037
   51MOL    H1118111   1.300   0.292   5.833 -1.9914 -1.5098 -0.9630
   51MOL    H1218112   1.094   0.202   5.788  1.7644  3.8064  1.2768
   51MOL    H1318113   1.068   0.120   5.936 -1.5433  0.4471 -2.4400
   51MOL    H1418114   1.302   0.051   5.746  0.6495  0.7610  1.7884
   51MOL    H1518115   1.273   7.689   5.891 -2.8164 -2.4272  1.4997
   51MOL    H1618116   1.085   7.705   5.657 -0.4430  0.0268  0.8036
   51MOL    H1718117   1.040   7.629   5.811  0.8107  1.1741  1.3264
   51MOL    H1818118   1.152   7.550   5.722 -1.3646 -1.5851  2.7036
   51MOL    H1918119   1.053   0.415   6.159 -1.6309 -1.2777  2.1250
   51MOL    C2018120   1.297   0.465   6.059 -0.0702 -0.8758  0.1611
   51MOL    C2118121   1.396   0.523   5.956 -0.7202 -0.1786 -0.7152
   51MOL    C2218122   1.340   0.597   5.828  0.7049 -0.1456  0.7017
   51MOL    C2318123   1.427   0.610   5.699  0.1241  0.0159  0.0073
   51MOL    C2418124   1.362   0.664   5.565 -0.2212  0.9818 -0.2046
   51MOL    C2518125   1.332   0.810   5.562  0.3669  0.2632 -0.1191
   51MOL    H2618126   1.349   0.408   6.136  0.0780 -2.1547 -0.8631
   51MOL    H2718127   1.251   0.557   6.095 -0.9005 -1.1924 -0.0784
   51MOL    H2818128   1.456   0.440   5.918 -3.2211 -2.3281 -0.1195
   51MOL    H2918129   1.310   0.699   5.854  0.7764 -0.7968  3.4956
   51MOL    H3018130   1.242   0.559   5.798  0.7146  1.3108 -1.2791
   51MOL    H3118131   1.453   0.507   5.673  0.3010  0.1563 -0.3778
   51MOL    H3218132   1.524   0.656   5.718  0.8992 -0.8066 -1.8563
   51MOL    H3318133   1.414   0.636   5.473  1.5534  0.5941  0.8961
   51MOL    H3418134   1.264   0.615   5.561 -1.0765  2.7905 -1.9928
   51MOL    H3518135   1.239   0.819   5.506 -0.0144  0.8773  0.6037
   51MOL    H3618136   1.328   0.859   5.660 -1.3044  0.8495 -0.4535
   51MOL    H3718137   1.405   0.876   5.515  0.2181  1.4586  1.2880
   51MOL    C3818138   1.493   0.620   6.029 -0.1080  0.1211 -0.5794
   51MOL    C3918139   1.622   0.552   6.092  0.1886  0.5714 -0.2160
   51MOL    C4018140   1.759   0.606   6.025  0.3552  0.0891 -0.4312
   51MOL    C4118141   1.798   0.753   6.050  0.2973 -0.5306 -0.5957
   51MOL    C4218142   1.932   0.805   5.981 -1.0409 -0.4737 -0.1146
   51MOL    C4318143   1.903   0.887   5.851  0.1452 -0.2600 -0.2243
   51MOL    H4418144   1.448   0.679   6.108  3.2475 -0.0244  1.5012
   51MOL    H4518145   1.516   0.694   5.952  2.9311 -1.0358 -0.8605
   51MOL    H4618146   1.609   0.446   6.068  2.7412  0.1529  0.1190
   51MOL    H4718147   1.835   0.536   6.059 -1.0135 -1.0418  0.4049
   51MOL    H4818148   1.744   0.587   5.919  1.0716 -0.3743 -0.4511
   51MOL    H4918149   1.719   0.822   6.019  0.9616  0.4276 -0.1811
   51MOL    H5018150   1.803   0.759   6.159 -0.9170 -2.6163 -0.4000
   51MOL    H5118151   1.984   0.874   6.048  1.0271  0.4618 -2.5965
   51MOL    H5218152   2.008   0.733   5.952 -0.9786 -0.5579  0.2464
   51MOL    H5318153   1.992   0.942   5.820 -0.0579  0.8900  1.1441
   51MOL    H5418154   1.825   0.963   5.857  0.3101  0.0051 -1.3743
   51MOL    H5518155   1.870   0.818   5.774 -1.2059 -0.3743  0.4418
   51MOL    C5618156   1.628   0.554   6.245 -0.3599  0.4158 -0.4121
   51MOL    C5718157   1.722   0.461   6.319  0.7895 -0.7512 -0.1496
   51MOL    C5818158   1.737   0.308   6.281 -0.5279 -0.0432  0.8953
   51MOL    C5918159   1.603   0.234   6.296 -0.0983  0.3673  0.3529
   51MOL    C6018160   1.600   0.089   6.237  0.5757 -0.3555 -0.5613
   51MOL    C6118161   1.455   0.041   6.216 -0.0550  0.1832  0.3693
   51MOL    H6218162   1.647   0.660   6.265 -1.5626  0.5526  0.0313
   51MOL    H6318163   1.526   0.532   6.275 -0.3164  2.0130  0.9720
   51MOL    H6418164   1.812   0.516   6.288 -0.1340  0.0003 -1.5821
   51MOL    H6518165   1.748   0.304   6.173 -0.6090 -1.9958  0.9308
   51MOL    H6618166   1.814   0.253   6.335 -0.5442 -3.3153 -2.2264
   51MOL    H6718167   1.520   0.290   6.254 -1.5578  0.9379  3.8224
   51MOL    H6818168   1.591   0.224   6.404 -0.5798 -1.0074  0.1889
   51MOL    H6918169   1.657   0.088   6.145  1.3342  0.5528 -0.1151
   51MOL    H7018170   1.653   0.022   6.304  1.3688  1.2973  0.5072
   51MOL    H7118171   1.388   0.058   6.300 -0.1699 -2.7436  0.9198
   51MOL    H7218172   1.415   0.068   6.118 -0.9637 -0.3285  0.5880
   51MOL    H7318173   1.473   7.661   6.209  0.2718  0.1515  1.5996
   51MOL    C7418174   1.702   0.481   6.475 -0.4346 -0.5311 -0.3163
   51MOL    C7518175   1.802   0.419   6.576 -0.8048  0.8566  0.0214
   51MOL    C7618176   1.947   0.478   6.576  0.0556  0.3773  0.1511
   51MOL    C7718177   2.039   0.406   6.479 -0.9392 -0.1969  0.0745
   51MOL    C7818178   2.183   0.453   6.504 -1.0694 -0.4310  0.5446
   51MOL    C7918179   2.281   0.429   6.388 -0.1945 -0.4788  0.0535
   51MOL    H8018180   1.684   0.585   6.501  3.5041  0.1763 -0.0857
   51MOL    H8118181   1.607   0.432   6.495 -1.1053  1.0968  0.5649
   51MOL    H8218182   1.814   0.311   6.561 -1.5854  0.8378 -0.4570
   51MOL    H8318183   1.938   0.582   6.547  0.6719  0.2952 -0.3327
   51MOL    H8418184   1.987   0.488   6.676  2.7921  0.3381 -0.9163
   51MOL    H8518185   2.041   0.297   6.483  0.4628 -0.3254 -2.5800
   51MOL    H8618186   2.004   0.438   6.381  0.4775 -2.7993 -1.3374
   51MOL    H8718187   2.217   0.403   6.594 -0.8862  1.1705  1.3813
   51MOL    H8818188   2.190   0.560   6.523 -0.3055 -0.1755 -1.0823
   51MOL    H8918189   2.278   0.326   6.354  0.3750 -0.0324 -1.3856
   51MOL    H9018190   2.249   0.492   6.306  0.6770  0.2638  0.2641
   51MOL    H9118191   2.381   0.463   6.418  0.0304 -0.7844 -0.3518
   51MOL    C9218192   1.742   0.442   6.714 -0.5273  0.7103 -0.1551
   51MOL    C9318193   1.809   0.374   6.834 -0.4120  0.0895 -0.8928
   51MOL    C9418194   1.741   0.436   6.961 -0.3025  0.1402 -0.0452
   51MOL    C9518195   1.815   0.434   7.093 -0.7648 -0.9120 -0.0870
   51MOL    C9618196   1.760   0.532   7.205 -0.2289 -0.3881  0.7053
   51MOL    C9718197   1.839   0.556   7.333 -0.1382  0.4479  0.4272
   51MOL    H9818198   1.745   0.550   6.730  0.4231  0.2633  3.0191
   51MOL    H9918199   1.637   0.416   6.721 -1.3434  3.6535 -0.8811
   51MOL   H10018200   1.915   0.396   6.845 -0.3031 -0.8197 -0.0148
   51MOL   H10118201   1.649   0.380   6.974 -0.1636  0.2434  1.4160
   51MOL   H10218202   1.704   0.538   6.947  0.3511  0.1412 -1.9060
   51MOL   H10318203   1.834   0.332   7.128  0.8508 -0.5695  0.0746
   51MOL   H10418204   1.918   0.467   7.081 -1.6187  1.5028 -1.1535
   51MOL   H10518205   1.765   0.630   7.159 -1.9371 -0.3741  0.5173
   51MOL   H10618206   1.655   0.510   7.223  0.1333 -2.2607  0.6774
   51MOL   H10718207   1.940   0.590   7.309  0.8440 -2.0034  0.9934
   51MOL   H10818208   1.792   0.623   7.405  1.0495  0.8635  0.8124
   51MOL   H10918209   1.846   0.458   7.380 -3.0547  0.5715  1.2681
   51MOL   C11018210   1.790   0.222   6.840 -0.5175  0.6842 -0.6089
   51MOL   C11118211   1.895   0.135   6.768 -0.2932  0.0117  0.5928
   51MOL   C11218212   1.829   0.011   6.706 -0.4531 -0.1848 -0.5954
   51MOL   C11318213   1.768   7.638   6.805 -0.6460 -0.3734  0.3771
   51MOL   C11418214   1.770   7.495   6.747  0.9475 -0.7149 -0.0787
   51MOL   C11518215   1.731   7.392   6.856  0.0802  1.0243  0.2161
   51MOL   H11618216   1.796   0.189   6.943 -2.5843 -0.0114 -0.6840
   51MOL   H11718217   1.686   0.206   6.812 -0.8370  1.0429  0.3471
   51MOL   H11818218   1.931   0.197   6.686 -0.8459 -0.2477  0.1480
   51MOL   H11918219   1.892   7.682   6.636 -1.5901 -1.5598 -0.5559
   51MOL   H12018220   1.743   0.048   6.651 -1.0291  1.1498  1.1796
   51MOL   H12118221   1.666   7.658   6.836 -1.2413  0.2018 -1.8384
   51MOL   H12218222   1.823   7.641   6.899  1.5162  1.6745 -0.9120
   51MOL   H12318223   1.869   7.462   6.719  0.1609 -2.2145 -1.1178
   51MOL   H12418224   1.710   7.479   6.657 -0.3865 -0.7030  0.7874
   51MOL   H12518225   1.740   7.288   6.825  0.0194  0.7610  1.0580
   51MOL   H12618226   1.782   7.417   6.949  1.4701 -2.1339  0.3529
   51MOL   H12718227   1.624   7.401   6.878 -0.7868 -3.4007 -1.6132
   51MOL   C12818228   2.011   0.108   6.869  0.3737 -0.4916  0.2736
   51MOL   C12918229   2.140   0.058   6.800 -0.3978  0.0993 -0.3657
   51MOL   C13018230   2.197   7.664   6.867  0.2801  0.0198 -0.8283
   51MOL   C13118231   2.111   7.542   6.875 -0.4114 -0.1947  0.0001
   51MOL   C13218232   2.184   7.425   6.936  0.4120  0.3769  0.3778
   51MOL   C13318233   2.108   7.291   6.917 -0.1318  0.0269  0.7938
   51MOL   H13418234   1.974   0.049   6.952 -0.0394  0.2329  0.6111
   51MOL   H13518235   2.031   0.210   6.903  0.6659 -0.3747 -0.2321
   51MOL   H13618236   2.116   0.035   6.697 -1.9226 -0.2516  0.0533
   51MOL   H13718237   2.295   7.639   6.828  0.7519 -0.7678  0.8368
   51MOL   H13818238   2.212   7.689   6.972 -1.4443 -0.3757 -0.4616
   51MOL   H13918239   2.078   7.512   6.775 -3.7842  0.3714  0.8911
   51MOL   H14018240   2.022   7.561   6.934 -1.2527 -0.4600 -1.1739
   51MOL   H14118241   2.285   7.419   6.896  0.2367  0.9306 -0.1680
   51MOL   H14218242   2.204   7.434   7.042  0.4690  0.7392  0.3358
   51MOL   H14318243   2.004   7.308   6.944 -0.7954  0.7652 -2.0448
   51MOL   H14418244   2.151   7.208   6.973 -0.5437 -2.2912 -2.1876
   51MOL   H14518245   2.091   7.271   6.811 -1.7051  0.3622  0.9656
   51MOL   C14618246   2.247   0.164   6.808 -0.3375  0.5558  0.6217
   51MOL   C14718247   2.381   0.148   6.732  0.0565  0.9532 -0.3647
   51MOL   C14818248   2.476   0.271   6.759  0.3876 -0.3139 -0.7056
   51MOL   C14918249   2.522   0.293   6.907 -0.3953 -0.0241  0.7290
   51MOL   C15018250   2.637   0.398   6.914  0.3243  0.3086 -0.3059
   51MOL   C15118251   2.692   0.416   7.056 -0.9457  0.1452  0.6047
   51MOL   H15218252   2.202   0.254   6.766 -0.0491  0.0047 -0.8965
   51MOL   H15318253   2.267   0.191   6.912  1.3339  0.9416  0.2176
   51MOL   H15418254   2.432   0.060   6.772 -2.1633 -0.7715 -1.2592
   51MOL   H15518255   2.442   0.369   6.725  0.0287 -0.1463  0.1281
   51MOL   H15618256   2.569   0.249   6.707 -1.1714 -1.6712 -3.0393
   51MOL   H15718257   2.440   0.334   6.965 -0.2333  2.0294 -0.4500
   51MOL   H15818258   2.556   0.201   6.955  0.2751  0.6965  1.6593
   51MOL   H15918259   2.598   0.497   6.890 -0.6274 -0.0648 -0.3321
   51MOL   H16018260   2.713   0.363   6.844  0.5713  2.9467 -1.4232
   51MOL   H16118261   2.712   0.317   7.097  1.3016 -0.7319 -2.4544
   51MOL   H16218262   2.781   0.477   7.064 -1.5897  1.1093  0.4489
   51MOL   H16318263   2.620   0.458   7.126  1.0566  2.3760  1.3779
   51MOL   C16418264   2.352   0.124   6.586 -0.3014  0.1170  0.1157
   51MOL   C16518265   2.374   7.707   6.531 -0.3875 -0.1440  0.3592
   51MOL   C16618266   2.302   7.678   6.400  0.3080  0.3106  0.9495
   51MOL   C16718267   2.145   7.691   6.414 -0.0803 -0.2426 -0.2287
   51MOL   C16818268   2.079   7.685   6.273 -0.1542 -0.2254  0.3869
   51MOL   C16918269   2.081   0.091   6.189 -0.0095  0.0228  0.5660
   51MOL   H17018270   2.264   0.179   6.554 -0.0382 -0.8711 -2.3771
   51MOL   H17118271   2.430   0.176   6.531 -0.0683 -0.9621 -0.5973
   51MOL   H17218272   2.330   7.635   6.600 -2.6714  0.6647 -0.1876
   51MOL   H17318273   2.322   7.575   6.368  0.7849  1.2343 -1.8461
   51MOL   H17418274   2.325   0.021   6.321 -0.6187 -1.6980 -1.1932
   51MOL   H17518275   2.101   0.054   6.457 -2.3116 -0.6326 -1.5857
   51MOL   H17618276   2.101   7.601   6.458 -0.7863  0.0488 -0.3258
   51MOL   H17718277   1.977   7.659   6.302  0.7100 -2.9128  1.1061
   51MOL   H17818278   2.121   7.611   6.206 -1.2647 -0.1167 -0.4500
   51MOL   H17918279   2.035   0.069   6.092  0.8179 -1.9761  0.5962
   51MOL   H18018280   2.183   0.113   6.159 -0.2323 -0.3667 -0.5146
   51MOL   H18118281   2.036   0.182   6.227 -0.5333  0.0061 -0.0113
   51MOL   C18218282   2.524   7.675   6.513 -0.3713 -0.5829  0.0604
   51MOL   C18318283   2.559   7.527   6.520 -0.6362  0.3951  0.6632
   51MOL   C18418284   2.560   7.474   6.662  0.0664  0.6262 -0.2434
   51MOL   C18518285   2.537   7.329   6.683 -0.1012 -0.1001  0.3049
   51MOL   C18618286   2.409   7.262   6.609 -0.1276 -0.3031 -0.1640
   51MOL   C18718287   2.353   7.137   6.692 -0.3299  0.2160  0.0771
   51MOL   H18818288   2.555   7.718   6.417 -2.9928 -0.0814 -0.5903
   51MOL   H18918289   2.587   7.726   6.586 -1.9245  1.0260  0.3097
   51MOL   H19018290   2.482   7.466   6.471 -0.5710  0.2853  0.6990
   51MOL   H19118291   2.649   7.503   6.717  0.2368 -2.0338  0.9566
   51MOL   H19218292   2.485   7.529   6.719  0.6414  1.2924 -0.1293
   51MOL   H19318293   2.528   7.307   6.790 -1.7067 -0.1685  0.1658
   51MOL   H19418294   2.622   7.277   6.640 -1.0199  0.4317 -2.2415
   51MOL   H19518295   2.444   7.235   6.509 -1.5259  0.9788 -1.0201
   51MOL   H19618296   2.335   7.342   6.600 -1.0729 -1.3626 -2.0048
   51MOL   H19718297   2.323   7.172   6.791  1.3111  2.6395 -0.2422
   51MOL   H19818298   2.436   7.070   6.708 -0.5011  0.1578  0.7542
   51MOL   H19918299   2.274   7.088   6.635  0.1762 -2.7565  1.8400
   51MOL   C20018300   2.686   7.509   6.442 -0.8093 -0.2170  0.4325
   51MOL   C20118301   2.686   7.513   6.285 -0.5588 -0.5816 -0.4214
   51MOL   C20218302   2.828   7.548   6.225 -0.1513  0.0490  0.2669
   51MOL   C20318303   2.827   7.654   6.110  0.3155 -0.4008 -0.4801
   51MOL   C20418304   2.961   7.654   6.030  0.5715 -0.4177  0.4348
   51MOL   C20518305   3.085   7.715   6.097  0.3182 -0.3630 -0.0939
   51MOL   H20618306   2.730   7.416   6.477 -1.0193 -0.2794  0.5312
   51MOL   H20718307   2.760   7.580   6.479  0.3253 -0.7283 -0.7905
   51MOL   H20818308   2.618   7.594   6.258 -0.6983 -0.4765  0.2261
   51MOL   H20918309   2.886   7.460   6.196  1.1571  0.9153  0.2255
   51MOL   H21018310   2.887   7.571   6.314 -1.6425  2.7601  0.6188
   51MOL   H21118311   2.820   0.025   6.156 -0.3635  0.9925 -3.3966
   51MOL   H21218312   2.745   7.637   6.040  2.3030  0.9670 -3.2346
   51MOL   H21318313   2.931   7.707   5.940 -0.6262  0.1418  1.1534
   51MOL   H21418314   2.996   7.557   5.993  0.5539 -0.8090  1.4231
   51MOL   H21518315   3.117   7.656   6.183  0.5650  2.3486  1.7488
   51MOL   H21618316   3.176   7.721   6.037  2.1955 -0.2257  2.6274
   51MOL   H21718317   3.070   0.085   6.145 -0.0994 -0.7053  0.4708
   51MOL   C21818318   2.625   7.379   6.215  0.3573 -0.1181 -0.7203
   51MOL   C21918319   2.577   7.394   6.068  0.0642 -0.4098  0.5217
   51MOL   C22018320   2.447   7.475   6.065 -0.3878  0.5927  0.1029
   51MOL   C22118321   2.413   7.543   5.930 -0.0677 -0.2396  0.2327
   51MOL   C22218322   2.281   7.622   5.945 -0.1683 -0.0245 -0.2867
   51MOL   C22318323   2.256   7.705   5.826 -0.3450 -0.4013 -0.1969
   51MOL   H22418324   2.682   7.287   6.226  2.1206  1.0493  0.1439
   51MOL   H22518325   2.542   7.340   6.273 -0.3037 -0.4343 -1.8601
   51MOL   H22618326   2.653   7.454   6.018  1.0884  1.2862  3.9507
   51MOL   H22718327   2.444   7.560   6.133  0.3811  0.8370 -0.1613
   51MOL   H22818328   2.371   7.407   6.104 -1.0020  0.2162 -1.6663
   51MOL   H22918329   2.412   7.465   5.854 -1.8948 -0.7099  0.7215
   51MOL   H23018330   2.483   7.625   5.913 -2.1052  1.3453 -0.7003
   51MOL   H23118331   2.198   7.554   5.967 -0.6472  1.1862  1.8221
   51MOL   H23218332   2.290   7.683   6.036 -0.4447  0.3516 -0.5103
   51MOL   H23318333   2.349   0.014   5.784 -0.6971  1.6031  0.6486
   51MOL   H23418334   2.200   0.070   5.846  1.5208  0.3719  1.5819
   51MOL   H23518335   2.205   7.644   5.752 -3.3865  1.1575  0.5047
   51MOL   C23618336   2.553   7.260   6.001  0.5438  0.3777 -0.5553
   51MOL   C23718337   2.690   7.200   5.937  0.5003 -0.3656  0.3332
   51MOL   C23818338   2.761   7.289   5.839  0.0087 -0.4573 -0.4227
   51MOL   C23918339   2.683   7.331   5.714  0.1882 -0.4960  0.4722
   51MOL   C24018340   2.763   7.416   5.614 -0.1563  0.6826 -0.0815
   51MOL   C24118341   2.671   7.511   5.536 -0.6824  0.1753  0.2101
   51MOL   H24218342   2.500   7.197   6.072  1.7651  0.7358  0.7201
   51MOL   H24318343   2.483   7.265   5.918 -0.2104 -3.6698 -0.2284
   51MOL   H24418344   2.757   7.180   6.021 -1.3564 -1.4404  1.6062
   51MOL   H24518345   2.795   7.378   5.890  2.0011 -1.1241 -0.5589
   51MOL   H24618346   2.849   7.229   5.817  0.8543  0.6639 -0.1004
   51MOL   H24718347   2.599   7.399   5.732  1.0765  0.5253  0.8444
   51MOL   H24818348   2.642   7.243   5.666  0.7474  0.0940 -1.1080
   51MOL   H24918349   2.834   7.476   5.672 -1.4189  0.1529  2.0803
   51MOL   H25018350   2.817   7.352   5.544 -1.0319  1.6544 -1.6631
   51MOL   H25118351   2.623   7.457   5.455  0.4826  0.4011 -0.6461
   51MOL   H25218352   2.594   7.566   5.590 -0.1822 -0.3988  1.5486
   51MOL   H25318353   2.728   7.589   5.485 -2.2980  0.8795 -0.5648
   51MOL   C25418354   2.665   7.056   5.884  0.3199  0.2845 -0.0751
   51MOL   C25518355   2.607   6.939   5.973  0.1876 -0.2244 -0.5199
   51MOL   C25618356   2.712   6.909   6.084  0.1008 -0.4493  0.6599
   51MOL   C25718357   2.647   6.823   6.197  0.5525  0.3878  0.1503
   51MOL   C25818358   2.581   6.906   6.308 -0.5956  0.5484  0.2438
   51MOL   C25918359   2.704   6.974   6.392 -0.3896  0.2874  0.2381
   51MOL   H26018360   2.749   7.020   5.825 -0.4080 -0.0196 -0.9489
   51MOL   H26118361   2.595   7.067   5.801  0.7913 -0.0099 -0.5184
   51MOL   H26218362   2.509   6.964   6.013 -0.5755  1.6581 -3.4427
   51MOL   H26318363   2.792   6.858   6.030 -0.3121 -2.5341  1.9698
   51MOL   H26418364   2.745   7.004   6.124  1.2069 -0.2706 -0.6320
   51MOL   H26518365   2.570   6.758   6.155  0.8544  1.4722 -2.2029
   51MOL   H26618366   2.714   6.748   6.240 -1.0317 -1.4237 -0.4568
   51MOL   H26718367   2.536   6.831   6.372  0.3731  0.3950  0.7527
   51MOL   H26818368   2.511   6.981   6.271  0.0954  1.6005  1.0120
   51MOL   H26918369   2.776   6.895   6.411 -2.0691 -1.6187 -1.1248
   51MOL   H27018370   2.671   7.022   6.484  1.2577 -1.4406  1.7506
   51MOL   H27118371   2.760   7.049   6.335 -0.0286 -0.3956 -0.3095
   51MOL   C27218372   2.570   6.817   5.878 -0.4673  0.1153 -0.7325
   51MOL   C27318373   2.434   6.820   5.811 -0.0417 -1.1231 -0.1658
   51MOL   C27418374   2.322   6.797   5.908  0.3230  0.4913  0.1869
   51MOL   C27518375   2.303   6.659   5.976  0.3087 -0.1097 -0.1992
   51MOL   C27618376   2.149   6.629   6.002  0.5681  0.0455  0.1922
   51MOL   C27718377   2.088   6.735   6.092  0.5515 -0.1907  0.4451
   51MOL   H27818378   2.648   6.817   5.802 -0.6572  1.5122 -0.9463
   51MOL   H27918379   2.584   6.722   5.930  2.5963  0.6822 -0.4245
   51MOL   H28018380   2.430   6.920   5.767  2.1443 -0.8520  0.2087
   51MOL   H28118381   2.226   6.820   5.862 -0.0260 -0.4701  0.4194
   51MOL   H28218382   2.323   6.872   5.987 -0.4705  1.3244 -0.5835
   51MOL   H28318383   2.359   6.656   6.069 -1.4138  1.0941  0.9026
   51MOL   H28418384   2.336   6.572   5.918 -1.3182 -1.4722  0.8759
   51MOL   H28518385   2.096   6.623   5.907 -0.3968 -0.7918  0.7820
   51MOL   H28618386   2.139   6.529   6.044  0.4702 -2.0372 -4.4793
   51MOL   H28718387   2.153   6.757   6.178  0.2389 -2.4773  1.3023
   51MOL   H28818388   2.054   6.822   6.036 -0.5640  0.1762  1.6656
   51MOL   H28918389   1.998   6.708   6.147  0.0697  0.8348  0.1583
   51MOL   C29018390   2.421   6.738   5.682  0.3049  0.1745 -0.2017
   51MOL   C29118391   2.416   6.815   5.549 -0.5738  0.2819  0.1429
   51MOL   C29218392   2.552   6.877   5.517 -0.6547 -0.0321 -0.4556
   51MOL   C29318393   2.533   6.998   5.425 -0.0614 -0.9267 -0.0203
   51MOL   C29418394   2.674   7.064   5.400 -0.2895 -0.2884 -0.6660
   51MOL   C29518395   2.667   7.204   5.328  0.4316  0.2096  0.3834
   51MOL   H29618396   2.336   6.670   5.685  0.3601  0.0085 -1.8363
   51MOL   H29718397   2.506   6.670   5.669 -0.7238 -1.3522  0.8644
   51MOL   H29818398   2.336   6.888   5.560  0.1894  1.0839  0.4764
   51MOL   H29918399   2.623   6.802   5.483 -0.3607 -0.2725  0.6765
   51MOL   H30018400   2.592   6.904   5.614 -4.3118  0.7584  0.8972
   51MOL   H30118401   2.489   6.959   5.333 -0.1498 -0.4208 -0.1939
   51MOL   H30218402   2.470   7.076   5.468 -0.2240 -1.3690  0.5486
   51MOL   H30318403   2.744   7.002   5.343  0.2747 -0.3904  0.1309
   51MOL   H30418404   2.716   7.076   5.499  0.3086  0.4411 -1.0092
   51MOL   H30518405   2.596   7.267   5.383  1.3085  1.0660  0.5575
   51MOL   H30618406   2.624   7.191   5.229 -1.5855  2.7513  0.8472
   51MOL   H30718407   2.765   7.247   5.308  1.3968 -1.2463  1.8537
   51MOL   C30818408   2.373   6.710   5.448 -0.1192  0.2267  0.0026
   51MOL   C30918409   2.217   6.677   5.441  0.3756 -0.1629  0.0462
   51MOL   C31018410   2.200   6.537   5.382 -0.1507  0.1428  0.3443
   51MOL   C31118411   2.231   6.415   5.474  0.0164  1.0503 -0.0904
   51MOL   C31218412   2.139   6.400   5.597 -1.0088  0.1942 -0.3788
   51MOL   C31318413   2.124   6.260   5.654 -0.4472 -0.3427 -0.3670
   51MOL   H31418414   2.410   6.722   5.347 -2.2154 -1.2954 -0.9866
   51MOL   H31518415   2.436   6.622   5.465  0.7530  1.2760  2.4333
   51MOL   H31618416   2.174   6.664   5.540  1.8123 -1.1630  0.5564
   51MOL   H31718417   2.272   6.522   5.301 -0.5776 -3.0493  0.5129
   51MOL   H31818418   2.106   6.525   5.328  0.3362  1.7979 -0.9388
   51MOL   H31918419   2.339   6.405   5.489 -0.2672 -0.4715  1.0898
   51MOL   H32018420   2.209   6.332   5.406  1.2590  1.9316 -1.6089
   51MOL   H32118421   2.180   6.466   5.674 -1.2876  0.1384 -0.1841
   51MOL   H32218422   2.041   6.441   5.572 -1.8459 -0.1196  2.2501
   51MOL   H32318423   2.039   6.213   5.604 -0.3272 -1.0143  0.0562
   51MOL   H32418424   2.097   6.267   5.759 -0.5028 -1.1467 -0.3254
   51MOL   H32518425   2.213   6.198   5.650  1.5623  2.1800  3.4459
   51MOL   C32618426   2.139   6.788   5.368  0.0826  0.5315  0.3322
   51MOL   C32718427   1.983   6.797   5.394  0.0284  0.5500 -0.3711
   51MOL   C32818428   1.946   6.848   5.535 -0.1852  0.1581 -0.4613
   51MOL   C32918429   1.810   6.794   5.582 -0.1073  0.2795  0.4993
   51MOL   C33018430   1.756   6.869   5.700 -0.2689 -0.1613  0.1051
   51MOL   C33118431   1.633   6.796   5.766  0.6243  0.1688 -0.2524
   51MOL   H33218432   2.147   6.753   5.265 -1.3821 -1.4783  0.8736
   51MOL   H33318433   2.186   6.887   5.360  0.5850  0.0863 -2.8742
   51MOL   H33418434   1.946   6.695   5.406  0.9430  0.3701  1.0445
   51MOL   H33518435   2.018   6.810   5.607  0.1495  1.1759 -0.2515
   51MOL   H33618436   1.937   6.957   5.535 -2.5219  0.0080  2.1344
   51MOL   H33718437   1.823   6.686   5.592 -2.1459 -0.0369  0.0676
   51MOL   H33818438   1.732   6.804   5.507  1.0163  0.9854 -0.5928
   51MOL   H33918439   1.829   6.886   5.779 -1.5208  1.0497  1.0419
   51MOL   H34018440   1.708   6.966   5.684 -0.4499 -0.4593 -1.1374
   51MOL   H34118441   1.665   6.701   5.810  0.0418  0.5068  0.9406
   51MOL   H34218442   1.547   6.787   5.700  0.9001  1.9489 -0.8639
   51MOL   H34318443   1.611   6.865   5.848  3.3914  1.7502 -0.7851
   51MOL   C34418444   1.914   6.876   5.274 -0.6063  0.1640  0.1185
   51MOL   C34518445   1.831   6.795   5.173  0.4198  0.4981 -0.4415
   51MOL   C34618446   1.903   6.686   5.094 -0.2411 -0.8919 -0.9806
   51MOL   C34718447   1.818   6.593   5.010  0.6220  0.3904  0.2936
   51MOL   C34818448   1.723   6.493   5.082 -0.6104  0.1058 -1.1424
   51MOL   C34918449   1.802   6.386   5.169  0.4154 -0.2687  0.1285
   51MOL   H35018450   1.837   6.939   5.318  0.1985  1.4335 -0.2496
   51MOL   H35118451   1.988   6.941   5.227 -0.7594 -0.1399 -0.5458
   51MOL   H35218452   1.792   6.865   5.099 -0.5518 -0.3803 -0.7918
   51MOL   H35318453   1.978   6.728   5.027  1.5713 -1.0638  0.8920
   51MOL   H35418454   1.950   6.622   5.168 -2.2481 -1.0487  0.1837
   51MOL   H35518455   1.751   6.653   4.950 -1.3538 -1.2561  0.7668
   51MOL   H35618456   1.881   6.536   4.943  1.0952 -1.1742  2.0089
   51MOL   H35718457   1.654   6.545   5.148 -0.4179 -2.1342  0.8655
   51MOL   H35818458   1.662   6.446   5.005 -2.8849  1.2017 -0.0488
   51MOL   H35918459   1.891   6.352   5.115  1.6999  3.4926 -0.3305
   51MOL   H36018460   1.843   6.438   5.255 -0.9484 -1.6559  1.6426
   51MOL   H36118461   1.730   6.311   5.201 -0.3258  0.5081  0.3146
   51MOL   H36218462   1.745   6.755   5.228  0.2730  0.4212 -0.7266
   52MOL     C118463   0.005   4.984   3.598  0.5180  0.5637 -0.3091
   52MOL     C218464   7.633   4.866   3.649  0.0154 -0.4222  1.0277
   52MOL     C318465   7.590   4.879   3.787  1.2653 -0.0846  0.2240
   52MOL     C418466   7.508   5.007   3.816 -0.4891 -0.7920  0.6350
   52MOL     C518467   7.472   5.019   3.959  0.3179 -0.1720 -0.1748
   52MOL     C618468   7.369   5.121   3.987 -0.6715 -0.0860 -0.2798
   52MOL     H718469   7.678   5.079   3.600  0.3293  0.4498  0.5701
   52MOL     H818470   0.100   5.000   3.649 -0.5847 -0.2006  2.0446
   52MOL     H918471   7.540   4.875   3.591 -1.5581  1.1862  3.7066
   52MOL    H1018472   7.678   4.885   3.852  1.3682 -0.2379  0.0995
   52MOL    H1118473   7.532   4.795   3.825  0.5509  0.7032  0.8930
   52MOL    H1218474   7.419   5.006   3.753 -1.2134 -1.4853  1.6404
   52MOL    H1318475   7.565   5.094   3.784 -0.0309 -1.8956 -1.6068
   52MOL    H1418476   7.445   4.923   4.003  0.4664 -0.7265 -1.2687
   52MOL    H1518477   7.557   5.040   4.024  0.7692 -1.1483 -0.4390
   52MOL    H1618478   7.283   5.101   3.924 -0.2286  1.5755 -1.4516
   52MOL    H1718479   7.410   5.219   3.960 -0.0209 -0.2570  0.0711
   52MOL    H1818480   7.344   5.124   4.093 -2.1410  1.5391 -0.6511
   52MOL    H1918481   0.024   4.955   3.495 -0.4746 -0.2769 -0.2611
   52MOL    C2018482   7.708   4.730   3.642 -0.8455 -1.0627  0.0014
   52MOL    C2118483   0.007   4.659   3.502  0.5369 -0.5813  0.5843
   52MOL    C2218484   0.107   4.537   3.517 -0.7486  0.0323 -0.6089
   52MOL    C2318485   0.251   4.561   3.568 -0.0168 -0.4390  0.8133
   52MOL    C2418486   0.331   4.646   3.477 -0.8688 -0.7261 -0.0409
   52MOL    C2518487   0.479   4.647   3.511  0.8695 -0.5471  0.1569
   52MOL    H2618488   7.634   4.667   3.691 -0.4463 -0.7242  1.0623
   52MOL    H2718489   0.077   4.731   3.694 -1.0403  2.6674  0.4461
   52MOL    H2818490   0.056   4.726   3.431  0.3240 -3.3578 -2.3338
   52MOL    H2918491   0.108   4.474   3.428 -0.8889 -0.3937 -0.3150
   52MOL    H3018492   0.068   4.468   3.592 -0.3819 -1.4804 -1.7675
   52MOL    H3118493   0.301   4.464   3.576  1.3027 -0.0890 -2.3943
   52MOL    H3218494   0.268   4.590   3.672 -0.8520  0.3134  0.7402
   52MOL    H3318495   0.326   4.608   3.375 -0.2353 -0.3449 -0.2224
   52MOL    H3418496   0.284   4.744   3.471 -0.7718 -0.6929 -0.2549
   52MOL    H3518497   0.488   4.701   3.606 -1.8242  0.4334 -0.1030
   52MOL    H3618498   0.516   4.546   3.522 -1.3797 -2.0696 -4.8487
   52MOL    H3718499   0.537   4.686   3.427 -2.0162 -0.4388 -1.8539
   52MOL    C3818500   7.594   4.603   3.452 -0.2191 -0.1693  0.4401
   52MOL    C3918501   7.585   4.558   3.302 -0.2165  0.5225  0.5262
   52MOL    C4018502   7.454   4.486   3.269  0.0918 -0.6189 -0.3104
   52MOL    C4118503   7.419   4.358   3.353  0.4036 -0.2112  0.2432
   52MOL    C4218504   7.304   4.280   3.284  0.2281  0.7091 -0.1703
   52MOL    C4318505   7.280   4.144   3.355  0.4555  0.7675 -0.0037
   52MOL    H4418506   7.516   4.678   3.467 -0.9949 -0.6436 -1.1150
   52MOL    H4518507   7.582   4.513   3.512  4.8275 -0.4783  1.2894
   52MOL    H4618508   7.671   4.494   3.284 -0.3150  0.4337  0.3694
   52MOL    H4718509   7.370   4.552   3.292 -0.7195 -1.7714  0.0860
   52MOL    H4818510   7.455   4.468   3.162 -0.4551 -0.9953 -0.2577
   52MOL    H4918511   7.510   4.299   3.371  1.3913  1.4566  0.8272
   52MOL    H5018512   7.391   4.390   3.453 -2.2143 -2.5920  0.3105
   52MOL    H5118513   7.212   4.333   3.258  0.0400 -0.0466 -1.1072
   52MOL    H5218514   7.335   4.255   3.183 -0.7020  0.9246 -0.5129
   52MOL    H5318515   7.230   4.145   3.452  0.0662 -1.6263 -0.1625
   52MOL    H5418516   7.378   4.104   3.380  1.2923  1.8071 -1.5084
   52MOL    H5518517   7.219   4.076   3.296 -0.5553 -0.3143  2.2355
   52MOL    C5618518   7.609   4.683   3.211 -0.3295 -0.0522 -0.5947
   52MOL    C5718519   7.692   4.646   3.081  0.0727  0.6351 -0.1139
   52MOL    C5818520   0.116   4.632   3.124 -0.0589 -0.7179  0.0064
   52MOL    C5918521   0.201   4.539   3.035  0.0613  0.4603 -0.0690
   52MOL    C6018522   0.355   4.541   3.043  0.2472 -0.4771  0.4879
   52MOL    C6118523   0.419   4.675   3.011 -0.2849 -0.2937 -0.5746
   52MOL    H6218524   7.507   4.717   3.193 -0.1807 -0.0735 -1.5071
   52MOL    H6318525   7.651   4.771   3.259 -0.5454 -1.4563  2.2421
   52MOL    H6418526   7.657   4.551   3.040  1.6825 -0.9233  2.0026
   52MOL    H6518527   0.160   4.730   3.110 -0.3250 -0.5296  0.4949
   52MOL    H6618528   0.131   4.602   3.227 -2.0864 -1.8603  0.0001
   52MOL    H6718529   0.177   4.556   2.930 -2.4199  1.2627  0.5872
   52MOL    H6818530   0.166   4.438   3.054 -0.0331  0.4290 -0.3998
   52MOL    H6918531   0.370   4.526   3.150  0.8225  0.1648  0.5010
   52MOL    H7018532   0.410   4.464   2.988  1.0198  1.3053 -1.2755
   52MOL    H7118533   0.405   4.749   3.090 -0.4272 -2.0174  1.0545
   52MOL    H7218534   0.526   4.658   3.001 -0.3922 -0.2986 -1.7101
   52MOL    H7318535   0.381   4.719   2.919 -2.3592 -1.0588 -0.1008
   52MOL    C7418536   7.680   4.746   2.966  0.5771  0.1149  0.7337
   52MOL    C7518537   7.542   4.808   2.945  0.0117  0.0269 -0.0878
   52MOL    C7618538   7.552   4.921   2.836 -0.4661 -0.5589  0.3251
   52MOL    C7718539   7.627   5.049   2.886 -1.0254 -0.0880 -1.0927
   52MOL    C7818540   7.601   5.161   2.786 -0.3109  0.0898  0.2512
   52MOL    C7918541   7.650   5.292   2.839  0.5073 -0.2504 -0.2453
   52MOL    H8018542   0.024   4.828   2.970  1.0061 -0.0549 -2.1285
   52MOL    H8118543   7.715   4.706   2.870 -1.5156 -1.5132  0.5968
   52MOL    H8218544   7.512   4.867   3.031 -1.9900  0.0749 -0.7974
   52MOL    H8318545   7.595   4.886   2.742  0.4535 -1.3999  1.0436
   52MOL    H8418546   7.455   4.956   2.800 -0.1666  1.9432  1.8412
   52MOL    H8518547   7.587   5.069   2.985  0.1748  1.2142 -0.8519
   52MOL    H8618548   0.003   5.017   2.898 -2.2112 -3.0822  1.7857
   52MOL    H8718549   7.497   5.163   2.753 -0.4052 -0.9506  0.4494
   52MOL    H8818550   7.653   5.142   2.693  0.7782  0.9422  0.6801
   52MOL    H8918551   7.651   5.299   2.948 -0.2779  3.3399 -0.4042
   52MOL    H9018552   0.024   5.317   2.806  0.3607  0.8306  0.0845
   52MOL    H9118553   7.582   5.374   2.815 -0.6769 -1.0626  0.3136
   52MOL    C9218554   7.432   4.705   2.909 -1.4294  0.2446  0.3548
   52MOL    C9318555   7.285   4.754   2.909  0.1454  0.5146  0.2872
   52MOL    C9418556   7.197   4.663   2.829  0.0576 -0.0558 -0.1908
   52MOL    C9518557   7.224   4.670   2.682 -0.1665 -0.0872  0.4890
   52MOL    C9618558   7.184   4.796   2.612  0.9304 -0.1278 -0.0522
   52MOL    C9718559   7.031   4.823   2.597  0.3837 -0.7377 -0.3805
   52MOL    H9818560   7.454   4.658   2.813 -0.7735 -0.4201  0.8238
   52MOL    H9918561   7.433   4.617   2.974 -2.6141  0.4179  0.6159
   52MOL   H10018562   7.282   4.852   2.860  0.0191  0.1261 -0.4909
   52MOL   H10118563   7.091   4.677   2.848  0.4441  0.7670  1.5071
   52MOL   H10218564   7.222   4.558   2.847  0.7024  0.0875 -0.2102
   52MOL   H10318565   7.322   4.627   2.661 -0.7277 -0.1762 -2.0110
   52MOL   H10418566   7.168   4.583   2.646 -0.9087  0.3231  0.6540
   52MOL   H10518567   7.219   4.887   2.662  1.5265  1.5062 -3.2812
   52MOL   H10618568   7.221   4.801   2.510  1.0956 -1.1931 -0.0406
   52MOL   H10718569   7.021   4.931   2.600  1.9009 -0.5392 -2.0664
   52MOL   H10818570   6.986   4.780   2.508 -0.3036 -1.9964  0.5570
   52MOL   H10918571   6.969   4.786   2.679  0.0672 -1.1813 -0.8200
   52MOL   C11018572   7.223   4.765   3.056 -0.4142 -0.0789  1.0769
   52MOL   C11118573   7.107   4.871   3.071  0.2238 -0.6923  0.2495
   52MOL   C11218574   7.149   5.014   3.113  0.0287  0.4645 -0.1522
   52MOL   C11318575   7.177   5.109   2.999  0.2201  0.2312 -0.7665
   52MOL   C11418576   7.171   5.260   3.041  1.0121  0.3499 -1.1072
   52MOL   C11518577   7.222   5.355   2.924 -0.2303 -0.0371 -0.1570
   52MOL   H11618578   7.195   4.662   3.076 -1.2937 -0.6040 -2.5612
   52MOL   H11718579   7.299   4.790   3.130  0.4671  2.4033 -0.5902
   52MOL   H11818580   7.063   4.865   2.971  1.3356 -0.5937 -0.2431
   52MOL   H11918581   7.230   4.999   3.185 -0.5892  1.3238  0.7424
   52MOL   H12018582   7.066   5.065   3.162 -0.2710  1.0477 -1.2559
   52MOL   H12118583   7.099   5.107   2.923 -2.3152  1.0074  1.6998
   52MOL   H12218584   7.270   5.089   2.945 -0.6725  0.5357 -2.4373
   52MOL   H12318585   7.245   5.270   3.121  0.6938 -1.2819 -0.5792
   52MOL   H12418586   7.076   5.297   3.079  0.8165  1.0261 -2.2305
   52MOL   H12518587   7.145   5.357   2.848 -1.7167  0.8375  1.3337
   52MOL   H12618588   7.243   5.452   2.971 -0.5730 -0.5139  0.9937
   52MOL   H12718589   7.310   5.314   2.874  0.5543  1.3160  0.0700
   52MOL   C12818590   6.999   4.822   3.166 -0.8769  0.2522 -0.3028
   52MOL   C12918591   6.857   4.858   3.129 -0.9259  0.9593 -0.3215
   52MOL   C13018592   6.755   4.842   3.244  0.1927  0.4504 -0.9280
   52MOL   C13118593   6.758   4.944   3.351 -0.5154 -0.2378  0.4757
   52MOL   C13218594   6.654   4.922   3.454 -0.1129  0.0619  0.3464
   52MOL   C13318595   6.671   5.017   3.575 -0.1113 -0.4705  0.6901
   52MOL   H13418596   7.025   4.867   3.262  0.8390  0.4212 -0.8362
   52MOL   H13518597   7.009   4.715   3.180  1.2930  0.6684  1.7332
   52MOL   H13618598   6.864   4.966   3.112  1.9281  0.3952 -3.2417
   52MOL   H13718599   6.656   4.845   3.199 -0.2612 -0.6616 -0.0374
   52MOL   H13818600   6.757   4.742   3.288 -0.5730  1.8798  2.4244
   52MOL   H13918601   6.737   5.039   3.303  0.9326 -0.0675  0.1708
   52MOL   H14018602   6.857   4.951   3.397  0.2796  1.2086 -1.4099
   52MOL   H14118603   6.551   4.930   3.420 -0.3876  2.5233  1.6352
   52MOL   H14218604   6.662   4.819   3.488 -2.1839  0.4665  2.1554
   52MOL   H14318605   6.611   4.981   3.658  1.0947  1.5604  2.4776
   52MOL   H14418606   6.635   5.119   3.561  1.6541 -0.0263 -0.8816
   52MOL   H14518607   6.771   5.012   3.618 -0.0145  0.1589  0.5459
   52MOL   C14618608   6.799   4.785   2.993  0.7850 -0.6940 -0.3467
   52MOL   C14718609   6.699   4.874   2.923 -0.0293  0.5341  0.4113
   52MOL   C14818610   6.621   4.794   2.810 -0.9153  0.0501  0.8300
   52MOL   C14918611   6.517   4.695   2.863  0.4597 -0.0868 -0.3106
   52MOL   C15018612   6.524   4.556   2.799 -0.5209 -0.2097 -1.0683
   52MOL   C15118613   6.630   4.467   2.862 -0.3284 -0.2142  0.2197
   52MOL   H15218614   6.881   4.764   2.925  0.7780 -1.3871 -0.1480
   52MOL   H15318615   6.749   4.692   3.020 -1.6484 -0.6007 -4.2792
   52MOL   H15418616   6.627   4.915   2.993  0.8208  2.1676  0.3595
   52MOL   H15518617   6.686   4.745   2.737  0.0594  0.8763  1.1328
   52MOL   H15618618   6.566   4.869   2.753  0.1780  0.7019  0.6228
   52MOL   H15718619   6.516   4.690   2.972 -0.5066 -2.7634 -0.4166
   52MOL   H15818620   6.416   4.731   2.844  0.2923 -0.7275 -0.6318
   52MOL   H15918621   6.538   4.557   2.691  0.1895  4.9252 -1.0364
   52MOL   H16018622   6.428   4.510   2.819 -0.1353 -1.1470 -1.3548
   52MOL   H16118623   6.603   4.451   2.967  1.4403  0.9403  0.8691
   52MOL   H16218624   6.641   4.369   2.815 -1.2925 -0.8447  1.2664
   52MOL   H16318625   6.735   4.492   2.848 -0.7670  1.1314 -0.7585
   52MOL   C16418626   6.771   5.001   2.858  0.3642 -0.4491 -0.1112
   52MOL   C16518627   6.685   5.129   2.869 -0.4531 -0.1688  0.6537
   52MOL   C16618628   6.676   5.173   3.019 -0.5183  0.1984 -0.0528
   52MOL   C16718629   6.561   5.272   3.049  0.4529 -0.2250 -0.2761
   52MOL   C16818630   6.554   5.307   3.198 -0.2125 -0.2022 -0.0622
   52MOL   C16918631   6.668   5.390   3.258  0.2303 -0.1571 -0.4547
   52MOL   H17018632   6.875   5.012   2.887  1.5403 -0.2935 -4.1011
   52MOL   H17118633   6.793   4.987   2.752  1.1855  1.1136 -0.1580
   52MOL   H17218634   6.583   5.112   2.836  0.2897 -0.9058 -1.3564
   52MOL   H17318635   6.768   5.221   3.052 -0.9667  0.8000  0.3411
   52MOL   H17418636   6.673   5.097   3.097  0.4212 -0.0262 -0.2296
   52MOL   H17518637   6.473   5.220   3.011  1.1862 -1.9469  0.3465
   52MOL   H17618638   6.585   5.360   2.989 -1.0347  1.6423  1.7846
   52MOL   H17718639   6.538   5.220   3.261 -1.3259  1.2977  1.7618
   52MOL   H17818640   6.463   5.367   3.208  0.2302  0.6305 -0.8570
   52MOL   H17918641   6.660   5.494   3.228  3.7142  0.6764  1.2496
   52MOL   H18018642   6.766   5.358   3.224 -0.1580 -2.6721  0.6194
   52MOL   H18118643   6.673   5.384   3.367  1.5762 -0.6695 -0.5347
   52MOL   C18218644   6.744   5.251   2.793 -0.4294 -0.3610  0.1959
   52MOL   C18318645   6.743   5.238   2.636  0.6262 -0.4594 -0.1090
   52MOL   C18418646   6.841   5.343   2.579 -0.2003  0.4939 -0.3517
   52MOL   C18518647   6.985   5.302   2.608 -0.0290 -0.3899 -0.7610
   52MOL   C18618648   7.095   5.403   2.569  0.1103  0.0466 -0.2590
   52MOL   C18718649   7.111   5.434   2.417  0.0078  0.9710  0.1644
   52MOL   H18818650   6.693   5.342   2.824 -0.4751  0.5434 -2.3599
   52MOL   H18918651   6.841   5.260   2.843 -1.0776 -0.7377  1.5379
   52MOL   H19018652   6.798   5.149   2.604  3.1495  0.9210  0.1849
   52MOL   H19118653   6.825   5.375   2.476  0.7388  0.4381 -0.5130
   52MOL   H19218654   6.810   5.436   2.626  1.5047  1.0245 -0.2492
   52MOL   H19318655   7.013   5.212   2.553  1.1890  0.1731 -1.1003
   52MOL   H19418656   6.994   5.284   2.715  0.7480 -0.6478 -0.8597
   52MOL   H19518657   7.184   5.362   2.617 -1.0535 -0.0101  1.8754
   52MOL   H19618658   7.065   5.488   2.631  1.8694  1.5036 -1.3540
   52MOL   H19718659   7.126   5.349   2.349 -1.1441  0.2827  0.7650
   52MOL   H19818660   7.191   5.504   2.395  0.6140 -0.0935 -1.1170
   52MOL   H19918661   7.017   5.480   2.387  0.0584  1.2905  0.4997
   52MOL   C20018662   6.605   5.228   2.576  0.1825 -0.0344  0.5992
   52MOL   C20118663   6.494   5.324   2.617  0.0622  0.3686 -0.0485
   52MOL   C20218664   6.515   5.479   2.593  0.2605 -0.1437  0.4838
   52MOL   C20318665   6.414   5.584   2.645  0.5665 -0.1217 -0.2071
   52MOL   C20418666   6.419   5.727   2.581 -0.8979  1.1001  0.7606
   52MOL   C20518667   6.317   5.818   2.649 -0.2904  0.2491  0.0451
   52MOL   H20618668   6.569   5.127   2.596 -2.2510  0.6324 -0.2373
   52MOL   H20718669   6.609   5.231   2.467 -2.5122  0.6752  0.4898
   52MOL   H20818670   6.493   5.321   2.725 -0.3430  1.6893 -0.0063
   52MOL   H20918671   6.527   5.491   2.485 -2.0793  3.1247  0.5220
   52MOL   H21018672   6.607   5.501   2.647 -0.3578  0.3638  1.3261
   52MOL   H21118673   6.434   5.607   2.750 -0.3653  3.2479 -0.7079
   52MOL   H21218674   6.314   5.541   2.649  0.4696 -0.0034 -1.2498
   52MOL   H21318675   6.396   5.720   2.475  2.1318  0.8027  0.0828
   52MOL   H21418676   6.514   5.780   2.587  0.4621 -0.6773 -3.6545
   52MOL   H21518677   6.352   5.849   2.748  0.0589  0.8123 -0.2508
   52MOL   H21618678   6.309   5.915   2.600  1.8003  1.3371  1.7776
   52MOL   H21718679   6.217   5.777   2.659 -0.5962  1.3140  1.5118
   52MOL   C21818680   6.347   5.285   2.562  0.2149 -0.2506  0.0494
   52MOL   C21918681   6.232   5.266   2.667 -0.9620  0.9372  0.6583
   52MOL   C22018682   6.260   5.140   2.752 -0.3687  0.4400 -0.1399
   52MOL   C22118683   6.219   5.153   2.904  0.4468  0.6679  0.1783
   52MOL   C22218684   6.261   5.032   2.985 -0.1370  0.7302  0.2215
   52MOL   C22318685   6.229   5.055   3.137  0.2087  0.4786 -0.3767
   52MOL   H22418686   6.317   5.356   2.486  0.4985 -0.6777 -0.4642
   52MOL   H22518687   6.347   5.190   2.509 -0.3735 -0.5224  0.5276
   52MOL   H22618688   6.241   5.355   2.730  1.1470  1.3237 -0.1252
   52MOL   H22718689   6.360   5.096   2.747 -0.0468  1.3407 -1.9245
   52MOL   H22818690   6.203   5.062   2.702  1.6317 -1.5829  0.5958
   52MOL   H22918691   6.110   5.150   2.905  0.4267  1.5435  2.1872
   52MOL   H23018692   6.253   5.251   2.935 -0.5434  1.1352 -0.1667
   52MOL   H23118693   6.198   4.954   2.944 -0.4198  1.1626 -0.1782
   52MOL   H23218694   6.367   5.007   2.976 -0.9056 -2.5299 -0.3760
   52MOL   H23318695   6.251   4.964   3.193  2.5609  1.6406  0.6422
   52MOL   H23418696   6.122   5.074   3.148  0.0149 -0.4512 -0.6440
   52MOL   H23518697   6.273   5.143   3.184 -0.6070  1.0353 -0.6473
   52MOL   C23618698   6.094   5.271   2.596  0.4399  0.3753  0.0909
   52MOL   C23718699   5.975   5.267   2.695 -0.0664  0.5104  0.2232
   52MOL   C23818700   5.840   5.247   2.622  0.0513  0.9365  0.3543
   52MOL   C23918701   5.818   5.128   2.517 -0.0351  0.1998 -0.3894
   52MOL   C24018702   5.826   4.992   2.591  0.0460  0.8922 -0.2437
   52MOL   C24118703   5.789   4.876   2.500  0.0457 -0.0527 -0.1441
   52MOL   H24218704   6.083   5.357   2.530 -2.3450 -1.2562 -1.6710
   52MOL   H24318705   6.091   5.181   2.535  0.4171  0.1290  0.4515
   52MOL   H24418706   5.991   5.173   2.748 -0.3773  0.1327 -0.3494
   52MOL   H24518707   5.767   5.225   2.700 -0.5971  2.8825  0.3177
   52MOL   H24618708   5.813   5.339   2.570 -0.2389  1.2458  1.0568
   52MOL   H24718709   5.886   5.150   2.434 -0.0600  2.5203  0.1867
   52MOL   H24818710   5.718   5.131   2.475  0.3125  1.4631 -1.1410
   52MOL   H24918711   5.927   4.988   2.631  0.4509 -3.8247 -1.4017
   52MOL   H25018712   5.745   4.978   2.663  0.5618 -0.7905  0.0316
   52MOL   H25118713   5.871   4.859   2.430 -0.9632  0.2424 -1.4010
   52MOL   H25218714   5.771   4.784   2.557  1.3772  0.0168  0.4247
   52MOL   H25318715   5.698   4.905   2.449 -0.4085  1.4790  1.4843
   52MOL   C25418716   5.973   5.391   2.785 -0.4581  0.1075 -0.6075
   52MOL   C25518717   5.852   5.395   2.897  0.0409  0.1013  0.4639
   52MOL   C25618718   5.851   5.526   2.977 -0.1155  0.6377  0.4924
   52MOL   C25718719   5.827   5.664   2.905  0.1579 -0.6901  0.2925
   52MOL   C25818720   5.911   5.778   2.953  0.2192 -0.0519  0.0008
   52MOL   C25918721   6.063   5.762   2.948 -0.2781  0.5272 -0.3604
   52MOL   H26018722   5.990   5.486   2.735  0.6295  0.5156  0.5006
   52MOL   H26118723   6.066   5.385   2.842 -0.7372 -2.6114 -0.3501
   52MOL   H26218724   5.758   5.386   2.842  1.3759 -2.9031 -1.4494
   52MOL   H26318725   5.777   5.517   3.057  0.0666  0.4360  0.6392
   52MOL   H26418726   5.950   5.529   3.023 -0.5924  0.9149  1.5271
   52MOL   H26518727   5.852   5.654   2.800  0.4333 -0.9466  0.3826
   52MOL   H26618728   5.721   5.689   2.904  0.5136  0.8414 -0.9440
   52MOL   H26718729   5.882   5.804   3.054  1.1201  1.6220 -0.1449
   52MOL   H26818730   5.891   5.862   2.887  1.4229  0.3609  0.1412
   52MOL   H26918731   6.107   5.673   2.991 -2.6462 -0.6718 -0.3744
   52MOL   H27018732   6.117   5.833   3.011  0.7149 -0.6052  0.1015
   52MOL   H27118733   6.094   5.764   2.843 -1.4316 -2.1303 -0.7920
   52MOL   C27218734   5.861   5.269   2.982  0.0773 -0.3671  0.4811
   52MOL   C27318735   5.725   5.217   3.054  0.2973 -0.2306 -0.8409
   52MOL   C27418736   5.757   5.088   3.142 -0.4371 -0.0069 -0.1851
   52MOL   C27518737   5.821   4.963   3.089  0.2546 -0.2730 -0.1727
   52MOL   C27618738   5.855   4.874   3.212 -0.0689 -0.8729 -0.2673
   52MOL   C27718739   5.737   4.786   3.251 -0.7830 -0.4554 -0.4602
   52MOL   H27818740   5.904   5.182   2.933  0.0645  0.4893 -1.1005
   52MOL   H27918741   5.933   5.292   3.061 -0.2078  1.0107  0.3614
   52MOL   H28018742   5.698   5.299   3.120 -1.1849 -1.2760 -0.1101
   52MOL   H28118743   5.665   5.061   3.194 -0.2345  1.4547  0.9457
   52MOL   H28218744   5.829   5.125   3.215 -0.6487  0.0456 -0.0015
   52MOL   H28318745   5.910   4.981   3.030  0.4740  0.9193  0.5000
   52MOL   H28418746   5.756   4.910   3.020 -0.3037 -1.0217  0.8942
   52MOL   H28518747   5.946   4.819   3.191  0.6868  1.0810 -2.3859
   52MOL   H28618748   5.880   4.939   3.296  1.0312 -2.9421  1.0312
   52MOL   H28718749   5.770   4.721   3.332  0.3035  1.9277  1.0623
   52MOL   H28818750   5.653   4.849   3.280  0.1389  0.1166  1.0797
   52MOL   H28918751   5.700   4.721   3.172 -0.3086  0.8458 -1.7824
   52MOL   C29018752   5.607   5.185   2.955 -0.2710 -0.1300  0.3767
   52MOL   C29118753   5.462   5.160   3.004 -0.4581  0.3907  0.4615
   52MOL   C29218754   5.426   5.269   3.107  0.4026 -0.4517 -0.2463
   52MOL   C29318755   5.432   5.412   3.063 -0.4561  0.1386 -0.9635
   52MOL   C29418756   5.328   5.499   3.136 -0.4459 -0.5310 -0.3851
   52MOL   C29518757   5.324   5.638   3.070  0.3445 -0.0502  0.1676
   52MOL   H29618758   5.625   5.091   2.904  0.3993  1.5250 -2.5816
   52MOL   H29718759   5.601   5.257   2.873 -3.2421  1.0572  1.5894
   52MOL   H29818760   5.452   5.070   3.064 -0.3606 -0.3023 -0.5495
   52MOL   H29918761   5.482   5.262   3.200  1.0464 -0.3082 -0.6241
   52MOL   H30018762   5.323   5.251   3.137  0.5919 -2.5065 -0.7885
   52MOL   H30118763   5.535   5.448   3.070 -0.8527  0.9112  1.1511
   52MOL   H30218764   5.412   5.416   2.956  1.8704 -0.0085 -1.4500
   52MOL   H30318765   5.339   5.513   3.243 -0.0195  0.7475 -0.5892
   52MOL   H30418766   5.233   5.446   3.125 -1.1038  0.5605 -0.0946
   52MOL   H30518767   5.230   5.678   3.108  0.1315 -0.1534 -0.2440
   52MOL   H30618768   5.316   5.633   2.962 -1.9272  0.5347  0.2788
   52MOL   H30718769   5.406   5.702   3.101  0.4202 -0.2643  0.4136
   52MOL   C30818770   5.361   5.153   2.886 -0.1441 -0.5857 -0.4408
   52MOL   C30918771   5.356   5.016   2.819 -0.3455  0.0518  0.2392
   52MOL   C31018772   5.283   5.034   2.688 -0.0554  0.1315 -0.3197
   52MOL   C31118773   5.376   5.071   2.575  0.2266 -0.0289  0.8171
   52MOL   C31218774   5.317   5.111   2.433 -0.1365  0.2794  0.2828
   52MOL   C31318775   5.435   5.130   2.338  0.0443 -0.0889 -0.0561
   52MOL   H31418776   5.261   5.190   2.906  0.1853  1.5127 -2.4300
   52MOL   H31518777   5.399   5.222   2.810  0.8502 -1.5749 -0.8622
   52MOL   H31618778   5.459   4.988   2.795 -0.7019  0.2370 -1.5707
   52MOL   H31718779   5.196   5.099   2.700 -0.0662  0.3706 -1.5334
   52MOL   H31818780   5.228   4.945   2.658  1.5728 -0.3430 -2.0053
   52MOL   H31918781   5.451   4.992   2.576  0.5381  0.2675  0.6500
   52MOL   H32018782   5.434   5.159   2.600 -1.1680  0.6446  1.7860
   52MOL   H32118783   5.258   5.026   2.397 -1.8288  1.6438 -0.2317
   52MOL   H32218784   5.252   5.197   2.443 -0.1841  0.3322 -0.4136
   52MOL   H32318785   5.407   5.174   2.243  0.7576 -0.6638 -0.5385
   52MOL   H32418786   5.487   5.035   2.324  2.1139  0.6776  2.1143
   52MOL   H32518787   5.509   5.201   2.375 -0.3868  1.1878 -1.5878
   52MOL   C32618788   5.286   4.909   2.899  0.1894  1.1141 -0.6843
   52MOL   C32718789   5.296   4.760   2.854  0.3208 -0.2131 -0.1040
   52MOL   C32818790   5.434   4.699   2.907  0.5775 -0.1303 -0.0037
   52MOL   C32918791   5.518   4.640   2.794  0.3543  1.4614 -0.0602
   52MOL   C33018792   5.649   4.573   2.844  0.4952  0.0596 -0.3611
   52MOL   C33118793   5.703   4.477   2.742 -0.2529  0.1099  0.5191
   52MOL   H33218794   5.182   4.941   2.908  0.4701  2.0529 -0.8255
   52MOL   H33318795   5.327   4.909   3.000 -4.4373 -1.6152  1.3509
   52MOL   H33418796   5.294   4.750   2.745 -1.5889  0.3472 -0.1475
   52MOL   H33518797   5.499   4.775   2.952 -0.2565  0.6863 -0.1674
   52MOL   H33618798   5.421   4.626   2.987  1.9268 -0.0980  0.2556
   52MOL   H33718799   5.544   4.721   2.726  1.4194 -0.9167 -2.5609
   52MOL   H33818800   5.463   4.571   2.730  1.2464  1.1119 -0.4551
   52MOL   H33918801   5.725   4.651   2.852  0.4288 -0.0394  1.3317
   52MOL   H34018802   5.636   4.523   2.939 -2.2815  1.2269 -0.0574
   52MOL   H34118803   5.707   4.530   2.647 -1.0154 -1.6897 -0.5490
   52MOL   H34218804   5.645   4.386   2.726  0.6901 -0.7726  1.9501
   52MOL   H34318805   5.807   4.455   2.764 -0.0272 -0.6693 -1.2330
   52MOL   C34418806   5.179   4.674   2.905 -0.6221 -0.2964  0.1008
   52MOL   C34518807   5.036   4.710   2.870 -0.1358 -0.3212 -0.1724
   52MOL   C34618808   5.001   4.683   2.723 -0.0828  0.1793 -0.5334
   52MOL   C34718809   4.856   4.679   2.693 -0.6384  0.6091  0.4693
   52MOL   C34818810   4.782   4.552   2.739  0.1517 -0.6089  0.6550
   52MOL   C34918811   4.640   4.538   2.677  0.2518 -0.0829 -0.0016
   52MOL   H35018812   5.184   4.574   2.862 -1.4906  0.5439 -2.0123
   52MOL   H35118813   5.189   4.665   3.013  0.1202  1.4459  0.1800
   52MOL   H35218814   5.013   4.812   2.900  1.9106  0.3471 -0.8023
   52MOL   H35318815   5.054   4.750   2.656  2.4617  0.5709  1.7583
   52MOL   H35418816   5.036   4.582   2.703  0.0047  0.0333  0.3363
   52MOL   H35518817   4.804   4.762   2.741 -2.6795 -1.0844  1.2745
   52MOL   H35618818   4.850   4.682   2.585  0.3883 -0.4013  0.3731
   52MOL   H35718819   4.834   4.464   2.702  0.4046 -0.8071  1.4649
   52MOL   H35818820   4.773   4.541   2.847 -0.7405 -0.5810  0.5903
   52MOL   H35918821   4.575   4.622   2.702 -2.6741 -1.7757 -1.6812
   52MOL   H36018822   4.641   4.535   2.569  0.0913  0.1407 -0.0117
   52MOL   H36118823   4.594   4.445   2.711  1.2253 -0.6366 -0.1742
   52MOL   H36218824   4.964   4.654   2.931  1.0121 -2.4193 -0.7056
   53MOL     C118825   3.038   2.803   4.827  0.4151 -0.7478  0.3489
   53MOL     C218826   2.931   2.907   4.858 -0.8711 -0.0094  0.0610
   53MOL     C318827   2.960   3.043   4.790 -0.1128 -0.3803 -0.2624
   53MOL     C418828   3.089   3.116   4.818 -0.4275  0.0843 -0.4392
   53MOL     C518829   3.111   3.253   4.742 -0.3468 -0.5120 -0.2812
   53MOL     C618830   3.236   3.320   4.792  0.0908  0.0618  0.1456
   53MOL     H718831   3.141   2.832   4.848 -0.2758  0.4353  2.2947
   53MOL     H818832   3.022   2.714   4.888  3.0621 -1.9534 -0.6263
   53MOL     H918833   2.845   2.859   4.812 -0.0253 -1.0439 -0.4658
   53MOL    H1018834   2.876   3.111   4.800  1.1354  0.7602  3.0894
   53MOL    H1118835   2.956   3.014   4.685 -0.9378 -2.7776  0.3963
   53MOL    H1218836   3.165   3.042   4.791  0.3491  0.5344  0.4879
   53MOL    H1318837   3.084   3.127   4.926  0.2374 -2.5490 -0.1028
   53MOL    H1418838   3.118   3.242   4.634  0.1127 -2.7906 -0.0629
   53MOL    H1518839   3.018   3.308   4.751  0.5489  0.4476  4.3639
   53MOL    H1618840   3.281   3.404   4.739 -1.5447 -0.3322 -1.9292
   53MOL    H1718841   3.322   3.253   4.788 -1.6119 -2.1419 -0.7536
   53MOL    H1818842   3.220   3.343   4.897  1.7254 -1.2595  0.7137
   53MOL    H1918843   3.035   2.768   4.724  0.3042  1.0956 -0.2989
   53MOL    C2018844   2.919   2.920   5.011  0.0522 -0.2939 -0.6086
   53MOL    C2118845   2.799   2.996   5.064  0.0417  0.5739 -0.6804
   53MOL    C2218846   2.666   2.927   5.017 -0.0030 -0.5238 -0.6226
   53MOL    C2318847   2.541   3.013   5.057  0.2138  0.4056  0.2384
   53MOL    C2418848   2.410   2.962   4.989  0.1565 -0.3288  0.3574
   53MOL    C2518849   2.383   2.812   5.017 -0.1742  0.0846 -0.7001
   53MOL    H2618850   3.011   2.967   5.046  0.2103 -0.8814 -0.2101
   53MOL    H2718851   2.912   2.821   5.056 -2.2400  0.2297  0.2411
   53MOL    H2818852   2.790   3.099   5.032 -1.2995  0.5330 -0.4653
   53MOL    H2918853   2.658   2.823   5.046 -1.1402 -0.6978 -1.5191
   53MOL    H3018854   2.673   2.917   4.909  0.1401  1.7538 -0.8665
   53MOL    H3118855   2.557   3.118   5.032  1.5123  0.5542  1.6242
   53MOL    H3218856   2.521   3.011   5.164  1.8719  1.0589  0.5650
   53MOL    H3318857   2.324   3.022   5.017  0.5851  0.6144 -0.3038
   53MOL    H3418858   2.414   2.981   4.882 -0.6551  2.9835  0.8734
   53MOL    H3518859   2.396   2.800   5.125  1.1935 -2.8143 -1.1499
   53MOL    H3618860   2.283   2.784   4.986  1.0157 -3.8733 -1.2389
   53MOL    H3718861   2.459   2.750   4.970 -0.4247 -0.2949 -0.6060
   53MOL    C3818862   2.796   3.019   5.223 -0.0959  0.2638  0.2426
   53MOL    C3918863   2.919   3.085   5.288 -0.2962 -0.5538  0.4576
   53MOL    C4018864   2.954   3.222   5.227 -0.1073 -0.0652  0.0651
   53MOL    C4118865   2.839   3.327   5.233  1.2199  0.6499  0.0898
   53MOL    C4218866   2.871   3.462   5.179 -0.4113 -0.1059 -0.1794
   53MOL    C4318867   2.764   3.568   5.202  0.0180 -0.9200  0.1643
   53MOL    H4418868   2.783   2.919   5.263  0.1387 -0.4412 -1.4169
   53MOL    H4518869   2.708   3.077   5.250  0.2194 -0.3315  2.6925
   53MOL    H4618870   3.001   3.021   5.257 -1.0775 -0.9268 -0.9074
   53MOL    H4718871   3.039   3.267   5.279 -1.0625  0.2328  1.4131
   53MOL    H4818872   2.979   3.218   5.121  0.2068 -0.3323  0.1497
   53MOL    H4918873   2.759   3.304   5.162 -0.6114  1.4939  1.8333
   53MOL    H5018874   2.794   3.329   5.332  0.5372 -0.8703 -0.1728
   53MOL    H5118875   2.968   3.490   5.223 -0.6231 -1.3259  1.1114
   53MOL    H5218876   2.884   3.443   5.073 -1.4807 -3.2315  0.2080
   53MOL    H5318877   2.674   3.539   5.149 -0.6877 -0.2237  0.9517
   53MOL    H5418878   2.795   3.658   5.149 -0.5554  1.1380  3.1600
   53MOL    H5518879   2.742   3.598   5.305  0.0922 -0.1937 -0.0305
   53MOL    C5618880   2.907   3.091   5.441 -0.1760 -0.0185  0.1713
   53MOL    C5718881   3.029   3.148   5.521  0.2806 -0.2445 -0.0761
   53MOL    C5818882   3.162   3.090   5.473  0.2589 -0.7030 -0.0815
   53MOL    C5918883   3.180   2.934   5.502  0.6269 -0.1951 -0.1199
   53MOL    C6018884   3.286   2.854   5.422 -0.0155 -0.2387 -0.9797
   53MOL    C6118885   3.301   2.895   5.279  0.1931 -0.2450 -0.3468
   53MOL    H6218886   2.824   3.160   5.454  0.9140  1.1360  1.2291
   53MOL    H6318887   2.873   2.996   5.481 -1.0582 -0.2403 -1.1223
   53MOL    H6418888   3.047   3.251   5.493 -0.5219  0.3184  1.4501
   53MOL    H6518889   3.171   3.110   5.366  1.7837  0.3126  0.2125
   53MOL    H6618890   3.244   3.146   5.519  1.2853 -0.4202 -2.2072
   53MOL    H6718891   3.081   2.893   5.483  0.1533  0.3705  1.0693
   53MOL    H6818892   3.194   2.911   5.607 -1.0664  1.6770  0.5491
   53MOL    H6918893   3.382   2.872   5.470  0.1766 -0.7618 -1.1674
   53MOL    H7018894   3.261   2.748   5.433 -1.7861  0.2232 -0.3976
   53MOL    H7118895   3.205   2.902   5.226  0.4384 -1.4148 -0.9569
   53MOL    H7218896   3.344   2.995   5.266 -1.0825  0.7772  2.8192
   53MOL    H7318897   3.365   2.830   5.219  2.5024  1.4118  0.2631
   53MOL    C7418898   2.999   3.144   5.679  0.0906 -0.2855  0.0986
   53MOL    C7518899   2.882   3.239   5.721 -0.2987  0.3031 -0.5255
   53MOL    C7618900   2.862   3.224   5.871  0.0043  0.5192 -0.0908
   53MOL    C7718901   2.975   3.291   5.958 -0.7787 -0.5038  0.1722
   53MOL    C7818902   2.953   3.279   6.108  0.2661  0.1898 -0.0379
   53MOL    C7918903   2.821   3.346   6.152  0.0692  0.1929 -0.4458
   53MOL    H8018904   2.980   3.041   5.709  1.0743 -0.6288 -0.4338
   53MOL    H8118905   3.092   3.163   5.733 -0.9879 -0.6584  2.1523
   53MOL    H8218906   2.788   3.200   5.682  0.5715 -3.2707  0.7748
   53MOL    H8318907   2.766   3.272   5.887 -1.7373 -2.5994 -0.7137
   53MOL    H8418908   2.858   3.116   5.890 -0.6968  0.7012  0.8218
   53MOL    H8518909   3.075   3.252   5.939 -0.4794  0.6209 -0.6162
   53MOL    H8618910   2.979   3.399   5.941 -0.7615 -0.7937 -1.7548
   53MOL    H8718911   3.037   3.329   6.158  0.0648  0.6267 -0.1356
   53MOL    H8818912   2.956   3.176   6.143 -2.2813 -0.1433 -0.7267
   53MOL    H8918913   2.830   3.365   6.259 -4.1291  2.3971 -0.3605
   53MOL    H9018914   2.799   3.434   6.090  1.6111  0.4439 -0.6437
   53MOL    H9118915   2.741   3.274   6.136  1.1023 -1.3865  1.2988
   53MOL    C9218916   2.900   3.391   5.677 -0.4556 -0.1037  0.2977
   53MOL    C9318917   2.796   3.498   5.704  0.3434  0.2014 -0.6078
   53MOL    C9418918   2.834   3.638   5.655  0.3776  0.2671 -0.5562
   53MOL    C9518919   2.961   3.693   5.730 -0.2074  0.1042 -0.0340
   53MOL    C9618920   3.000   3.838   5.679 -0.4261 -0.1904 -0.6985
   53MOL    C9718921   2.909   3.931   5.751 -0.5386 -0.6002  0.2116
   53MOL    H9818922   2.999   3.421   5.712  1.0410 -3.0288 -1.2130
   53MOL    H9918923   2.916   3.404   5.570  0.3185 -1.6305  0.2139
   53MOL   H10018924   2.796   3.506   5.813  0.5974  0.3852 -0.6218
   53MOL   H10118925   2.755   3.713   5.654 -0.4649 -0.5939 -0.1171
   53MOL   H10218926   2.853   3.621   5.549 -1.8482  0.6292 -1.0459
   53MOL   H10318927   2.949   3.698   5.838 -0.2824  1.0796 -0.0828
   53MOL   H10418928   3.047   3.627   5.718 -1.2997 -1.2222 -0.7726
   53MOL   H10518929   3.104   3.862   5.702 -0.7751 -0.8949  1.7653
   53MOL   H10618930   2.990   3.845   5.571 -1.2853  1.2494 -0.5449
   53MOL   H10718931   2.803   3.911   5.743 -0.6249 -0.2614  0.5224
   53MOL   H10818932   2.943   3.924   5.854  0.1300  1.0861  0.1220
   53MOL   H10918933   2.912   4.035   5.719 -1.2719 -0.0867  1.8051
   53MOL   C11018934   2.652   3.455   5.658  0.3271 -0.1756 -0.3939
   53MOL   C11118935   2.532   3.523   5.732  0.7128  0.1686  0.4322
   53MOL   C11218936   2.508   3.495   5.879  0.0850 -0.1568  0.1679
   53MOL   C11318937   2.427   3.600   5.962 -0.2676  0.3402  0.7439
   53MOL   C11418938   2.356   3.526   6.083 -0.7526  0.5576 -0.2335
   53MOL   C11518939   2.451   3.508   6.197 -0.0019 -0.3258 -0.0416
   53MOL   H11618940   2.650   3.475   5.551 -1.1010 -2.0552 -0.7424
   53MOL   H11718941   2.639   3.349   5.675 -0.0257 -0.2886 -1.3537
   53MOL   H11818942   2.563   3.627   5.743  1.0940  0.3362 -1.9913
   53MOL   H11918943   2.598   3.470   5.935 -0.8214  0.6280  1.9847
   53MOL   H12018944   2.465   3.395   5.873 -0.9071  0.2015  1.2081
   53MOL   H12118945   2.341   3.641   5.908 -0.3890 -0.5734  0.2322
   53MOL   H12218946   2.493   3.680   5.996 -0.1778  0.2769  0.7176
   53MOL   H12318947   2.318   3.429   6.054  2.0585 -1.2003  1.7643
   53MOL   H12418948   2.281   3.599   6.115 -0.0361 -0.5208  4.1205
   53MOL   H12518949   2.516   3.424   6.174 -0.6700 -1.8143  3.1891
   53MOL   H12618950   2.507   3.598   6.221 -1.1723 -0.0596  1.7886
   53MOL   H12718951   2.389   3.482   6.283 -0.0826 -1.3352 -0.4064
   53MOL   C12818952   2.396   3.522   5.650 -0.4673 -0.3563 -0.2134
   53MOL   C12918953   2.337   3.664   5.612 -0.3556  0.0229  0.5461
   53MOL   C13018954   2.188   3.658   5.569 -0.3998 -0.0854  0.3854
   53MOL   C13118955   2.097   3.598   5.684  0.9049 -0.1785 -0.0803
   53MOL   C13218956   1.943   3.611   5.653 -0.0878  0.3263  0.3907
   53MOL   C13318957   1.847   3.535   5.747 -0.4482 -0.1134 -0.2324
   53MOL   H13418958   2.324   3.458   5.702  0.8391 -0.2896  1.7641
   53MOL   H13518959   2.417   3.464   5.561 -0.6125  0.5325 -0.8298
   53MOL   H13618960   2.340   3.721   5.705  3.7360  1.2934 -0.2542
   53MOL   H13718961   2.151   3.757   5.545  1.3350  0.4532 -0.1902
   53MOL   H13818962   2.187   3.608   5.472 -1.7693  0.7769 -0.0462
   53MOL   H13918963   2.114   3.655   5.775  0.0051  1.2330 -0.7672
   53MOL   H14018964   2.110   3.494   5.712  0.0631 -0.2070  0.2196
   53MOL   H14118965   1.914   3.716   5.659 -1.5733 -0.0185 -0.5395
   53MOL   H14218966   1.923   3.575   5.552  0.5821 -0.1990  0.4423
   53MOL   H14318967   1.741   3.535   5.723 -0.4845 -2.0575 -0.1414
   53MOL   H14418968   1.862   3.562   5.851  0.0316  0.8717 -0.5479
   53MOL   H14518969   1.869   3.431   5.723 -0.7740 -0.3263  0.4153
   53MOL   C14618970   2.424   3.729   5.493 -0.1046  0.5573  0.5039
   53MOL   C14718971   2.426   3.878   5.470 -0.8291 -0.0929  0.6365
   53MOL   C14818972   2.489   3.929   5.333  0.3377 -0.0773  0.0821
   53MOL   C14918973   2.396   3.906   5.208  0.6588  0.0275 -0.5221
   53MOL   C15018974   2.450   3.986   5.087 -0.1552 -0.1012  0.1213
   53MOL   C15118975   2.583   3.935   5.022  0.9151 -0.2352 -0.0983
   53MOL   H15218976   2.527   3.703   5.519  0.6477  3.8349  1.0445
   53MOL   H15318977   2.417   3.683   5.394 -0.9689 -1.1959  1.3712
   53MOL   H15418978   2.326   3.922   5.474 -1.5154 -1.6027  0.6026
   53MOL   H15518979   2.576   3.866   5.316 -0.6627 -1.3694 -0.2604
   53MOL   H15618980   2.518   4.034   5.345  0.6371 -0.3624  2.1388
   53MOL   H15718981   2.391   3.799   5.193  3.7990 -0.2081 -0.1681
   53MOL   H15818982   2.301   3.953   5.233  0.8631  1.1247 -1.7200
   53MOL   H15918983   2.466   4.090   5.116 -2.4542  1.2872 -3.2547
   53MOL   H16018984   2.372   4.000   5.013  0.7945  0.3634 -0.7967
   53MOL   H16118985   2.614   4.010   4.950 -0.4800  2.0293  1.5866
   53MOL   H16218986   2.669   3.932   5.089  1.0736  0.4001 -0.2753
   53MOL   H16318987   2.569   3.837   4.976 -0.6065 -1.0430  2.0226
   53MOL   C16418988   2.507   3.928   5.589 -0.3076 -0.2121 -0.1663
   53MOL   C16518989   2.486   4.074   5.642  0.1007  0.0068 -0.0658
   53MOL   C16618990   2.486   4.069   5.798 -0.1462 -0.3139  0.2310
   53MOL   C16718991   2.380   3.971   5.863  0.3875  0.7007 -1.0824
   53MOL   C16818992   2.322   4.037   5.986  0.5478  0.1289  0.0601
   53MOL   C16918993   2.244   3.938   6.072 -0.2635  0.1557  0.2594
   53MOL   H17018994   2.507   3.858   5.673  1.8889  1.2118  1.0657
   53MOL   H17118995   2.611   3.909   5.563 -0.5929 -2.3011  0.0832
   53MOL   H17218996   2.383   4.106   5.627 -0.5753 -0.5800  2.9655
   53MOL   H17318997   2.456   4.167   5.834 -0.6420 -1.3429  2.6986
   53MOL   H17418998   2.582   4.041   5.840  1.5610  0.1939 -3.1537
   53MOL   H17518999   2.433   3.880   5.891 -0.7806  0.7347  1.4245
   53MOL   H17619000   2.302   3.930   5.798 -1.0612  0.3363  0.8342
   53MOL   H17719001   2.254   4.120   5.968  2.4430  1.6829 -0.1017
   53MOL   H17819002   2.395   4.076   6.057  0.2897 -0.8313  0.8692
   53MOL   H17919003   2.205   3.996   6.156 -0.5668  0.5499 -0.1471
   53MOL   H18019004   2.293   3.846   6.103 -0.8555  0.1358  1.1527
   53MOL   H18119005   2.160   3.907   6.010  0.4399 -0.0236 -0.6217
   53MOL   C18219006   2.601   4.166   5.597 -0.6119  0.3371 -0.6416
   53MOL   C18319007   2.564   4.315   5.583 -0.0131  0.2165  0.4291
   53MOL   C18419008   2.497   4.356   5.448 -0.2995  0.0134 -0.3960
   53MOL   C18519009   2.361   4.286   5.415 -0.0524  0.6325  0.3709
   53MOL   C18619010   2.290   4.362   5.300 -0.4337  0.2287 -0.3341
   53MOL   C18719011   2.162   4.282   5.264 -0.7498  0.8093 -0.3115
   53MOL   H18819012   2.687   4.165   5.664  0.7006  3.3405 -2.1996
   53MOL   H18919013   2.648   4.137   5.503  1.5000 -0.3998  0.6239
   53MOL   H19019014   2.485   4.336   5.655 -1.7099  0.8578 -1.5740
   53MOL   H19119015   2.477   4.463   5.448 -3.1676 -0.4288  2.4650
   53MOL   H19219016   2.567   4.338   5.367  1.7193  0.0391  1.3119
   53MOL   H19319017   2.307   4.302   5.509 -1.0033  0.1260 -0.0850
   53MOL   H19419018   2.353   4.178   5.404  0.4771  0.4688  1.5306
   53MOL   H19519019   2.350   4.375   5.210  0.2140 -1.7888 -0.2045
   53MOL   H19619020   2.259   4.463   5.325 -2.8296 -0.5747  0.0738
   53MOL   H19719021   2.123   4.311   5.167 -0.8086  0.0510 -0.5201
   53MOL   H19819022   2.085   4.300   5.340  1.4194  0.3164  2.0715
   53MOL   H19919023   2.178   4.175   5.252 -2.5089  0.3514  1.0879
   53MOL   C20019024   2.690   4.410   5.592 -0.8466  0.2756 -0.1905
   53MOL   C20119025   2.676   4.523   5.704 -0.7494 -0.6261 -0.7652
   53MOL   C20219026   2.723   4.464   5.842  0.5473 -0.0337  0.5016
   53MOL   C20319027   2.862   4.390   5.847 -0.6165 -0.7432 -0.4021
   53MOL   C20419028   2.891   4.348   5.995 -0.2186 -0.2104  0.3410
   53MOL   C20519029   3.019   4.268   5.996  0.2214  0.0542  0.2097
   53MOL   H20619030   2.701   4.460   5.496 -0.7662  0.5607 -0.0320
   53MOL   H20719031   2.779   4.349   5.604 -0.2427  1.3538  0.9279
   53MOL   H20819032   2.571   4.548   5.719 -0.1402  2.5811 -1.5020
   53MOL   H20919033   2.650   4.388   5.870 -0.5058  0.8754  0.2720
   53MOL   H21019034   2.725   4.540   5.920  2.7833 -0.5982  1.0178
   53MOL   H21119035   2.945   4.459   5.827 -0.0171 -1.3916 -0.1549
   53MOL   H21219036   2.857   4.302   5.783 -0.0307  0.3015 -1.9282
   53MOL   H21319037   2.809   4.288   6.033 -1.9523  3.2541  2.3559
   53MOL   H21419038   2.903   4.437   6.057  0.4537 -0.6006  0.7747
   53MOL   H21519039   3.102   4.318   5.946  1.6256 -0.3996  2.0211
   53MOL   H21619040   3.073   4.249   6.089 -2.3110  0.6607  1.8553
   53MOL   H21719041   3.023   4.174   5.942 -0.5572  0.0489  0.1582
   53MOL   C21819042   2.756   4.646   5.664 -0.4279  0.3754  0.9222
   53MOL   C21919043   2.685   4.738   5.562 -0.5824  0.3375 -0.9582
   53MOL   C22019044   2.789   4.850   5.514 -0.3690  0.0873 -0.6195
   53MOL   C22119045   2.826   4.959   5.604 -0.1097 -0.5038  0.4517
   53MOL   C22219046   2.908   5.069   5.534 -0.2516 -0.0376 -0.2835
   53MOL   C22319047   2.943   5.202   5.596 -0.1779 -0.0237 -0.4791
   53MOL   H22419048   2.777   4.713   5.747  0.4617 -0.0265  1.0267
   53MOL   H22519049   2.858   4.619   5.637 -0.6936 -1.7193  1.8451
   53MOL   H22619050   2.664   4.680   5.472 -1.0128  1.5602 -1.6668
   53MOL   H22719051   2.755   4.904   5.426 -1.1728 -1.7027 -1.4335
   53MOL   H22819052   2.881   4.803   5.478  1.0167 -0.2111  3.0345
   53MOL   H22919053   2.893   4.914   5.678  2.9105  1.6902 -0.8429
   53MOL   H23019054   2.741   4.996   5.660 -1.9306 -2.5172 -0.9050
   53MOL   H23119055   2.991   5.025   5.480 -0.7899  0.1163 -1.2426
   53MOL   H23219056   2.840   5.097   5.454  0.4270 -0.8636 -1.1543
   53MOL   H23319057   3.019   5.242   5.529 -1.9986  0.9872 -1.9780
   53MOL   H23419058   2.999   5.174   5.685 -1.2637 -2.5894 -0.5667
   53MOL   H23519059   2.867   5.280   5.610 -0.2423 -0.0050 -0.9495
   53MOL   C23619060   2.556   4.791   5.621 -0.0843  0.5884 -0.2535
   53MOL   C23719061   2.485   4.895   5.527 -0.2208  0.3998  0.1001
   53MOL   C23819062   2.378   4.955   5.611  0.2221 -1.1508 -0.2586
   53MOL   C23919063   2.306   5.089   5.571  0.3676  0.8509  0.2878
   53MOL   C24019064   2.162   5.094   5.634 -1.2104 -0.4340 -0.3996
   53MOL   C24119065   2.083   5.224   5.608 -0.7066 -0.3058  0.4671
   53MOL   H24219066   2.488   4.711   5.651  3.3201 -2.9040 -1.4481
   53MOL   H24319067   2.584   4.851   5.708  0.4444 -1.9237  1.3812
   53MOL   H24419068   2.544   4.982   5.499  2.8272 -1.8385 -0.7112
   53MOL   H24519069   2.306   4.873   5.619  0.2658 -1.2746 -1.1589
   53MOL   H24619070   2.413   4.967   5.714 -0.2308 -0.5187 -0.1745
   53MOL   H24719071   2.293   5.096   5.463  2.2628 -0.3049 -0.0320
   53MOL   H24819072   2.364   5.176   5.601  1.0487  0.0126  1.4245
   53MOL   H24919073   2.094   5.011   5.615 -1.6942  0.1654 -1.2704
   53MOL   H25019074   2.185   5.087   5.741 -1.1076  0.5094 -0.3614
   53MOL   H25119075   1.984   5.213   5.652 -0.5616 -1.1867  0.5844
   53MOL   H25219076   2.126   5.317   5.646  0.8080 -1.7714  2.4988
   53MOL   H25319077   2.068   5.238   5.501  1.0957  1.1278  0.3695
   53MOL   C25419078   2.422   4.825   5.404  0.6163  0.4611 -0.0817
   53MOL   C25519079   2.502   4.831   5.269 -0.6111 -0.0670  0.2756
   53MOL   C25619080   2.517   4.980   5.218 -0.3978 -0.5270 -0.4180
   53MOL   C25719081   2.609   4.988   5.095  0.5225 -0.0816 -0.2390
   53MOL   C25819082   2.624   5.126   5.033  0.0276  0.2688  0.0399
   53MOL   C25919083   2.740   5.136   4.927 -0.7753 -0.6112  0.3742
   53MOL   H26019084   2.320   4.861   5.388 -0.0484 -0.1708  2.5669
   53MOL   H26119085   2.405   4.718   5.415  1.1794  0.1265 -2.1807
   53MOL   H26219086   2.605   4.808   5.295 -0.3044 -0.6279 -1.3506
   53MOL   H26319087   2.420   5.018   5.186  0.1915  0.4185 -1.1086
   53MOL   H26419088   2.560   5.045   5.294 -1.4943 -1.7201  1.2536
   53MOL   H26519089   2.708   4.951   5.124  0.1958 -0.6643  0.1283
   53MOL   H26619090   2.572   4.926   5.014 -1.6298 -0.1508  0.7709
   53MOL   H26719091   2.655   5.189   5.117 -1.4192  0.5829  0.3427
   53MOL   H26819092   2.545   5.187   4.991  0.7237  1.1712  0.0200
   53MOL   H26919093   2.831   5.093   4.970 -1.7256 -1.1393  1.9394
   53MOL   H27019094   2.749   5.238   4.892 -0.6754 -0.4374  0.9056
   53MOL   H27119095   2.713   5.083   4.836 -2.0208  0.7229 -0.0545
   53MOL   C27219096   2.459   4.718   5.165 -1.0425 -0.4597  0.3998
   53MOL   C27319097   2.574   4.657   5.068 -0.1668  0.3883 -0.0601
   53MOL   C27419098   2.530   4.593   4.936 -0.4927  0.4413  0.3690
   53MOL   C27519099   2.468   4.691   4.835  0.5205  0.5895  0.5938
   53MOL   C27619100   2.408   4.621   4.711  0.7257 -0.0611  0.8812
   53MOL   C27719101   2.320   4.714   4.617 -0.3820  0.2481  0.5299
   53MOL   H27819102   2.395   4.647   5.217  0.2102 -0.9587  1.2676
   53MOL   H27919103   2.392   4.762   5.091 -1.5643 -2.2844 -0.2374
   53MOL   H28019104   2.640   4.736   5.031  0.0419 -0.5885 -1.8495
   53MOL   H28119105   2.453   4.517   4.952 -0.0141 -0.4052 -1.3009
   53MOL   H28219106   2.623   4.549   4.902  0.3476  1.8427  0.7710
   53MOL   H28319107   2.541   4.760   4.793 -0.5161  1.8842  0.9000
   53MOL   H28419108   2.380   4.743   4.872 -1.4500 -2.1607 -0.0720
   53MOL   H28519109   2.492   4.590   4.648  2.4699  1.0206  2.5827
   53MOL   H28619110   2.355   4.530   4.737  0.2150  0.5901  2.1971
   53MOL   H28719111   2.349   4.815   4.588 -3.2619  1.0722  0.4256
   53MOL   H28819112   2.293   4.666   4.524 -0.0814  0.9219  0.0873
   53MOL   H28919113   2.220   4.726   4.658 -0.9753 -0.4346 -0.7001
   53MOL   C29019114   2.646   4.544   5.146  0.0789 -0.0119  0.6977
   53MOL   C29119115   2.797   4.551   5.112 -0.1623 -0.1998 -0.2084
   53MOL   C29219116   2.873   4.655   5.201 -0.4005 -0.0671 -0.1304
   53MOL   C29319117   2.980   4.727   5.119 -1.1436 -0.0747  0.2620
   53MOL   C29419118   3.059   4.833   5.199  0.1708  0.3464 -0.2290
   53MOL   C29519119   3.018   4.976   5.165 -0.0562 -0.3393  0.5416
   53MOL   H29619120   2.600   4.448   5.125 -0.9662  0.8579 -1.1247
   53MOL   H29719121   2.640   4.552   5.255 -0.9338 -0.6046  0.6968
   53MOL   H29819122   2.814   4.587   5.010  0.3019 -3.9103 -1.5240
   53MOL   H29919123   2.909   4.603   5.289  1.7107 -2.0630 -2.1181
   53MOL   H30019124   2.809   4.732   5.243  1.3697  0.7675  1.0522
   53MOL   H30119125   3.046   4.653   5.074  0.4872  1.5304 -0.0625
   53MOL   H30219126   2.931   4.762   5.028  2.0546 -1.2619 -1.9980
   53MOL   H30319127   3.166   4.818   5.184  0.4083 -0.2381  1.9287
   53MOL   H30419128   3.039   4.817   5.304 -2.1615 -0.0702 -0.7132
   53MOL   H30519129   3.073   5.051   5.222 -0.0848 -0.9718  1.4219
   53MOL   H30619130   2.913   4.984   5.193 -0.9151 -0.8457 -2.4187
   53MOL   H30719131   3.042   5.001   5.062 -2.8907 -3.1710 -0.8916
   53MOL   C30819132   2.870   4.416   5.124  0.6423  0.4637  0.3312
   53MOL   C30919133   2.824   4.322   5.013  0.4576  0.0651 -0.3994
   53MOL   C31019134   2.833   4.177   5.071 -0.1078 -0.9922  0.3272
   53MOL   C31119135   2.971   4.133   5.123  0.3818  0.1693  0.4677
   53MOL   C31219136   2.971   3.994   5.184 -0.2443 -0.5891  0.3208
   53MOL   C31319137   3.114   3.949   5.224 -0.0723 -0.2171 -0.1837
   53MOL   H31419138   2.978   4.424   5.129  0.6601 -0.6148  2.2901
   53MOL   H31519139   2.836   4.380   5.222 -3.1272  1.9777 -0.3399
   53MOL   H31619140   2.718   4.337   4.995  0.5744  0.6209 -0.6405
   53MOL   H31719141   2.794   4.111   4.993 -2.8235  1.4357 -0.4475
   53MOL   H31819142   2.763   4.165   5.154  0.4754 -0.0082  0.9651
   53MOL   H31919143   2.999   4.196   5.207 -2.3919  1.3839  0.5322
   53MOL   H32019144   3.043   4.156   5.044  0.2395  0.9927  0.5781
   53MOL   H32119145   2.902   3.993   5.268 -1.9858 -2.0303 -1.0880
   53MOL   H32219146   2.924   3.925   5.113 -0.2754 -0.4651  0.2213
   53MOL   H32319147   3.182   3.969   5.141  1.5965 -0.5475  1.0811
   53MOL   H32419148   3.132   3.846   5.254  1.3649 -0.0354 -0.3724
   53MOL   H32519149   3.138   4.004   5.316 -1.4930 -1.0104  0.6817
   53MOL   C32619150   2.904   4.345   4.884 -0.0173 -0.1840 -0.5841
   53MOL   C32719151   2.844   4.282   4.759 -0.0147  0.2918 -0.4196
   53MOL   C32819152   2.698   4.307   4.725  0.1873 -0.1820  0.3914
   53MOL   C32919153   2.623   4.193   4.656 -0.7048 -0.1520  0.3837
   53MOL   C33019154   2.472   4.208   4.624  0.0386 -0.1689  0.0122
   53MOL   C33119155   2.385   4.219   4.745 -0.2770 -0.7405  0.6068
   53MOL   H33219156   3.011   4.333   4.901 -0.1081 -1.2628 -0.7539
   53MOL   H33319157   2.898   4.451   4.859  1.3600 -0.0489 -0.3822
   53MOL   H33419158   2.840   4.174   4.773  0.0186  0.3495  0.0518
   53MOL   H33519159   2.631   4.331   4.808 -1.2040  2.6508 -1.4517
   53MOL   H33619160   2.692   4.396   4.662 -0.0081 -0.1837  0.4052
   53MOL   H33719161   2.651   4.099   4.702 -0.2276  1.0633  2.6558
   53MOL   H33819162   2.664   4.192   4.555  0.2299 -2.1134  0.7669
   53MOL   H33919163   2.458   4.291   4.555 -1.6707  2.0599  2.9095
   53MOL   H34019164   2.428   4.120   4.578 -0.7352  0.2705 -0.1026
   53MOL   H34119165   2.388   4.320   4.787 -3.7191  0.2204 -1.3199
   53MOL   H34219166   2.399   4.135   4.813  0.4428 -0.4845  0.7846
   53MOL   H34319167   2.281   4.201   4.721 -0.1817  0.0521 -0.4009
   53MOL   C34419168   2.947   4.298   4.649 -0.2353  0.0606 -0.1463
   53MOL   C34519169   2.982   4.440   4.615 -0.7689  0.3193  0.1276
   53MOL   C34619170   3.057   4.448   4.488  0.4178 -0.7773 -0.1893
   53MOL   C34719171   3.063   4.591   4.434  0.5459  0.3247 -0.1183
   53MOL   C34819172   3.114   4.613   4.291  0.3383  0.2296 -0.0381
   53MOL   C34919173   3.123   4.761   4.259  0.5780  1.0874 -0.6366
   53MOL   H35019174   3.041   4.245   4.668  1.0655  1.7732 -1.5660
   53MOL   H35119175   2.911   4.256   4.555 -0.0418  0.5528 -0.4407
   53MOL   H35219176   3.033   4.479   4.703  0.1493 -0.3797 -0.0851
   53MOL   H35319177   3.154   4.404   4.511  1.2088  0.9925 -0.0011
   53MOL   H35419178   3.012   4.376   4.420  0.7032 -1.4504  0.3364
   53MOL   H35519179   2.968   4.645   4.435  0.8382  0.8336  0.1724
   53MOL   H35619180   3.135   4.645   4.495  1.9952  0.0104 -1.5364
   53MOL   H35719181   3.209   4.561   4.286  1.1748  1.7014  0.3931
   53MOL   H35819182   3.050   4.563   4.218 -0.5325 -0.0538  0.9013
   53MOL   H35919183   3.021   4.799   4.256  0.0864 -0.1456  0.2463
   53MOL   H36019184   3.186   4.821   4.325  1.8313 -1.8618  0.9149
   53MOL   H36119185   3.150   4.779   4.155 -1.3482 -1.0206 -1.5351
   53MOL   H36219186   2.889   4.495   4.600 -0.6306  0.4893 -0.1166
   54MOL     C119187   2.369   2.515   5.232 -0.1559  0.1697  0.5247
   54MOL     C219188   2.418   2.448   5.359  0.1761 -0.0821  0.5555
   54MOL     C319189   2.285   2.383   5.408 -0.4468  0.6528  0.0125
   54MOL     C419190   2.312   2.273   5.509 -0.1474  0.0820  0.0507
   54MOL     C519191   2.179   2.227   5.572 -0.6398 -0.8632  0.6300
   54MOL     C619192   2.195   2.098   5.651  0.2327 -0.5878  0.0378
   54MOL     H719193   2.293   2.460   5.177 -0.2883 -0.4298  1.3004
   54MOL     H819194   2.333   2.616   5.250  1.0458  0.7053 -0.0055
   54MOL     H919195   2.479   2.362   5.333  2.0127  1.5786 -0.7582
   54MOL    H1019196   2.230   2.340   5.325 -1.7265 -0.8713  1.6318
   54MOL    H1119197   2.220   2.456   5.456 -1.7102 -0.3459 -0.1744
   54MOL    H1219198   2.378   2.299   5.591  2.2367 -1.2562 -1.4027
   54MOL    H1319199   2.366   2.191   5.462  2.3264  3.2247 -2.8671
   54MOL    H1419200   2.138   2.307   5.635 -0.8109 -1.8479  1.7762
   54MOL    H1519201   2.107   2.209   5.492 -1.4917 -0.1619  1.2300
   54MOL    H1619202   2.102   2.067   5.698 -1.3254  1.7063 -1.4248
   54MOL    H1719203   2.275   2.107   5.725  0.6159 -1.5123 -0.2467
   54MOL    H1819204   2.225   2.025   5.575  0.6648 -1.3942  0.9709
   54MOL    H1919205   2.451   2.537   5.163 -0.6536  0.5241  0.0505
   54MOL    C2019206   2.475   2.556   5.458  0.4204  0.7330 -0.1383
   54MOL    C2119207   2.576   2.666   5.408  0.0045  0.1403 -0.5071
   54MOL    C2219208   2.530   2.807   5.430  0.0711 -0.2986 -0.4368
   54MOL    C2319209   2.517   2.856   5.583  0.1838  0.1950 -0.5304
   54MOL    C2419210   2.510   3.013   5.599  0.3948 -0.3516 -0.1322
   54MOL    C2519211   2.512   3.047   5.751  0.1592 -0.5378 -0.5298
   54MOL    H2619212   2.532   2.513   5.540 -1.4337  1.9088  1.8312
   54MOL    H2719213   2.390   2.608   5.502 -1.0144 -1.9397  0.2811
   54MOL    H2819214   2.593   2.651   5.301  1.3529 -0.2946 -0.2435
   54MOL    H2919215   2.445   2.826   5.365  0.6817  1.9391 -0.6382
   54MOL    H3019216   2.601   2.875   5.382  0.5667  0.2411  1.0314
   54MOL    H3119217   2.606   2.824   5.637 -0.5677 -0.4030  0.3472
   54MOL    H3219218   2.433   2.809   5.632 -1.5091  1.7284 -1.8764
   54MOL    H3319219   2.583   3.067   5.540  1.6682  1.0990  2.6655
   54MOL    H3419220   2.416   3.051   5.559 -0.1511 -1.1082  0.4051
   54MOL    H3519221   2.604   3.025   5.807 -0.5656 -2.0939  0.0751
   54MOL    H3619222   2.489   3.153   5.765 -0.6405 -0.9228  1.2589
   54MOL    H3719223   2.433   2.990   5.799  1.3113  0.9888  3.4596
   54MOL    C3819224   2.724   2.634   5.470  0.1558  0.5115 -0.0820
   54MOL    C3919225   2.787   2.498   5.422  0.1391  0.1168  0.1080
   54MOL    C4019226   2.871   2.527   5.297  0.2678  0.4731  0.0919
   54MOL    C4119227   3.008   2.606   5.321 -0.8941 -0.1469  0.2882
   54MOL    C4219228   3.096   2.612   5.190 -0.4261  0.4978  0.1084
   54MOL    C4319229   3.141   2.476   5.135  0.4181 -0.3801  0.3245
   54MOL    H4419230   2.716   2.635   5.578 -0.8561  0.0877 -0.1432
   54MOL    H4519231   2.788   2.718   5.445  0.7808  0.0269 -0.1338
   54MOL    H4619232   2.701   2.435   5.398 -1.2242  1.7700  0.5546
   54MOL    H4719233   2.906   2.436   5.247  1.3941  0.9586 -0.0164
   54MOL    H4819234   2.813   2.573   5.217 -0.5270 -1.6452 -0.5987
   54MOL    H4919235   2.996   2.713   5.340  0.8138  0.1288 -0.1026
   54MOL    H5019236   3.057   2.564   5.409 -2.1194 -1.3420  0.4266
   54MOL    H5119237   3.051   2.667   5.108 -2.7157  0.5227  1.3202
   54MOL    H5219238   3.183   2.670   5.221  0.0421  0.2212 -0.6954
   54MOL    H5319239   3.193   2.410   5.203 -1.3656 -0.6345  1.4762
   54MOL    H5419240   3.208   2.488   5.050  2.1434 -0.7034  1.6196
   54MOL    H5519241   3.055   2.420   5.097  0.9883 -0.0955 -1.4330
   54MOL    C5619242   2.865   2.435   5.541 -0.3805 -0.0432  0.1094
   54MOL    C5719243   2.925   2.301   5.515  0.4506 -0.0567 -0.0168
   54MOL    C5819244   2.809   2.197   5.490  0.4670 -0.1813 -0.1300
   54MOL    C5919245   2.711   2.170   5.607  0.1496  0.7082  0.6570
   54MOL    C6019246   2.641   2.040   5.581 -0.0740  0.2808  0.2133
   54MOL    C6119247   2.552   1.988   5.694  0.0647  0.1355  0.5942
   54MOL    H6219248   2.925   2.515   5.585 -0.6941 -1.2928  2.8914
   54MOL    H6319249   2.804   2.424   5.630  1.3006 -2.4711  1.0065
   54MOL    H6419250   2.979   2.301   5.420  2.3400  2.4888  1.0023
   54MOL    H6519251   2.765   2.205   5.391 -0.0216 -0.4048  0.0660
   54MOL    H6619252   2.860   2.101   5.482  1.3158  0.2722 -0.2728
   54MOL    H6719253   2.638   2.249   5.625 -0.9165  0.0452 -0.6369
   54MOL    H6819254   2.764   2.165   5.702 -2.1618  2.1391  2.0667
   54MOL    H6919255   2.574   2.049   5.495  1.2568 -1.2493 -1.0213
   54MOL    H7019256   2.715   1.965   5.551 -1.2501  0.0037 -2.1422
   54MOL    H7119257   2.498   1.903   5.653  0.3997  0.1107  0.2070
   54MOL    H7219258   2.616   1.945   5.771 -1.2614 -0.1402  1.5463
   54MOL    H7319259   2.484   2.065   5.731  1.0892  0.3347  2.1479
   54MOL    C7419260   3.021   2.258   5.632  0.1178  0.0153 -0.2389
   54MOL    C7519261   3.073   2.107   5.635  0.4959  0.5600 -0.1906
   54MOL    C7619262   3.155   2.069   5.508 -0.7793  0.1079  0.4071
   54MOL    C7719263   3.155   1.916   5.476  0.0308  0.2143  0.3878
   54MOL    C7819264   3.234   1.868   5.349  0.4054  0.4137 -0.0144
   54MOL    C7919265   3.248   1.712   5.350 -0.0367 -0.0033  0.3551
   54MOL    H8019266   3.104   2.328   5.626  2.3249 -2.5093  0.0160
   54MOL    H8119267   2.968   2.279   5.725 -1.8655  0.0462 -1.3407
   54MOL    H8219268   2.988   2.040   5.647 -0.1534  1.3753 -0.2307
   54MOL    H8319269   3.094   2.124   5.436  0.0186  2.6874  1.6647
   54MOL    H8419270   3.258   2.101   5.519 -0.7215  0.9943 -2.4051
   54MOL    H8519271   3.189   1.860   5.563  0.8192  0.3567  0.1689
   54MOL    H8619272   3.052   1.879   5.470  0.1993  0.0440 -1.5668
   54MOL    H8719273   3.337   1.899   5.333  1.0232 -1.1742  0.8261
   54MOL    H8819274   3.176   1.895   5.261 -0.8426 -0.0250  0.6619
   54MOL    H8919275   3.295   1.673   5.440 -0.9048  1.0008  1.2591
   54MOL    H9019276   3.151   1.667   5.332  0.6044 -1.4687  0.4684
   54MOL    H9119277   3.315   1.686   5.267 -0.6443  2.3834 -0.9405
   54MOL    C9219278   3.159   2.087   5.766  0.3960  0.3312  0.7172
   54MOL    C9319279   3.080   2.046   5.894 -1.3449  0.0066 -0.0129
   54MOL    C9419280   3.067   1.893   5.893 -0.5191  0.3737 -0.0071
   54MOL    C9519281   2.952   1.841   5.973  0.3270 -0.7518 -0.1364
   54MOL    C9619282   2.927   1.684   5.957 -0.0458  0.2656 -0.3124
   54MOL    C9719283   2.789   1.637   6.014  0.4787 -0.3413  0.0745
   54MOL    H9819284   3.239   2.021   5.732 -2.1681 -2.0089 -0.9656
   54MOL    H9919285   3.210   2.182   5.780  2.0542 -0.3203 -0.6807
   54MOL   H10019286   2.981   2.092   5.888 -0.7372  1.2576 -0.8336
   54MOL   H10119287   3.164   1.846   5.910 -0.2629  0.4090 -1.3072
   54MOL   H10219288   3.040   1.866   5.791 -1.3480  1.1796 -0.0029
   54MOL   H10319289   2.950   1.867   6.079 -1.3140 -0.2251 -0.2720
   54MOL   H10419290   2.861   1.889   5.938  1.6486  2.1060  0.2173
   54MOL   H10519291   2.927   1.661   5.850  0.8405 -0.9637 -0.0641
   54MOL   H10619292   3.002   1.628   6.013  0.4507  0.6832 -0.5619
   54MOL   H10719293   2.782   1.529   6.001  0.8380 -0.5153  1.2556
   54MOL   H10819294   2.792   1.653   6.122 -0.0485 -1.0869  0.1993
   54MOL   H10919295   2.701   1.684   5.971  2.0695  2.2139 -0.5483
   54MOL   C11019296   3.159   2.090   6.023 -0.3549  0.4091 -0.4346
   54MOL   C11119297   3.135   2.239   6.068 -0.5035 -0.6065  0.2438
   54MOL   C11219298   3.251   2.287   6.161  0.4686 -0.1041  0.5721
   54MOL   C11319299   3.364   2.354   6.087  0.0957  0.2661 -0.2483
   54MOL   C11419300   3.466   2.430   6.169  0.7853 -0.3452  0.2479
   54MOL   C11519301   3.565   2.504   6.081 -0.3682 -0.1664  0.2566
   54MOL   H11619302   3.143   2.028   6.112  0.4995 -1.1416 -1.3469
   54MOL   H11719303   3.262   2.076   5.990  0.4027  1.9252  1.2129
   54MOL   H11819304   3.118   2.308   5.985 -0.5462 -1.0783 -0.1401
   54MOL   H11919305   3.275   2.210   6.235  4.6086  0.0976 -0.4882
   54MOL   H12019306   3.215   2.376   6.214 -1.3186  0.6501 -1.8128
   54MOL   H12119307   3.321   2.420   6.011  0.1289  1.6870  0.9482
   54MOL   H12219308   3.412   2.280   6.023  1.1551 -0.4008  1.3003
   54MOL   H12319309   3.525   2.358   6.226 -1.1647 -1.6342  0.6753
   54MOL   H12419310   3.418   2.494   6.243 -1.3534 -0.4019 -1.0576
   54MOL   H12519311   3.522   2.580   6.016  0.4302 -0.9510 -1.2146
   54MOL   H12619312   3.636   2.560   6.142 -1.7080 -0.2018  1.8680
   54MOL   H12719313   3.627   2.437   6.021  0.6375  2.1783 -1.4030
   54MOL   C12819314   2.999   2.253   6.142 -0.9968  0.1461 -0.0066
   54MOL   C12919315   2.899   2.359   6.086  0.4375  0.2438  0.0667
   54MOL   C13019316   2.970   2.500   6.118 -0.6657  0.2566  0.0415
   54MOL   C13119317   2.904   2.625   6.050 -0.0854 -0.4553 -0.5014
   54MOL   C13219318   2.936   2.640   5.899 -0.5154 -0.2313 -0.4195
   54MOL   C13319319   2.873   2.770   5.835 -0.3146 -0.5470 -0.3755
   54MOL   H13419320   3.021   2.273   6.247 -0.6044 -2.2444  0.4004
   54MOL   H13519321   2.965   2.149   6.140  0.0496 -0.1885 -2.3123
   54MOL   H13619322   2.898   2.334   5.980 -2.0110 -0.8155  0.2985
   54MOL   H13719323   2.984   2.510   6.225  0.0073 -0.4820  0.0293
   54MOL   H13819324   3.069   2.506   6.071 -1.8351 -0.4462 -2.6563
   54MOL   H13919325   2.947   2.705   6.109  2.3973 -2.0426 -0.0970
   54MOL   H14019326   2.796   2.633   6.066  0.1821 -1.0354  1.7887
   54MOL   H14119327   3.043   2.653   5.877 -0.6153 -0.5079 -1.0966
   54MOL   H14219328   2.905   2.549   5.848 -2.1591 -0.9495  1.8318
   54MOL   H14319329   2.902   2.783   5.731  0.1241  0.2431 -0.1595
   54MOL   H14419330   2.892   2.862   5.891  1.2215 -0.6930 -0.6340
   54MOL   H14519331   2.768   2.741   5.837 -0.5955  0.4718  0.2976
   54MOL   C14619332   2.758   2.368   6.160  0.7374 -0.7289  0.4671
   54MOL   C14719333   2.671   2.243   6.124 -0.3371  0.1789  0.3141
   54MOL   C14819334   2.586   2.256   5.995  0.1567  0.3002  0.1965
   54MOL   C14919335   2.477   2.364   5.998  0.8521 -0.0284 -0.0706
   54MOL   C15019336   2.432   2.421   5.861 -0.5917  0.2593 -0.1950
   54MOL   C15119337   2.540   2.507   5.798  0.3002 -0.5153 -0.7204
   54MOL   H15219338   2.781   2.367   6.266 -0.2113 -0.1620  0.6752
   54MOL   H15319339   2.704   2.457   6.128 -2.8589 -2.1566  2.3495
   54MOL   H15419340   2.745   2.165   6.105 -0.4247 -0.0137  0.7525
   54MOL   H15519341   2.550   2.156   5.971  1.7465 -0.9261  2.7226
   54MOL   H15619342   2.656   2.285   5.916  1.1423  2.1366  1.7071
   54MOL   H15719343   2.388   2.323   6.044  0.5788  1.1617  0.4920
   54MOL   H15819344   2.506   2.452   6.055  1.8766 -0.4165  0.0141
   54MOL   H15919345   2.333   2.466   5.858 -0.4306  0.6848  0.7674
   54MOL   H16019346   2.416   2.337   5.794 -1.5320  1.5664 -1.6457
   54MOL   H16119347   2.493   2.587   5.740 -0.4699  1.5003  2.5763
   54MOL   H16219348   2.596   2.562   5.874 -1.5086  1.1937 -0.5762
   54MOL   H16319349   2.616   2.447   5.748  0.9165 -2.4211  2.3826
   54MOL   C16419350   2.578   2.204   6.238  0.3280 -0.1079  0.1871
   54MOL   C16519351   2.633   2.098   6.329  0.0735  0.7140 -0.5472
   54MOL   C16619352   2.651   1.962   6.265 -0.0650 -0.7338 -0.4394
   54MOL   C16719353   2.531   1.905   6.189 -0.0332 -0.1201 -0.0545
   54MOL   C16819354   2.430   1.838   6.274  0.3215  0.2551 -0.4315
   54MOL   C16919355   2.326   1.761   6.188 -0.5026  0.1346 -0.8413
   54MOL   H17019356   2.578   2.294   6.299 -0.7072  0.3449 -0.4653
   54MOL   H17119357   2.473   2.201   6.210 -0.3053  1.3493  2.3081
   54MOL   H17219358   2.556   2.081   6.404  0.8643  0.2935  0.1806
   54MOL   H17319359   2.674   1.892   6.345  1.5827 -1.4203 -1.4774
   54MOL   H17419360   2.734   1.980   6.197  1.8458  1.9998  2.5081
   54MOL   H17519361   2.560   1.840   6.107 -0.9803  0.8842 -1.2136
   54MOL   H17619362   2.485   1.981   6.126 -3.4746 -1.6307  0.5456
   54MOL   H17719363   2.377   1.907   6.340 -1.3021 -1.1236 -0.2592
   54MOL   H17819364   2.486   1.766   6.334  1.8528 -0.1985 -2.3696
   54MOL   H17919365   2.295   1.835   6.114  0.1046 -1.3137 -2.5788
   54MOL   H18019366   2.237   1.738   6.247  2.9229 -2.4863  3.5935
   54MOL   H18119367   2.344   1.665   6.141 -1.7178  0.7076 -2.5140
   54MOL   C18219368   2.755   2.138   6.410 -0.1543 -0.2108  0.3657
   54MOL   C18319369   2.796   2.055   6.536  0.0629 -0.3554  0.3101
   54MOL   C18419370   2.685   2.068   6.654 -0.8877 -0.6912  0.4589
   54MOL   C18519371   2.675   1.947   6.750  0.5166  0.1081  0.1688
   54MOL   C18619372   2.611   1.817   6.699 -0.4930  0.6385 -0.9391
   54MOL   C18719373   2.606   1.710   6.810 -0.2049 -0.1030  0.5743
   54MOL   H18819374   2.836   2.145   6.339  0.0015 -0.9348  0.4653
   54MOL   H18919375   2.744   2.243   6.438 -1.4297  0.6773 -3.1437
   54MOL   H19019376   2.809   1.953   6.500  2.0695  0.2457 -0.7429
   54MOL   H19119377   2.703   2.158   6.713  2.6896 -1.7551  1.1133
   54MOL   H19219378   2.590   2.082   6.602 -2.8727 -0.2370  4.0022
   54MOL   H19319379   2.617   1.983   6.835  3.1221  0.9839  1.6270
   54MOL   H19419380   2.770   1.914   6.791  0.2743 -2.3184 -1.0898
   54MOL   H19519381   2.669   1.768   6.621  0.4527 -2.4478  1.5821
   54MOL   H19619382   2.512   1.853   6.669 -0.6881  0.9825  0.0970
   54MOL   H19719383   2.526   1.636   6.798  0.6907 -0.7678 -1.4901
   54MOL   H19819384   2.585   1.761   6.904 -2.3929 -1.9101  1.1214
   54MOL   H19919385   2.702   1.660   6.820  0.9100  2.0504  0.7898
   54MOL   C20019386   2.935   2.100   6.577 -0.2279 -0.4304  0.1477
   54MOL   C20119387   2.990   2.048   6.711  0.3584  0.8387  0.3409
   54MOL   C20219388   3.024   1.897   6.715 -0.2936 -0.1277 -0.3044
   54MOL   C20319389   3.057   1.844   6.856 -0.5671  0.3419 -1.0633
   54MOL   C20419390   3.081   1.696   6.850  0.2306 -0.7040  0.5476
   54MOL   C20519391   3.143   1.646   6.973  0.9996  0.6805  0.5599
   54MOL   H20619392   2.926   2.207   6.593 -0.4617 -0.3846 -0.2815
   54MOL   H20719393   3.010   2.091   6.498 -1.3954 -1.7019 -0.8624
   54MOL   H20819394   2.913   2.070   6.786 -0.8034 -0.3950 -0.4524
   54MOL   H20919395   3.109   1.897   6.647  0.7061 -0.9703  0.9210
   54MOL   H21019396   2.945   1.834   6.674  1.1073 -3.1974  1.5168
   54MOL   H21119397   2.968   1.863   6.916 -0.4632  0.5830 -0.9812
   54MOL   H21219398   3.140   1.889   6.910 -0.2964  0.2340 -1.3848
   54MOL   H21319399   3.159   1.682   6.775  0.3185 -2.2438  0.9040
   54MOL   H21419400   2.997   1.632   6.823 -0.8427  1.5581 -1.6788
   54MOL   H21519401   3.235   1.699   6.998  2.1647 -1.0971  0.1483
   54MOL   H21619402   3.081   1.661   7.062  1.8051  0.9025  1.0910
   54MOL   H21719403   3.170   1.542   6.953 -0.5705  0.8267 -2.5912
   54MOL   C21819404   3.112   2.132   6.752  0.0808  0.4412 -0.1735
   54MOL   C21919405   3.077   2.272   6.824  0.5833  0.6996  0.4623
   54MOL   C22019406   3.195   2.369   6.789  0.2429  0.6508  0.3149
   54MOL   C22119407   3.205   2.415   6.647 -0.1764  0.5943 -1.4159
   54MOL   C22219408   3.083   2.491   6.589  0.3673  0.4088  0.1297
   54MOL   C22319409   3.110   2.568   6.460 -0.3095  0.1657  0.0270
   54MOL   H22419410   3.183   2.082   6.818 -0.5061  0.3465  0.3988
   54MOL   H22519411   3.160   2.142   6.655 -2.0183  1.0811 -1.1720
   54MOL   H22619412   2.982   2.305   6.782 -0.7470  0.8085  3.4422
   54MOL   H22719413   3.284   2.319   6.828 -0.5630 -1.3227 -0.2795
   54MOL   H22819414   3.183   2.456   6.853 -1.7302 -0.2218  1.1432
   54MOL   H22919415   3.209   2.319   6.595  1.4071 -1.2932  2.0640
   54MOL   H23019416   3.299   2.469   6.636 -0.0842  0.5699 -0.7555
   54MOL   H23119417   3.002   2.421   6.568  1.1051 -0.8170  1.2898
   54MOL   H23219418   3.052   2.557   6.670 -1.0072  0.1381 -0.1532
   54MOL   H23319419   3.149   2.496   6.387  0.4339  1.5841 -1.0121
   54MOL   H23419420   3.185   2.647   6.470 -0.6340  0.3147  1.3164
   54MOL   H23519421   3.022   2.625   6.430 -1.6868 -1.4939  0.8749
   54MOL   C23619422   3.041   2.256   6.976  0.0030  0.0196  0.2249
   54MOL   C23719423   3.003   2.387   7.052  0.5208  0.0308 -0.0494
   54MOL   C23819424   3.101   2.420   7.167  0.1085 -0.1042  0.5082
   54MOL   C23919425   3.127   2.320   7.277  0.7982  0.0882 -0.0703
   54MOL   C24019426   3.244   2.373   7.372  0.2123  0.6175  0.3942
   54MOL   C24119427   3.227   2.310   7.508 -0.1973  0.2755 -0.1408
   54MOL   H24219428   2.946   2.202   6.969  0.7533 -1.4056  0.8729
   54MOL   H24319429   3.121   2.199   7.023 -0.7883  0.0315  1.6176
   54MOL   H24419430   3.014   2.476   6.991 -1.0261  0.6090  0.4906
   54MOL   H24519431   3.194   2.454   7.121 -0.3549 -1.1008 -1.2253
   54MOL   H24619432   3.071   2.503   7.231 -0.6992  0.0026 -0.0055
   54MOL   H24719433   3.161   2.222   7.245  0.1270  0.6904 -2.7559
   54MOL   H24819434   3.028   2.305   7.322  0.7699 -3.8074 -1.2949
   54MOL   H24919435   3.340   2.339   7.330  0.1220  2.3809 -1.3209
   54MOL   H25019436   3.242   2.482   7.377 -0.3450  0.5891  0.7765
   54MOL   H25119437   3.245   2.203   7.507  1.0826  0.4857 -1.4942
   54MOL   H25219438   3.304   2.354   7.572  1.0612 -0.3901 -1.1654
   54MOL   H25319439   3.128   2.336   7.544 -0.1852  2.0907 -1.3245
   54MOL   C25419440   2.858   2.404   7.106 -0.7296 -0.0222 -0.2829
   54MOL   C25519441   2.750   2.405   6.995  0.3510  0.5092  0.6350
   54MOL   C25619442   2.758   2.521   6.894  0.3392 -0.4738  0.2274
   54MOL   C25719443   2.661   2.495   6.777 -0.3836 -0.2280  0.0409
   54MOL   C25819444   2.726   2.491   6.643  0.0656 -0.0325 -0.2244
   54MOL   C25919445   2.626   2.527   6.530 -0.1427 -0.2104 -0.3657
   54MOL   H26019446   2.847   2.499   7.157 -0.1817  1.2121 -2.4031
   54MOL   H26119447   2.854   2.319   7.174 -2.7295  0.0828 -0.2358
   54MOL   H26219448   2.756   2.314   6.936 -0.4649  0.0015  1.3092
   54MOL   H26319449   2.730   2.619   6.932 -1.2003 -0.1502 -1.6802
   54MOL   H26419450   2.861   2.540   6.864  0.2501  2.2438  1.4551
   54MOL   H26519451   2.604   2.403   6.790  0.4332 -0.6938  0.3339
   54MOL   H26619452   2.589   2.578   6.775 -0.0387  0.0537 -1.0474
   54MOL   H26719453   2.787   2.401   6.631  1.6606  1.0725 -0.6569
   54MOL   H26819454   2.807   2.563   6.636 -1.0133  1.2702  0.4789
   54MOL   H26919455   2.608   2.635   6.533 -0.0131 -0.2072  0.5028
   54MOL   H27019456   2.529   2.477   6.531  0.1388 -0.8026 -1.7471
   54MOL   H27119457   2.667   2.507   6.431  0.3149 -2.6905  0.2915
   54MOL   C27219458   2.611   2.405   7.067  0.1335  0.0124  0.4164
   54MOL   C27319459   2.583   2.308   7.181 -0.4037 -0.6588  0.5423
   54MOL   C27419460   2.601   2.160   7.123  0.2409 -0.4032 -0.7937
   54MOL   C27519461   2.609   2.048   7.231 -0.4413 -0.4791  0.1472
   54MOL   C27619462   2.656   1.909   7.189 -0.3418 -0.0336 -0.5732
   54MOL   C27719463   2.807   1.884   7.157  0.0984 -0.6274  0.2386
   54MOL   H27819464   2.597   2.508   7.101 -3.8989  0.1833 -1.4376
   54MOL   H27919465   2.530   2.404   6.995  0.1477 -0.6583  0.4102
   54MOL   H28019466   2.659   2.310   7.259  1.2730  0.1727 -1.0602
   54MOL   H28119467   2.700   2.154   7.078  0.9850  1.7282  0.4829
   54MOL   H28219468   2.516   2.140   7.059  0.4783 -2.6472 -0.4569
   54MOL   H28319469   2.506   2.039   7.267 -0.5722 -0.1375 -0.1382
   54MOL   H28419470   2.674   2.082   7.312  0.2721 -0.2995 -0.4973
   54MOL   H28519471   2.626   1.834   7.262 -1.2547  2.0540  1.2693
   54MOL   H28619472   2.604   1.888   7.096 -2.2741  0.2668  0.4040
   54MOL   H28719473   2.877   1.901   7.239  1.2719  0.2649 -0.9103
   54MOL   H28819474   2.808   1.783   7.115 -0.1931 -0.2731 -0.6457
   54MOL   H28919475   2.850   1.956   7.086  0.4904 -2.6147 -1.5929
   54MOL   C29019476   2.443   2.339   7.235 -0.5765  0.2610  0.5052
   54MOL   C29119477   2.414   2.461   7.312  0.2362  0.1134  0.6344
   54MOL   C29219478   2.261   2.475   7.347  1.1293 -0.7027 -0.2688
   54MOL   C29319479   2.164   2.490   7.232 -0.3111 -0.8375 -0.7713
   54MOL   C29419480   2.018   2.501   7.270  0.0902  0.0400  0.0768
   54MOL   C29519481   1.931   2.489   7.141 -0.2463 -0.2514  0.3409
   54MOL   H29619482   2.421   2.252   7.298 -0.2814  0.6652  1.1736
   54MOL   H29719483   2.375   2.319   7.152  1.2618  0.5964 -1.0980
   54MOL   H29819484   2.445   2.549   7.255 -0.8437  0.2471  0.2436
   54MOL   H29919485   2.239   2.552   7.421  2.4460 -0.5262 -0.0549
   54MOL   H30019486   2.243   2.378   7.395  0.7029 -0.8490 -0.7249
   54MOL   H30119487   2.191   2.581   7.177  0.5422 -0.6472 -0.0522
   54MOL   H30219488   2.184   2.403   7.169 -3.7667 -0.6716 -2.2018
   54MOL   H30319489   1.997   2.599   7.312 -3.0600 -1.0886  1.2891
   54MOL   H30419490   1.992   2.425   7.343  1.2764  0.6958  1.2094
   54MOL   H30519491   1.931   2.570   7.068  3.5592 -0.0100  0.5140
   54MOL   H30619492   1.825   2.470   7.160 -0.2537 -0.9931 -0.4129
   54MOL   H30719493   1.963   2.399   7.088 -1.3797 -0.0755 -0.6873
   54MOL   C30819494   2.501   2.466   7.446 -0.2894 -0.2149 -0.3356
   54MOL   C30919495   2.495   2.605   7.514 -0.3446 -0.6491  0.0147
   54MOL   C31019496   2.601   2.700   7.443  0.0890  0.6066 -0.0818
   54MOL   C31119497   2.593   2.845   7.470  0.0961 -0.3371 -0.2661
   54MOL   C31219498   2.515   2.940   7.366  0.1741  0.3148  0.1912
   54MOL   C31319499   2.359   2.911   7.364 -0.2109 -0.2557  0.2457
   54MOL   H31419500   2.453   2.391   7.509 -0.4942  0.1381 -0.0677
   54MOL   H31519501   2.603   2.450   7.412 -0.5649 -0.0846 -1.2469
   54MOL   H31619502   2.403   2.660   7.494 -0.4578 -0.3207  1.4084
   54MOL   H31719503   2.609   2.682   7.336 -3.4658  0.3999 -0.3800
   54MOL   H31819504   2.701   2.685   7.482 -0.2716 -0.6191  0.3918
   54MOL   H31919505   2.692   2.891   7.482  0.7695 -1.9323  0.4353
   54MOL   H32019506   2.550   2.854   7.569  0.3765 -2.1330  0.0357
   54MOL   H32119507   2.540   3.040   7.401  3.9472 -0.6639  0.5084
   54MOL   H32219508   2.541   2.927   7.261 -1.2349  0.9654 -0.2450
   54MOL   H32319509   2.299   2.975   7.299 -2.5468 -0.1639  2.4095
   54MOL   H32419510   2.305   2.905   7.459 -2.2334  1.7560 -0.7273
   54MOL   H32519511   2.357   2.811   7.321 -1.6272 -0.6181  1.1188
   54MOL   C32619512   2.513   2.589   7.665  0.1799 -0.5595  0.7896
   54MOL   C32719513   2.377   2.568   0.015  0.3619  0.1868 -0.0242
   54MOL   C32819514   2.389   2.516   0.163  0.5039 -0.4377  0.1557
   54MOL   C32919515   2.478   2.385   0.185  0.2659  0.4102  0.5850
   54MOL   C33019516   2.407   2.251   0.139  0.0969 -0.3052  0.4552
   54MOL   C33119517   2.461   2.133   0.226  0.1261  0.4885  0.7735
   54MOL   H33219518   2.560   2.685   7.688 -0.1828  0.1959 -1.5373
   54MOL   H33319519   2.593   2.516   7.680  1.0435 -0.1425 -1.6078
   54MOL   H33419520   2.327   2.485   7.692  2.2213 -0.0044 -1.6585
   54MOL   H33519521   2.422   2.593   0.233 -2.3062  1.9599 -1.0789
   54MOL   H33619522   2.290   2.482   0.195 -0.8263 -0.0958 -3.4113
   54MOL   H33719523   2.498   2.373   0.291 -0.5550  0.3065  0.7266
   54MOL   H33819524   2.575   2.395   0.136  0.0047  1.0728  0.1914
   54MOL   H33919525   2.301   2.252   0.163 -0.1915  0.1928 -0.7823
   54MOL   H34019526   2.424   2.229   0.033 -1.8617  2.3786 -0.4473
   54MOL   H34119527   2.567   2.122   0.204 -0.2697 -0.9313 -0.4810
   54MOL   H34219528   2.416   2.042   0.185  0.3283  0.2161  1.1444
   54MOL   H34319529   2.435   2.141   0.332 -1.7881 -1.7496  0.5259
   54MOL   C34419530   2.286   2.694   0.008 -0.3613 -0.3398 -0.1985
   54MOL   C34519531   2.136   2.670   0.002  0.4250 -0.9299 -0.7278
   54MOL   C34619532   2.057   2.787   0.044 -0.4418  0.9190 -1.0056
   54MOL   C34719533   2.014   2.885   7.665 -0.3224 -0.6791 -0.4511
   54MOL   C34819534   1.930   3.000   7.720 -0.1858  0.5992 -0.2169
   54MOL   C34919535   1.911   3.110   7.609 -0.2323 -0.3554 -0.6125
   54MOL   H35019536   2.308   2.747   0.101  1.5602  1.7996 -1.8161
   54MOL   H35119537   2.316   2.767   7.660  0.3677  0.7691  1.1534
   54MOL   H35219538   2.105   2.587   0.064 -3.1878 -1.5661 -3.2438
   54MOL   H35319539   1.969   2.737   0.084  0.8446 -2.1009 -1.8188
   54MOL   H35419540   2.105   2.840   0.126 -0.7902 -0.1515 -0.0937
   54MOL   H35519541   2.107   2.933   7.633  0.4582 -1.8119  0.0586
   54MOL   H35619542   1.976   2.833   7.578 -0.1507  0.9317 -1.5142
   54MOL   H35719543   1.829   2.966   0.013  0.1264  1.0415  2.2548
   54MOL   H35819544   1.966   3.044   0.086 -0.3839  0.6170 -0.1489
   54MOL   H35919545   1.906   3.071   7.508  2.0901  0.4939 -1.0797
   54MOL   H36019546   1.823   3.172   7.628  0.1880 -0.4481  1.8920
   54MOL   H36119547   1.991   3.184   7.613  0.3611 -1.0048 -0.3172
   54MOL   H36219548   2.113   2.637   7.628 -1.4737  1.2454 -1.0341
   55MOL     C119549   0.867   2.560   2.010  0.5479 -0.5059 -0.6837
   55MOL     C219550   0.720   2.540   2.043  0.0548  0.1266  0.5657
   55MOL     C319551   0.651   2.443   1.939 -0.4659 -0.2421 -0.2753
   55MOL     C419552   0.615   2.512   1.803 -0.2356  0.2468 -0.1634
   55MOL     C519553   0.621   2.425   1.675  0.0774  0.0991  1.0762
   55MOL     C619554   0.522   2.309   1.677 -0.4124  0.1618  0.5890
   55MOL     H719555   0.919   2.469   1.980 -1.1284 -2.4568  2.0762
   55MOL     H819556   0.873   2.643   1.939 -0.1426  0.8341  0.7920
   55MOL     H919557   0.717   2.494   2.141 -0.7276  0.2290  0.5954
   55MOL    H1019558   0.559   2.405   1.982 -0.3142 -1.6962 -1.2019
   55MOL    H1119559   0.716   2.358   1.918 -0.2425 -0.1936  0.2107
   55MOL    H1219560   0.688   2.592   1.791  0.3833 -0.4830 -1.4661
   55MOL    H1319561   0.513   2.550   1.810 -0.8445 -1.6609  1.4438
   55MOL    H1419562   0.581   2.493   1.600  0.0680 -0.5387  0.5054
   55MOL    H1519563   0.721   2.387   1.655 -0.3952 -1.7733  2.1610
   55MOL    H1619564   0.536   2.254   1.584  1.1456  0.2182  0.7819
   55MOL    H1719565   0.415   2.333   1.679 -0.5441 -0.4262  0.5324
   55MOL    H1819566   0.542   2.251   1.767  0.6584  0.1560  0.3517
   55MOL    H1919567   0.927   2.602   2.090 -1.8786 -0.8874  1.4416
   55MOL    C2019568   0.640   2.681   2.053  0.7372 -0.3576  0.0256
   55MOL    C2119569   0.685   2.772   2.171 -0.0965 -0.3623  0.2806
   55MOL    C2219570   0.613   2.908   2.154 -0.0030  0.2450 -0.8934
   55MOL    C2319571   0.639   2.999   2.031 -0.1773  0.5683 -0.3331
   55MOL    C2419572   0.563   3.127   2.047 -0.2895  0.2970 -0.5426
   55MOL    C2519573   0.596   3.219   1.924  0.1861  0.3006  0.3913
   55MOL    H2619574   0.535   2.655   2.069  0.1518  0.5363 -2.1688
   55MOL    H2719575   0.656   2.740   1.962  3.8952  1.1451  1.4979
   55MOL    H2819576   0.791   2.798   2.164  0.2663 -1.5866  1.1328
   55MOL    H2919577   0.613   2.952   2.254 -0.9647 -1.2323 -0.2319
   55MOL    H3019578   0.506   2.892   2.156  0.3603 -2.2540  1.0481
   55MOL    H3119579   0.600   2.954   1.940  2.5735  0.7535 -1.6791
   55MOL    H3219580   0.744   3.016   2.005  0.1225 -1.0975 -0.2916
   55MOL    H3319581   0.458   3.100   2.053 -1.1008  2.5562 -3.1997
   55MOL    H3419582   0.597   3.172   2.140 -3.1002  2.1416 -0.3421
   55MOL    H3519583   0.524   3.302   1.928 -0.2882 -0.1031  0.2954
   55MOL    H3619584   0.697   3.259   1.917 -0.1998  1.2571  0.0918
   55MOL    H3719585   0.571   3.175   1.828 -1.6475 -0.0536  0.9938
   55MOL    C3819586   0.636   2.709   2.309  0.1929  0.2370 -0.5625
   55MOL    C3919587   0.744   2.721   2.419 -1.1345 -0.1858  0.6926
   55MOL    C4019588   0.685   2.763   2.558  0.0424  0.0812 -0.3144
   55MOL    C4119589   0.578   2.664   2.609 -0.6648 -0.3879  0.1421
   55MOL    C4219590   0.528   2.708   2.748 -0.5400 -0.0545  0.2831
   55MOL    C4319591   0.423   2.612   2.807 -0.0938 -0.3068  0.4242
   55MOL    H4419592   0.600   2.606   2.313  1.7200 -0.2859 -0.2144
   55MOL    H4519593   0.554   2.763   2.358  1.2211  2.2057 -0.9908
   55MOL    H4619594   0.799   2.806   2.379 -1.4263  0.4441  1.6196
   55MOL    H4719595   0.758   2.777   2.638 -0.5234  0.2933  0.1755
   55MOL    H4819596   0.642   2.861   2.537  0.2996 -0.0542 -1.5128
   55MOL    H4919597   0.493   2.641   2.544  0.0453 -3.3901  0.2012
   55MOL    H5019598   0.616   2.562   2.620 -1.3751 -0.6559  0.1796
   55MOL    H5119599   0.616   2.712   2.814  0.0897  0.1420 -0.5610
   55MOL    H5219600   0.490   2.810   2.749  0.2609  0.2860 -2.0671
   55MOL    H5319601   0.339   2.602   2.738  0.9464 -0.3977 -0.8441
   55MOL    H5419602   0.400   2.661   2.902  1.6224 -1.3965  1.4321
   55MOL    H5519603   0.458   2.509   2.815 -1.1620 -0.9270 -2.2720
   55MOL    C5619604   0.843   2.608   2.440 -0.5769  0.7440 -0.4018
   55MOL    C5719605   0.990   2.657   2.469  0.2133 -0.2628 -0.2063
   55MOL    C5819606   1.066   2.696   2.340 -0.2159  0.1700  0.3008
   55MOL    C5919607   1.169   2.797   2.369  0.6138 -0.0993 -0.5854
   55MOL    C6019608   1.230   2.858   2.244 -0.2839 -0.2601  0.9412
   55MOL    C6119609   1.342   2.956   2.287 -0.2615 -0.3662  0.9279
   55MOL    H6219610   0.801   2.551   2.522  2.0561 -2.1729 -0.9762
   55MOL    H6319611   0.841   2.532   2.361  0.1904  0.7646 -0.4510
   55MOL    H6419612   0.966   2.740   2.535 -1.3256 -1.8268  1.2671
   55MOL    H6519613   1.115   2.610   2.294  0.3487  0.6340  0.0182
   55MOL    H6619614   0.999   2.747   2.270  0.4193  0.4657 -0.1025
   55MOL    H6719615   1.244   2.743   2.428 -0.4038 -1.1232 -0.2129
   55MOL    H6819616   1.132   2.879   2.431 -1.2748 -2.2083  1.1559
   55MOL    H6919617   1.291   2.793   2.181  2.9757  3.4957 -0.0078
   55MOL    H7019618   1.157   2.899   2.174 -2.0455 -2.7073  1.2727
   55MOL    H7119619   1.378   3.010   2.199 -0.9603  1.7245  1.8922
   55MOL    H7219620   1.309   3.029   2.361  0.7165  0.4905  0.5224
   55MOL    H7319621   1.420   2.897   2.335 -0.1936  0.2021  1.5121
   55MOL    C7419622   1.074   2.542   2.545  0.4835 -0.3120  0.9262
   55MOL    C7519623   1.057   2.530   2.698 -0.4831 -0.7277  0.2414
   55MOL    C7619624   1.047   2.382   2.755  0.6310  0.0982 -0.1162
   55MOL    C7719625   0.909   2.321   2.732  0.3559  0.3875 -0.0248
   55MOL    C7819626   0.914   2.167   2.759 -0.1116  0.3907 -0.3649
   55MOL    C7919627   0.921   2.135   2.909 -0.0287 -0.2699  0.5419
   55MOL    H8019628   1.056   2.442   2.506  0.8753 -0.4988  1.2322
   55MOL    H8119629   1.180   2.559   2.530  0.6923  1.4731  3.9195
   55MOL    H8219630   0.959   2.571   2.720  0.0270  0.6694 -0.0929
   55MOL    H8319631   1.114   2.321   2.696 -0.0147 -0.2954 -0.4517
   55MOL    H8419632   1.068   2.379   2.862 -0.7417 -0.4717  0.1513
   55MOL    H8519633   0.829   2.358   2.795 -0.3927 -1.2198 -0.0051
   55MOL    H8619634   0.870   2.338   2.632  1.9114 -0.1890 -0.7516
   55MOL    H8719635   1.002   2.116   2.719 -0.6078 -0.9358  0.2231
   55MOL    H8819636   0.833   2.130   2.697  0.1317  0.4039 -0.6930
   55MOL    H8919637   0.838   2.183   2.960 -1.4047 -2.6738  0.6305
   55MOL    H9019638   0.911   2.029   2.932  1.0645 -0.2521  1.1528
   55MOL    H9119639   1.014   2.168   2.956 -0.7893  0.5062  1.5183
   55MOL    C9219640   1.171   2.605   2.780  0.1689 -0.2572  0.6111
   55MOL    C9319641   1.119   2.668   2.906  0.4493 -0.3812 -0.2977
   55MOL    C9419642   1.232   2.660   3.012  0.2426 -0.4948  0.0692
   55MOL    C9519643   1.353   2.755   2.993  0.5567  0.4272  0.2422
   55MOL    C9619644   1.475   2.734   3.088 -1.3894 -0.8803 -0.2235
   55MOL    C9719645   1.573   2.857   3.063 -0.5033  0.4283 -0.4577
   55MOL    H9819646   1.263   2.547   2.788  0.2212 -0.2298  0.2325
   55MOL    H9919647   1.209   2.679   2.710  1.9734 -1.7496 -0.0428
   55MOL   H10019648   1.039   2.609   2.951  0.0938 -1.2821 -2.0571
   55MOL   H10119649   1.278   2.561   3.011  2.0327  0.3337 -0.6995
   55MOL   H10219650   1.185   2.682   3.108  0.3516  1.6357 -0.3471
   55MOL   H10319651   1.393   2.748   2.892  0.6100  1.1942  0.2030
   55MOL   H10419652   1.318   2.858   3.003  1.7414  0.7618  1.0565
   55MOL   H10519653   1.448   2.732   3.193 -3.0267 -0.3198 -0.6114
   55MOL   H10619654   1.519   2.637   3.066  2.2611  0.4553  0.8137
   55MOL   H10719655   1.528   2.950   3.098  0.0391  1.1893 -1.7342
   55MOL   H10819656   1.666   2.835   3.115 -1.3626 -1.1011  0.4780
   55MOL   H10919657   1.596   2.866   2.957  1.1657 -0.3462 -0.1845
   55MOL   C11019658   1.059   2.809   2.877  0.4293 -0.0912 -0.2412
   55MOL   C11119659   0.991   2.878   3.001 -0.0936 -0.0554 -0.2469
   55MOL   C11219660   0.900   2.789   3.088  0.0370  0.1733 -0.2135
   55MOL   C11319661   0.832   2.842   3.219 -0.1647  0.0505 -0.7846
   55MOL   C11419662   0.847   2.743   3.338 -0.2978 -0.1635  0.5247
   55MOL   C11519663   0.986   2.750   3.399 -0.2074  0.0243  0.1218
   55MOL   H11619664   1.145   2.864   2.838 -0.6163  2.5180  0.9629
   55MOL   H11719665   0.983   2.799   2.800 -0.0983 -1.7314  0.4749
   55MOL   H11819666   1.076   2.903   3.065  0.2546 -2.2884  0.2094
   55MOL   H11919667   0.954   2.698   3.113 -0.7341 -0.9282 -2.4205
   55MOL   H12019668   0.815   2.758   3.027  0.0537  0.0941 -0.1962
   55MOL   H12119669   0.727   2.866   3.210 -0.7234 -1.9426  0.1627
   55MOL   H12219670   0.894   2.925   3.253  1.2951 -0.1385 -2.8837
   55MOL   H12319671   0.826   2.648   3.288 -0.8038  0.3117 -0.1868
   55MOL   H12419672   0.770   2.778   3.406  0.0219 -1.5458  1.6095
   55MOL   H12519673   0.990   2.687   3.488 -1.8005  1.7523  1.4616
   55MOL   H12619674   1.059   2.712   3.327 -0.1127  0.0884  0.1832
   55MOL   H12719675   1.000   2.855   3.426  2.6532 -0.2582 -0.0706
   55MOL   C12819676   0.921   3.009   2.958 -0.3912 -0.0312  0.0606
   55MOL   C12919677   0.992   3.152   2.972  0.0840  0.7413  0.0375
   55MOL   C13019678   1.128   3.171   2.895  0.2744 -0.3944 -0.1026
   55MOL   C13119679   1.110   3.185   2.737 -0.1265  0.1702 -0.2965
   55MOL   C13219680   1.237   3.170   2.647  0.3344 -0.1449 -0.0864
   55MOL   C13319681   1.291   3.028   2.654  0.3295 -0.0810  0.3311
   55MOL   H13419682   0.825   3.020   3.010  0.2065 -0.0344  1.1797
   55MOL   H13519683   0.873   2.990   2.862 -1.0466  1.4080  0.0800
   55MOL   H13619684   0.918   3.219   2.929 -0.4810 -0.3618 -0.7222
   55MOL   H13719685   1.178   3.256   2.941  1.7372 -0.1759 -1.9912
   55MOL   H13819686   1.184   3.081   2.918  1.1502 -0.3118 -1.8321
   55MOL   H13919687   1.074   3.285   2.715 -0.7895 -0.3940 -1.7968
   55MOL   H14019688   1.032   3.113   2.712 -1.0132  0.7145  0.8010
   55MOL   H14119689   1.213   3.178   2.541 -1.3772  0.4816  0.3392
   55MOL   H14219690   1.316   3.243   2.665  0.9588 -0.4602 -1.5021
   55MOL   H14319691   1.217   2.952   2.631  0.5886 -0.6605  1.3453
   55MOL   H14419692   1.315   3.011   2.759 -1.9810 -0.1351  0.8690
   55MOL   H14519693   1.384   3.019   2.597  1.2039  0.1315  1.6824
   55MOL   C14619694   1.004   3.197   3.120 -0.2632  0.5065 -0.0814
   55MOL   C14719695   1.016   3.354   3.149 -0.1531  0.8914  0.3722
   55MOL   C14819696   1.075   3.386   3.289 -0.0089  0.6106 -0.2224
   55MOL   C14919697   0.980   3.353   3.401 -0.1412  0.1630  0.2469
   55MOL   C15019698   1.051   3.352   3.534  0.1027  0.1839 -0.5683
   55MOL   C15119699   1.135   3.478   3.562  0.1295 -0.0155 -0.3220
   55MOL   H15219700   0.919   3.161   3.178  1.0899  0.0573  1.6893
   55MOL   H15319701   1.096   3.154   3.160  0.7260  2.3751 -0.3047
   55MOL   H15419702   1.086   3.386   3.072  4.3786 -2.7123  2.7692
   55MOL   H15519703   1.099   3.492   3.295 -1.3748  0.8844  0.7360
   55MOL   H15619704   1.165   3.324   3.290 -0.4602 -0.1203  3.9771
   55MOL   H15719705   0.895   3.422   3.409 -1.0253 -0.9965  1.0552
   55MOL   H15819706   0.938   3.257   3.369 -1.2103  1.3397 -2.0350
   55MOL   H15919707   1.117   3.267   3.548  0.0848  0.1907 -0.4427
   55MOL   H16019708   0.982   3.339   3.617  1.6294 -1.9094  0.4267
   55MOL   H16119709   1.067   3.563   3.557 -0.8395 -0.8161 -0.9292
   55MOL   H16219710   1.186   3.472   3.658 -1.5676  2.2506  0.7763
   55MOL   H16319711   1.217   3.487   3.492 -0.0124 -2.8305 -0.9200
   55MOL   C16419712   0.883   3.422   3.136  0.2708 -0.1458 -0.0603
   55MOL   C16519713   0.885   3.577   3.120 -0.1008  0.2517 -0.0811
   55MOL   C16619714   0.929   3.619   2.984 -0.5984 -0.0340  0.1297
   55MOL   C16719715   0.847   3.561   2.863 -0.2082 -0.7590 -0.1313
   55MOL   C16819716   0.889   3.622   2.724  0.2514  0.2012 -0.4274
   55MOL   C16919717   0.790   3.597   2.612 -0.2175 -0.2892  0.3281
   55MOL   H17019718   0.824   3.380   3.055 -0.9731  1.9403 -0.2925
   55MOL   H17119719   0.808   3.389   3.207 -1.7123 -1.8490 -2.8345
   55MOL   H17219720   0.959   3.614   3.190 -1.1374 -1.3759  1.9291
   55MOL   H17319721   1.034   3.593   2.973  0.4750  3.3175  1.7270
   55MOL   H17419722   0.925   3.727   2.974 -0.2090  0.2936  3.0123
   55MOL   H17519723   0.739   3.577   2.867  0.0359  1.3676 -1.4572
   55MOL   H17619724   0.860   3.453   2.862 -0.9439 -0.8786  1.9367
   55MOL   H17719725   0.980   3.570   2.693  0.8144  0.3988  0.8542
   55MOL   H17819726   0.917   3.727   2.734  1.7148 -0.2448  0.3212
   55MOL   H17919727   0.785   3.495   2.574 -0.5929  0.7918 -2.6509
   55MOL   H18019728   0.805   3.662   2.526 -0.8711  0.5839  0.8734
   55MOL   H18119729   0.696   3.627   2.658 -0.8884 -0.8592 -0.6493
   55MOL   C18219730   0.745   3.638   3.161  0.0753  0.5665 -0.2216
   55MOL   C18319731   0.736   3.792   3.179  0.0476  0.1135  0.1576
   55MOL   C18419732   0.820   3.853   3.292 -0.0390  0.1508 -0.2964
   55MOL   C18519733   0.787   3.806   3.433  0.4527  0.3595  0.1024
   55MOL   C18619734   0.899   3.826   3.541  0.4648 -0.3653  0.4823
   55MOL   C18719735   0.870   3.754   3.676  0.0092  0.5459  0.0025
   55MOL   H18819736   0.673   3.601   3.088 -1.1978 -1.5105  2.0157
   55MOL   H18919737   0.706   3.595   3.253  1.9260  2.0604  1.3125
   55MOL   H19019738   0.779   3.833   3.087 -0.7011  0.2883 -0.1243
   55MOL   H19119739   0.924   3.824   3.280 -0.8713 -3.5582  0.6009
   55MOL   H19219740   0.828   3.960   3.277  1.2781 -0.0465 -1.0984
   55MOL   H19319741   0.764   3.700   3.436  3.1756 -0.3495 -2.2451
   55MOL   H19419742   0.696   3.857   3.467  1.9226  3.1368  0.0326
   55MOL   H19519743   0.913   3.931   3.568  0.2876 -0.4829  1.0229
   55MOL   H19619744   0.995   3.784   3.513  0.2350 -0.9147  0.5096
   55MOL   H19719745   0.855   3.647   3.659 -0.4165  0.2751  1.9432
   55MOL   H19819746   0.785   3.787   3.735 -0.2017  0.2188 -0.1123
   55MOL   H19919747   0.961   3.765   3.735  0.4685  1.8246 -0.9268
   55MOL   C20019748   0.584   3.839   3.192 -0.6236  0.0066  0.8648
   55MOL   C20119749   0.543   3.988   3.195 -0.9418  0.3038  0.3200
   55MOL   C20219750   0.598   4.057   3.068  0.0972 -0.9223  0.0387
   55MOL   C20319751   0.584   4.207   3.061  0.2268  0.2931 -0.3424
   55MOL   C20419752   0.680   4.279   3.151 -0.0306  0.2006 -0.1190
   55MOL   C20519753   0.661   4.427   3.182 -0.0748  0.8593  0.8090
   55MOL   H20619754   0.551   3.792   3.284  2.0077  0.2039  1.9584
   55MOL   H20719755   0.536   3.791   3.107  0.2380  0.0593  0.3353
   55MOL   H20819756   0.590   4.029   3.285  1.4897 -1.6707  0.0274
   55MOL   H20919757   0.561   4.003   2.981 -0.6274  0.3124 -0.4286
   55MOL   H21019758   0.707   4.048   3.061  0.3373  1.4947  0.3121
   55MOL   H21119759   0.482   4.234   3.090  0.3807 -2.2114  2.7953
   55MOL   H21219760   0.596   4.238   2.957 -0.8506 -0.5425 -0.7283
   55MOL   H21319761   0.784   4.268   3.121  1.1105  1.8902  2.9582
   55MOL   H21419762   0.675   4.238   3.252 -0.8373  4.2792  1.6262
   55MOL   H21519763   0.673   4.486   3.091 -2.9133 -0.6852 -0.6482
   55MOL   H21619764   0.561   4.443   3.223 -0.8215  1.3060 -1.0825
   55MOL   H21719765   0.732   4.459   3.257  1.0112  2.0261 -0.6753
   55MOL   C21819766   0.390   3.997   3.221 -0.9111  0.0198 -0.1669
   55MOL   C21919767   0.361   4.106   3.325 -0.6314  0.3040 -0.1625
   55MOL   C22019768   0.390   4.067   3.469  0.0243  0.3147 -0.0084
   55MOL   C22119769   0.474   4.169   3.553 -0.5722 -0.0974  0.3542
   55MOL   C22219770   0.506   4.123   3.696  0.4042 -0.0962 -0.1449
   55MOL   C22319771   0.612   4.210   3.772  0.2477 -0.7300  0.4675
   55MOL   H22419772   0.339   4.012   3.127  0.4765 -1.4353 -1.1771
   55MOL   H22519773   0.357   3.902   3.263 -1.1402 -0.5382 -1.6023
   55MOL   H22619774   0.429   4.182   3.288  1.3372 -0.8919  0.8904
   55MOL   H22719775   0.440   3.970   3.469  0.2762  0.4432  0.3002
   55MOL   H22819776   0.294   4.044   3.516  0.9689  0.1540  1.9085
   55MOL   H22919777   0.410   4.256   3.566 -0.8524 -0.3501  0.7300
   55MOL   H23019778   0.564   4.192   3.497 -1.9764 -1.6518 -2.6327
   55MOL   H23119779   0.414   4.116   3.754  0.1729 -0.0631 -0.5103
   55MOL   H23219780   0.548   4.023   3.687  1.3149  0.3547 -1.0676
   55MOL   H23319781   0.626   4.174   3.873 -1.0080 -0.6858  0.6671
   55MOL   H23419782   0.572   4.311   3.763  1.2232 -0.5106 -1.7336
   55MOL   H23519783   0.707   4.216   3.720 -1.1567  1.5356 -1.9998
   55MOL   C23619784   0.216   4.162   3.307 -0.2829  0.0592 -0.2808
   55MOL   C23719785   0.080   4.084   3.337 -0.0429 -0.3935 -0.0209
   55MOL   C23819786   7.708   4.102   3.216 -0.1296  0.1043 -0.9016
   55MOL   C23919787   0.017   4.026   3.091  0.7425  0.5042 -0.2684
   55MOL   C24019788   7.633   4.040   2.972 -0.9720  0.0444  0.7852
   55MOL   C24119789   7.675   3.958   2.847 -0.1564 -0.0092 -0.5211
   55MOL   H24219790   0.219   4.256   3.362  1.6886  0.2919 -0.7531
   55MOL   H24319791   0.217   4.198   3.205 -2.2355  3.6275  0.8625
   55MOL   H24419792   0.100   3.978   3.355  0.6217 -0.4614 -1.1075
   55MOL   H24519793   7.609   4.067   3.244  1.1106 -0.9416  2.3563
   55MOL   H24619794   7.704   4.208   3.191  0.8373 -0.2829 -2.8636
   55MOL   H24719795   0.038   3.922   3.112  0.5327  0.5338  0.0916
   55MOL   H24819796   0.104   4.067   3.040  0.5793 -0.3577 -1.2583
   55MOL   H24919797   7.538   3.991   2.992 -0.2538 -1.3459  0.9111
   55MOL   H25019798   7.635   4.146   2.949  0.2071  0.1663  1.4025
   55MOL   H25119799   0.035   4.010   2.808 -0.8825  2.0635  0.5227
   55MOL   H25219800   7.703   3.858   2.878 -2.5472 -0.8743 -1.0363
   55MOL   H25319801   7.601   3.963   2.767  1.5095 -0.2101 -2.0836
   55MOL   C25419802   0.024   4.138   3.474 -0.3182  0.2515  0.0494
   55MOL   C25519803   7.634   4.052   3.536  0.0313  0.0626  0.2974
   55MOL   C25619804   7.537   4.135   3.619  0.5242 -0.1666 -0.2239
   55MOL   C25719805   7.607   4.208   3.739  0.3007 -0.1396  0.5124
   55MOL   C25819806   7.518   4.288   3.832  0.6878  0.1190 -0.0237
   55MOL   C25919807   7.408   4.371   3.761 -0.3407 -0.1856 -0.4414
   55MOL   H26019808   7.721   4.241   3.457  1.1809  0.8286  0.8381
   55MOL   H26119809   0.100   4.154   3.550 -1.5150  1.7562  0.9443
   55MOL   H26219810   7.575   4.015   3.452  3.2251 -0.3340 -1.8880
   55MOL   H26319811   7.492   4.212   3.556  2.4744  1.6125  0.4983
   55MOL   H26419812   7.450   4.082   3.659 -0.1478  1.3530  0.3597
   55MOL   H26519813   7.665   4.146   3.808  1.1171 -0.0840 -0.1241
   55MOL   H26619814   7.688   4.271   3.703  1.6775 -2.3048 -0.2852
   55MOL   H26719815   7.583   4.349   3.895  1.8461 -0.9470 -0.1706
   55MOL   H26819816   7.471   4.215   3.897  0.1430  0.0658 -0.4694
   55MOL   H26919817   7.362   4.316   3.679 -0.8108  0.1239 -0.3876
   55MOL   H27019818   7.441   4.470   3.731  0.3678 -0.2037  0.2840
   55MOL   H27119819   7.333   4.373   3.841  1.2311 -0.1277  1.0542
   55MOL   C27219820   7.685   3.930   3.610 -0.5402  0.1429  0.4279
   55MOL   C27319821   7.581   3.825   3.658 -0.1925  0.2155  0.3825
   55MOL   C27419822   7.610   3.793   3.808 -0.0173  0.0965  1.1525
   55MOL   C27519823   0.008   3.711   3.840 -0.5389 -0.3370  0.2355
   55MOL   C27619824   0.033   3.691   3.988 -0.1997 -0.2333  0.5443
   55MOL   C27719825   0.170   3.629   4.027  0.1665 -0.2652  0.1528
   55MOL   H27819826   0.037   3.883   3.552 -0.3086  0.8306  0.1776
   55MOL   H27919827   0.018   3.963   3.695 -1.3707 -0.1672  1.1418
   55MOL   H28019828   7.481   3.869   3.659  0.2785  1.3942 -1.8577
   55MOL   H28119829   7.531   3.729   3.848 -0.3782  1.0161  1.9317
   55MOL   H28219830   7.605   3.879   3.875  2.6386  0.2912  1.1203
   55MOL   H28319831   0.095   3.757   3.792  0.2995 -1.5546  0.5625
   55MOL   H28419832   7.721   3.610   3.803  3.0507 -1.0564  0.6132
   55MOL   H28519833   0.024   3.788   4.037 -1.9852 -0.9907  1.7581
   55MOL   H28619834   7.683   3.633   4.038 -0.2924  1.1160  2.0024
   55MOL   H28719835   0.239   3.674   3.956  0.0118 -1.8526 -1.0347
   55MOL   H28819836   0.201   3.657   4.127 -1.7823 -3.1732  1.6387
   55MOL   H28919837   0.180   3.522   4.014  3.4537  0.0922 -0.5362
   55MOL   C29019838   7.580   3.711   3.559 -0.6973  0.3237 -0.1069
   55MOL   C29119839   7.439   3.650   3.550 -0.4407 -0.1167  0.5765
   55MOL   C29219840   7.351   3.720   3.446  0.3071 -0.0764 -0.2014
   55MOL   C29319841   7.390   3.713   3.294 -0.5637 -0.3514  0.7628
   55MOL   C29419842   7.279   3.766   3.203 -0.0574  0.6629 -0.1809
   55MOL   C29519843   7.298   3.743   3.056  0.1307 -0.1065  0.1485
   55MOL   H29619844   7.656   3.637   3.584 -2.0331 -1.0509 -0.0884
   55MOL   H29719845   7.615   3.750   3.463 -1.4192 -2.2341 -1.4610
   55MOL   H29819846   7.386   3.667   3.643  1.7114  0.7297  1.6726
   55MOL   H29919847   7.342   3.827   3.465  2.9102  0.2134 -0.3346
   55MOL   H30019848   7.250   3.680   3.441  0.2485  0.0295  0.1676
   55MOL   H30119849   7.478   3.777   3.283  0.0067 -1.0223  1.4029
   55MOL   H30219850   7.427   3.614   3.268  0.9742  1.5075 -4.8988
   55MOL   H30319851   7.264   3.873   3.217 -0.6587  0.5286  0.1913
   55MOL   H30419852   7.186   3.713   3.225  0.1151  0.3703 -0.1531
   55MOL   H30519853   7.329   3.641   3.034  0.4478 -0.3358  1.6125
   55MOL   H30619854   7.372   3.811   3.013 -1.3304  0.8401 -0.9103
   55MOL   H30719855   7.197   3.766   3.023  0.4706  1.6535  0.2549
   55MOL   C30819856   7.440   3.493   3.538  0.2023 -0.1158  0.7152
   55MOL   C30919857   7.301   3.438   3.504 -0.3573  0.0098 -0.2025
   55MOL   C31019858   7.194   3.477   3.607 -0.9058  0.1952 -0.0968
   55MOL   C31119859   7.053   3.479   3.551  0.4601  0.0908  0.2145
   55MOL   C31219860   6.949   3.548   3.646 -0.7261 -0.1501 -0.1648
   55MOL   C31319861   6.827   3.567   3.559 -0.0983  0.1908 -0.0170
   55MOL   H31419862   7.507   3.460   3.460 -1.6756  0.4394 -1.1805
   55MOL   H31519863   7.463   3.459   3.639  0.0025 -1.3218  0.3643
   55MOL   H31619864   7.280   3.482   3.406 -1.8075  2.2519  1.0692
   55MOL   H31719865   7.206   3.576   3.653 -1.6147  0.2605 -0.0424
   55MOL   H31819866   7.189   3.408   3.691 -0.3879 -0.0250 -0.2478
   55MOL   H31919867   7.024   3.375   3.537 -1.3413  0.5689  0.1543
   55MOL   H32019868   7.062   3.529   3.455  4.0153 -2.4573 -0.8600
   55MOL   H32119869   6.913   3.486   3.729 -0.1743 -0.2693 -0.0087
   55MOL   H32219870   6.990   3.641   3.686  1.0102 -1.1093  0.3234
   55MOL   H32319871   6.750   3.609   3.622  0.4779  0.0404  0.7939
   55MOL   H32419872   6.785   3.469   3.535 -1.7889  0.4936  1.6503
   55MOL   H32519873   6.850   3.630   3.472  0.3016  1.4659  1.0020
   55MOL   C32619874   7.294   3.285   3.479 -0.1930 -0.2881  0.0742
   55MOL   C32719875   7.394   3.224   3.376 -0.6686  0.2964  0.0599
   55MOL   C32819876   7.404   3.067   3.388 -0.2933  0.4532  0.6135
   55MOL   C32919877   7.437   3.006   3.530 -0.1386 -0.3604  0.0465
   55MOL   C33019878   7.439   2.850   3.535  0.0348  0.0881  0.0973
   55MOL   C33119879   7.437   2.800   3.674  0.5529  0.4851  0.0291
   55MOL   H33219880   7.198   3.274   3.428  0.2978 -0.6348 -0.7900
   55MOL   H33319881   7.300   3.230   3.573 -0.8789  0.0224  0.3026
   55MOL   H33419882   7.493   3.261   3.402 -1.0316 -0.8436  3.2046
   55MOL   H33519883   7.302   3.039   3.362  0.0403 -1.6661  1.4879
   55MOL   H33619884   7.475   3.024   3.319  0.0216 -2.3574  2.6166
   55MOL   H33719885   7.377   3.039   3.615  0.9932 -0.8525  1.0675
   55MOL   H33819886   7.539   3.034   3.557 -0.2793 -0.6448  0.9039
   55MOL   H33919887   7.352   2.809   3.484 -1.3698 -0.1313  2.5981
   55MOL   H34019888   7.531   2.818   3.486  1.2218  3.0250  0.2631
   55MOL   H34119889   7.343   2.806   3.730 -1.8078  1.3571 -3.8610
   55MOL   H34219890   7.498   2.863   3.739 -0.6534 -0.5020  2.1997
   55MOL   H34319891   7.469   2.696   3.677 -1.8623 -0.3451 -1.2117
   55MOL   C34419892   7.374   3.267   3.228 -0.0539  0.1515 -0.0609
   55MOL   C34519893   7.471   3.204   3.125  0.0421  1.0768  0.1048
   55MOL   C34619894   7.493   3.284   3.001  0.2825  0.3754 -0.2073
   55MOL   C34719895   7.544   3.215   2.877  0.5228 -0.0118  0.4371
   55MOL   C34819896   7.690   3.173   2.879  0.2711 -0.3612 -0.1524
   55MOL   C34919897   0.001   3.076   2.771  0.7668 -0.5833  0.5687
   55MOL   H35019898   7.273   3.234   3.205 -1.2187  2.1721  1.8802
   55MOL   H35119899   7.364   3.375   3.214  0.6533  0.3818  1.1620
   55MOL   H35219900   7.436   3.105   3.095  1.0213  1.2517 -1.6838
   55MOL   H35319901   7.394   3.324   2.980 -0.3419 -0.3371  1.3294
   55MOL   H35419902   7.557   3.371   3.019  0.2485  0.8502 -2.2705
   55MOL   H35519903   7.487   3.122   2.881 -0.3809  0.3704 -2.5107
   55MOL   H35619904   7.518   3.260   2.781  2.3743 -1.1657 -0.6434
   55MOL   H35719905   0.033   3.257   2.869 -0.2032 -0.4308 -5.3494
   55MOL   H35819906   7.713   3.123   2.973 -0.7127 -1.6216 -0.5771
   55MOL   H35919907   0.008   3.126   2.674  1.7271 -0.0664  0.8893
   55MOL   H36019908   0.106   3.052   2.789  1.3492  1.0624 -0.4475
   55MOL   H36119909   7.665   2.988   2.764 -0.5008  0.3597 -0.1690
   55MOL   H36219910   7.569   3.190   3.169  2.2736 -0.2314 -4.9011
   56MOL     C119911   2.626   0.806   1.183 -0.1646 -0.1960  0.1321
   56MOL     C219912   2.576   0.681   1.249 -0.0434  0.7361 -0.2100
   56MOL     C319913   2.673   0.571   1.203 -0.2875  0.0830 -0.0999
   56MOL     C419914   2.648   0.424   1.263 -0.1580  0.1194 -0.1026
   56MOL     C519915   2.627   0.433   1.418  0.2542  0.1398  0.1876
   56MOL     C619916   2.601   0.291   1.472 -0.6037  0.5027 -0.5977
   56MOL     H719917   2.729   0.828   1.211  0.5155 -1.7332 -1.0979
   56MOL     H819918   2.638   0.800   1.075  0.9442  2.6512  0.0476
   56MOL     H919919   2.595   0.689   1.356  0.4413 -0.1574 -0.2214
   56MOL    H1019920   2.773   0.588   1.243 -1.1928 -0.0575  2.3635
   56MOL    H1119921   2.675   0.560   1.095  0.2680 -0.3764 -0.0474
   56MOL    H1219922   2.736   0.364   1.242  0.9591  1.5283  0.5441
   56MOL    H1319923   2.564   0.372   1.215 -0.9843  0.6177  0.7700
   56MOL    H1419924   2.716   0.475   1.467 -1.9270  2.3649  2.4424
   56MOL    H1519925   2.543   0.498   1.445  0.4652  0.5665 -0.1791
   56MOL    H1619926   2.614   0.284   1.580  1.4638 -1.4743 -0.9319
   56MOL    H1719927   2.679   0.225   1.433  1.3636  1.3407  1.8091
   56MOL    H1819928   2.504   0.248   1.445 -0.6601  0.6843 -0.6828
   56MOL    H1919929   2.571   0.900   1.196  0.2490 -0.3476  3.4615
   56MOL    C2019930   2.423   0.649   1.219 -0.5103  0.4739  0.4528
   56MOL    C2119931   2.323   0.763   1.258  0.4010  0.2059 -0.7142
   56MOL    C2219932   2.184   0.734   1.186  0.1092 -0.0007 -0.1054
   56MOL    C2319933   2.181   0.764   1.033 -0.4324  0.2017 -0.1821
   56MOL    C2419934   2.031   0.783   0.982 -0.5421  0.0358  0.5250
   56MOL    C2519935   1.934   0.674   1.037  0.4951  0.0429  0.0088
   56MOL    H2619936   2.397   0.553   1.263 -1.4065  0.3174 -0.4188
   56MOL    H2719937   2.416   0.629   1.113  3.4878  1.9415 -0.1705
   56MOL    H2819938   2.365   0.857   1.223 -0.6850 -0.3476 -3.6649
   56MOL    H2919939   2.112   0.795   1.239  0.6844  0.1779  0.4715
   56MOL    H3019940   2.160   0.631   1.213  1.2263 -1.1435 -3.1707
   56MOL    H3119941   2.218   0.674   0.983 -0.2602 -0.1985  0.6520
   56MOL    H3219942   2.240   0.852   1.008 -0.2776  1.3989  3.9862
   56MOL    H3319943   1.991   0.876   1.022 -3.5434 -1.2749  0.7274
   56MOL    H3419944   2.036   0.775   0.874 -0.8510 -0.2710  0.5309
   56MOL    H3519945   1.920   0.679   1.145 -1.1564  1.6220 -0.2525
   56MOL    H3619946   1.837   0.686   0.990  1.0884  0.2673 -1.1674
   56MOL    H3719947   1.967   0.576   1.005 -0.5771 -0.7361  1.2437
   56MOL    C3819948   2.312   0.779   1.416 -0.4979  0.2789 -0.2846
   56MOL    C3919949   2.233   0.906   1.463 -0.0976 -0.2123 -0.2042
   56MOL    C4019950   2.190   0.899   1.611  0.1440  0.6326 -0.7897
   56MOL    C4119951   2.074   0.796   1.630 -0.6354 -0.1967  0.3624
   56MOL    C4219952   2.041   0.776   1.785 -0.0569  0.0110  0.9934
   56MOL    C4319953   2.115   0.668   1.859  0.1223  0.1739 -0.2149
   56MOL    H4419954   2.409   0.782   1.465 -0.3551 -0.2988 -0.5312
   56MOL    H4519955   2.252   0.698   1.458  0.3416  1.0508  2.5172
   56MOL    H4619956   2.147   0.917   1.397  0.7308 -0.4185 -1.3350
   56MOL    H4719957   2.281   0.862   1.657 -1.8812 -3.7477  0.0042
   56MOL    H4819958   2.170   1.000   1.647  1.7403  1.0823 -1.1420
   56MOL    H4919959   1.990   0.838   1.575  0.1257  1.3667  0.3652
   56MOL    H5019960   2.099   0.699   1.587 -0.2621 -0.6740  1.6272
   56MOL    H5119961   2.052   0.868   1.842 -0.5893  0.4566  0.3866
   56MOL    H5219962   1.938   0.741   1.778 -0.3201  0.8949  0.3349
   56MOL    H5319963   2.123   0.577   1.800  0.1285  0.5506 -0.7977
   56MOL    H5419964   2.064   0.658   1.955  0.1995 -0.7548 -0.2696
   56MOL    H5519965   2.219   0.696   1.876  1.0057 -2.3438 -1.2698
   56MOL    C5619966   2.318   1.029   1.436 -0.3033  0.0301  0.3450
   56MOL    C5719967   2.244   1.159   1.384  1.0142  0.3184  0.1902
   56MOL    C5819968   2.180   1.137   1.243 -0.7983 -0.0275  0.2489
   56MOL    C5919969   2.044   1.183   1.233 -0.7127  0.2567  0.1391
   56MOL    C6019970   1.989   1.183   1.093  0.0680 -0.2833  0.0770
   56MOL    C6119971   1.835   1.217   1.085  0.2393 -0.0303  0.4532
   56MOL    H6219972   2.344   1.062   1.536  0.3337 -0.2621  0.2818
   56MOL    H6319973   2.410   1.027   1.377 -0.4927  1.4632 -0.0057
   56MOL    H6419974   2.159   1.179   1.449  0.9350  1.0683 -0.1403
   56MOL    H6519975   2.242   1.178   1.163 -0.1191 -2.0220 -0.2611
   56MOL    H6619976   2.180   1.033   1.211 -0.9333  1.2159 -4.0474
   56MOL    H6719977   2.037   1.291   1.247 -0.3671  0.1357  1.2997
   56MOL    H6819978   1.980   1.135   1.306 -0.7727  1.1306  0.6735
   56MOL    H6919979   2.054   1.249   1.036 -1.6283 -0.7901 -2.5889
   56MOL    H7019980   1.994   1.088   1.038  1.4649  0.3366 -0.8916
   56MOL    H7119981   1.767   1.140   1.123 -0.0050  0.9887  2.0967
   56MOL    H7219982   1.812   1.308   1.140 -0.4387 -0.7865  1.4446
   56MOL    H7319983   1.814   1.228   0.979 -0.7552  1.8587  0.8349
   56MOL    C7419984   2.336   1.291   1.392  0.1084 -0.1927  0.5915
   56MOL    C7519985   2.365   1.338   1.537 -0.0449 -0.1064  0.2518
   56MOL    C7619986   2.520   1.351   1.555  0.5224 -0.0417  0.5055
   56MOL    C7719987   2.592   1.220   1.577  0.6674  0.3733  0.5766
   56MOL    C7819988   2.737   1.232   1.540  0.0925 -0.5451 -0.3296
   56MOL    C7919989   2.811   1.309   1.645 -0.1260  0.3544  0.4574
   56MOL    H8019990   2.431   1.285   1.339 -0.0951  0.6076  0.1318
   56MOL    H8119991   2.291   1.370   1.332  0.7840 -0.4575 -0.2723
   56MOL    H8219992   2.333   1.257   1.603 -2.6393 -1.9078 -3.1041
   56MOL    H8319993   2.574   1.388   1.468 -0.4516 -1.6967 -0.8474
   56MOL    H8419994   2.537   1.427   1.631  0.8649 -1.4387  1.8733
   56MOL    H8519995   2.556   1.175   1.670 -1.2427  1.7880  0.5517
   56MOL    H8619996   2.554   1.154   1.499  0.1616  1.5197 -0.1609
   56MOL    H8719997   2.753   1.264   1.437  2.0679 -0.0618  0.1072
   56MOL    H8819998   2.776   1.130   1.538  0.6986 -0.3985  2.2933
   56MOL    H8919999   2.918   1.296   1.629 -0.4600 -4.7949  1.6075
   56MOL    H9020000   2.767   1.409   1.642 -1.7566 -0.3631 -0.3692
   56MOL    H9120001   2.783   1.274   1.744  0.3214  2.3942  1.3350
   56MOL    C9220002   2.287   1.457   1.587 -0.3934 -0.9567 -0.3967
   56MOL    C9320003   2.134   1.446   1.569  0.3083  0.4308 -0.2838
   56MOL    C9420004   2.067   1.347   1.668 -0.3143 -0.0049 -0.1319
   56MOL    C9520005   1.933   1.286   1.620 -0.3071 -0.6315  0.9086
   56MOL    C9620006   1.832   1.224   1.719  0.1059 -0.2487  0.1170
   56MOL    C9720007   1.878   1.088   1.779 -0.0286  0.1748 -0.2316
   56MOL    H9820008   2.326   1.478   1.686  1.6601  0.6100 -1.4889
   56MOL    H9920009   2.331   1.546   1.542 -0.1343 -0.5646  0.6349
   56MOL   H10020010   2.106   1.413   1.469  0.2076  1.2732 -0.5350
   56MOL   H10120011   2.036   1.405   1.755 -0.2216 -0.3444  0.1271
   56MOL   H10220012   2.131   1.265   1.700 -1.2204 -1.8106 -2.8041
   56MOL   H10320013   1.876   1.369   1.580  1.5025  0.7533  1.1011
   56MOL   H10420014   1.950   1.214   1.540 -0.9662  0.0016  0.1866
   56MOL   H10520015   1.799   1.288   1.801 -0.6521 -1.5681  0.8557
   56MOL   H10620016   1.751   1.193   1.654 -1.7247 -0.9931  2.6695
   56MOL   H10720017   1.803   1.038   1.841  0.8477 -0.9508 -0.0637
   56MOL   H10820018   1.892   1.012   1.702  0.5816  1.0106 -0.9511
   56MOL   H10920019   1.971   1.092   1.836  0.7510  0.0466 -1.4895
   56MOL   C11020020   2.064   1.586   1.581 -0.2702  0.1151  0.3537
   56MOL   C11120021   2.071   1.686   1.462  0.2983  0.1289  0.0083
   56MOL   C11220022   2.042   1.828   1.520 -0.1318 -0.4544 -0.7219
   56MOL   C11320023   2.097   1.942   1.435  0.0473  0.4693  0.9098
   56MOL   C11420024   2.111   2.077   1.509 -0.2786  0.7981 -0.5041
   56MOL   C11520025   2.195   2.188   1.436  0.2237 -0.3511 -0.2692
   56MOL   H11620026   1.962   1.583   1.618 -0.9407  2.5964 -1.1693
   56MOL   H11720027   2.105   1.643   1.664 -2.4087  1.2868  0.6270
   56MOL   H11820028   2.174   1.691   1.425  0.6626  1.9036  1.2163
   56MOL   H11920029   2.094   1.841   1.615 -2.2822  0.3291  0.3826
   56MOL   H12020030   1.936   1.844   1.540  0.7711  3.3592  1.3908
   56MOL   H12120031   2.027   1.963   1.354  1.8114 -0.6120 -0.9322
   56MOL   H12220032   2.191   1.911   1.391  0.6916  3.1168  0.3611
   56MOL   H12320033   2.161   2.060   1.604 -1.4520  2.2085  0.3832
   56MOL   H12420034   2.012   2.116   1.531  0.0430  0.2184  2.1580
   56MOL   H12520035   2.290   2.157   1.394  0.9542  1.4136  0.0324
   56MOL   H12620036   2.136   2.218   1.349 -0.5446 -0.7298  0.1111
   56MOL   H12720037   2.209   2.274   1.501 -1.5883 -0.8824  0.8862
   56MOL   C12820038   1.961   1.641   1.359 -0.3034  0.1100  0.1666
   56MOL   C12920039   1.987   1.690   1.214 -0.3984  0.9858  0.1012
   56MOL   C13020040   1.850   1.718   1.141  0.3607  0.3655 -1.1226
   56MOL   C13120041   1.775   1.838   1.196  0.2579  0.3279  0.1964
   56MOL   C13220042   1.666   1.894   1.098 -0.1267 -0.2629 -0.1807
   56MOL   C13320043   1.574   1.999   1.171 -0.4495 -0.3860  0.2742
   56MOL   H13420044   1.860   1.668   1.390  0.3889 -0.1756  2.7916
   56MOL   H13520045   1.951   1.533   1.359  0.7460 -0.0287 -2.4842
   56MOL   H13620046   2.037   1.787   1.216  0.8028  0.4390 -2.0203
   56MOL   H13720047   1.878   1.744   1.039  1.1158  1.5924 -0.6167
   56MOL   H13820048   1.786   1.629   1.141  0.1618  0.4164  2.7720
   56MOL   H13920049   1.843   1.920   1.219 -1.4499  2.0879 -0.7826
   56MOL   H14020050   1.723   1.805   1.286 -1.0072  0.4709 -0.4631
   56MOL   H14120051   1.729   1.950   1.028  0.0652  2.4649  2.0676
   56MOL   H14220052   1.609   1.813   1.054 -0.3674  0.7313 -1.7446
   56MOL   H14320053   1.634   2.080   1.214  0.1248 -1.3420  1.3067
   56MOL   H14420054   1.524   1.939   1.247  0.7641 -2.0244 -0.2041
   56MOL   H14520055   1.502   2.042   1.102  0.8063  1.0178 -0.2075
   56MOL   C14620056   2.069   1.597   1.134 -0.2834  0.1703 -0.4353
   56MOL   C14720057   2.141   1.663   1.012  0.3757  1.0317  0.3189
   56MOL   C14820058   2.169   1.555   0.900 -0.1917  0.2458 -0.2777
   56MOL   C14920059   2.043   1.524   0.816 -0.7892 -0.8722  0.2006
   56MOL   C15020060   2.043   1.399   0.733  0.1964 -0.2786  0.1064
   56MOL   C15120061   2.155   1.397   0.625  0.0787 -0.1077  0.2107
   56MOL   H15220062   2.138   1.538   1.195 -0.1316  0.9362  0.1420
   56MOL   H15320063   1.997   1.525   1.097  0.4952 -1.1568  0.5741
   56MOL   H15420064   2.075   1.731   0.957 -0.3470 -0.3566 -0.5530
   56MOL   H15520065   2.189   1.463   0.955 -1.0771  1.3658  1.9682
   56MOL   H15620066   2.255   1.589   0.842  1.2813  2.2613  2.9220
   56MOL   H15720067   1.946   1.521   0.865 -0.3733 -0.4104  1.0479
   56MOL   H15820068   2.037   1.601   0.739 -0.5870  1.0179  2.0411
   56MOL   H15920069   1.950   1.405   0.677 -0.4114  1.7149  1.2639
   56MOL   H16020070   2.035   1.309   0.792  0.8101 -1.3477 -1.3968
   56MOL   H16120071   2.254   1.386   0.671  1.4417  0.9655 -2.3583
   56MOL   H16220072   2.141   1.313   0.557  0.0653 -0.9907  1.2956
   56MOL   H16320073   2.161   1.486   0.562 -0.5759 -0.7808 -0.8091
   56MOL   C16420074   2.273   1.730   1.057 -0.1196  0.0308  0.0495
   56MOL   C16520075   2.309   1.861   0.982 -0.3389 -0.3178  0.0301
   56MOL   C16620076   2.223   1.983   1.031 -1.1185  0.4435  0.2071
   56MOL   C16720077   2.202   2.092   0.924  0.1320 -0.3248  0.0801
   56MOL   C16820078   2.136   2.216   0.985 -0.3306 -0.3087  0.8133
   56MOL   C16920079   2.005   2.201   1.056 -0.6833 -0.5448  0.2984
   56MOL   H17020080   2.264   1.756   1.163 -2.5070  0.9397 -0.3511
   56MOL   H17120081   2.350   1.654   1.053 -0.5958 -0.3753 -1.6714
   56MOL   H17220082   2.279   1.844   0.879 -4.8811 -1.9808  1.5314
   56MOL   H17320083   2.256   2.028   1.125 -3.3594  2.1047  0.2364
   56MOL   H17420084   2.123   1.945   1.053 -1.3868  1.6934  1.2413
   56MOL   H17520085   2.152   2.069   0.829 -0.5925  3.1008 -0.4522
   56MOL   H17620086   2.299   2.129   0.892 -1.0186  1.9948 -0.8265
   56MOL   H17720087   2.125   2.295   0.912  2.0708 -1.1395 -0.5209
   56MOL   H17820088   2.211   2.255   1.054  0.1382  1.4071 -0.6513
   56MOL   H17920089   1.962   2.300   1.070  2.1347  0.3371  3.4255
   56MOL   H18020090   2.015   2.146   1.149 -1.8496 -0.6963  0.3412
   56MOL   H18120091   1.950   2.140   0.985 -0.8188  1.4954 -1.4108
   56MOL   C18220092   2.464   1.895   1.004 -0.0550 -0.9103  0.9954
   56MOL   C18320093   2.584   1.812   0.935 -0.0736  0.4476 -0.0454
   56MOL   C18420094   2.677   1.764   1.051 -0.5454  0.5548 -0.3460
   56MOL   C18520095   2.614   1.674   1.165  0.3994  0.2296 -0.3115
   56MOL   C18620096   2.719   1.627   1.273 -0.0821 -0.4257  0.5890
   56MOL   C18720097   2.821   1.520   1.228 -0.2594 -0.8900  0.0092
   56MOL   H18820098   2.478   2.003   0.995  0.6242 -0.9094  1.9624
   56MOL   H18920099   2.466   1.884   1.113  0.5061 -0.6162  1.0168
   56MOL   H19020100   2.543   1.722   0.889  0.1783 -0.4227  1.4012
   56MOL   H19120101   2.759   1.708   1.005  0.1581  0.0306  1.5007
   56MOL   H19220102   2.726   1.848   1.099  2.7187 -3.2457  3.3710
   56MOL   H19320103   2.570   1.583   1.124  0.6258 -0.1426  0.2619
   56MOL   H19420104   2.534   1.727   1.218 -0.2738 -0.8313 -0.2315
   56MOL   H19520105   2.664   1.606   1.365  0.5175 -2.0797  0.5963
   56MOL   H19620106   2.771   1.720   1.292 -1.0642  0.3360 -0.3704
   56MOL   H19720107   2.849   1.523   1.122 -0.3580 -0.8118 -0.0141
   56MOL   H19820108   2.772   1.423   1.238  0.2294 -1.2238 -0.7483
   56MOL   H19920109   2.914   1.510   1.284  0.6004  0.4411 -1.1333
   56MOL   C20020110   2.659   1.882   0.829  0.6417  0.0582 -0.1898
   56MOL   C20120111   2.577   1.931   0.703 -0.2496  0.1086  0.1631
   56MOL   C20220112   2.667   2.044   0.638  1.0389  0.3501 -0.7811
   56MOL   C20320113   2.794   2.001   0.568 -0.0585 -0.3425  1.1419
   56MOL   C20420114   2.857   2.093   0.466  0.8662 -0.7167 -1.1020
   56MOL   C20520115   2.946   2.200   0.526 -0.3466 -0.7154 -0.2710
   56MOL   H20620116   2.734   1.810   0.797 -0.5626 -1.4065  0.2136
   56MOL   H20720117   2.716   1.966   0.869  0.4989  0.9799 -1.8862
   56MOL   H20820118   2.474   1.960   0.719 -0.8132 -1.6057 -0.2413
   56MOL   H20920119   2.688   2.126   0.707 -0.4301  0.6136 -0.6479
   56MOL   H21020120   2.594   2.089   0.570 -0.7486 -1.1832  0.0989
   56MOL   H21120121   2.755   1.914   0.513  0.9229 -0.5472  0.7680
   56MOL   H21220122   2.865   1.956   0.637  0.1007  0.0432  1.2255
   56MOL   H21320123   2.776   2.140   0.410  1.2809  0.5876 -0.6258
   56MOL   H21420124   2.908   2.026   0.397  1.5108 -0.2719 -1.0638
   56MOL   H21520125   3.003   2.258   0.453 -0.2031 -0.8957 -0.3019
   56MOL   H21620126   2.887   2.266   0.590  1.7923 -0.7928  1.8609
   56MOL   H21720127   3.014   2.149   0.595  0.0953  0.1884 -0.0279
   56MOL   C21820128   2.545   1.804   0.618 -0.1620  0.7315 -0.0923
   56MOL   C21920129   2.472   1.821   0.485 -0.4120 -0.3377 -0.4310
   56MOL   C22020130   2.317   1.849   0.520  0.7883  0.0139 -0.1212
   56MOL   C22120131   2.224   1.867   0.399 -0.1711  0.6065 -0.0763
   56MOL   C22220132   2.093   1.937   0.442  0.4518 -0.1345 -0.3738
   56MOL   C22320133   2.107   2.092   0.457 -0.4249  0.4075 -0.2349
   56MOL   H22420134   2.638   1.748   0.611 -0.9010 -0.1691 -3.5381
   56MOL   H22520135   2.476   1.744   0.677  1.3894 -1.2657 -0.2552
   56MOL   H22620136   2.516   1.903   0.429 -2.4373 -0.0796 -1.6810
   56MOL   H22720137   2.318   1.940   0.579  1.2546  0.0998 -0.2555
   56MOL   H22820138   2.272   1.777   0.589 -1.3655  0.7610 -0.7074
   56MOL   H22920139   2.186   1.772   0.360  0.8549  0.1459  0.0439
   56MOL   H23020140   2.267   1.923   0.316  1.1213 -0.7052 -0.3155
   56MOL   H23120141   2.008   1.909   0.380 -0.0065 -1.3287  0.7842
   56MOL   H23220142   2.066   1.902   0.542  1.7878 -2.1815 -0.7131
   56MOL   H23320143   2.110   2.131   0.355  0.9743  1.3170  0.1536
   56MOL   H23420144   2.205   2.102   0.503 -0.2647 -1.6916 -0.0516
   56MOL   H23520145   2.035   2.139   0.524 -1.7883  0.3818 -1.6588
   56MOL   C23620146   2.477   1.689   0.407 -0.2478  1.1174  0.4545
   56MOL   C23720147   2.611   1.629   0.361  0.1925 -0.4370 -0.3502
   56MOL   C23820148   2.713   1.733   0.305 -0.8596 -0.4313  0.2517
   56MOL   C23920149   2.854   1.703   0.340 -0.3845 -0.3396 -0.1152
   56MOL   C24020150   2.964   1.797   0.280 -0.0273 -0.4266 -0.4749
   56MOL   C24120151   3.088   1.813   0.366 -0.5210  0.1479  0.3808
   56MOL   H24220152   2.420   1.615   0.463  1.7852  0.4039  1.6188
   56MOL   H24320153   2.412   1.696   0.320 -0.4275 -0.3302  0.4606
   56MOL   H24420154   2.663   1.586   0.446  1.4129  0.6598 -0.5333
   56MOL   H24520155   2.693   1.740   0.198  0.1488 -0.4490  0.0587
   56MOL   H24620156   2.687   1.838   0.320  3.0184  0.6138  0.2578
   56MOL   H24720157   2.877   1.597   0.327 -0.2482 -0.1809 -1.2390
   56MOL   H24820158   2.870   1.715   0.447  1.2159 -1.3204 -0.2226
   56MOL   H24920159   2.992   1.734   0.195  1.2276 -0.9092  0.2848
   56MOL   H25020160   2.925   1.895   0.253  0.0295 -0.2428  0.0993
   56MOL   H25120161   3.165   1.736   0.357  0.3872  0.9355  1.1781
   56MOL   H25220162   3.130   1.909   0.338 -1.0157  0.2179 -0.1271
   56MOL   H25320163   3.068   1.812   0.474 -2.9739 -0.9803 -0.0573
   56MOL   C25420164   2.587   1.517   0.259  0.7419  0.2622  0.1408
   56MOL   C25520165   2.501   1.391   0.296 -0.5249 -0.2472 -0.1480
   56MOL   C25620166   2.599   1.273   0.331  0.4184  0.2039 -0.4069
   56MOL   C25720167   2.662   1.287   0.475 -0.1974 -0.2693  0.2512
   56MOL   C25820168   2.752   1.164   0.504 -0.1829 -0.2385  0.1499
   56MOL   C25920169   2.883   1.163   0.428 -0.8585 -0.1730 -0.4931
   56MOL   H26020170   2.685   1.487   0.221  0.8546 -1.0031  1.3667
   56MOL   H26120171   2.540   1.552   0.168  3.1825 -0.7303 -1.5689
   56MOL   H26220172   2.438   1.402   0.384  0.3864 -1.7492  0.7116
   56MOL   H26320173   2.553   1.176   0.314  0.9501  0.1280 -1.4387
   56MOL   H26420174   2.691   1.280   0.273 -0.2167  0.1233 -1.4219
   56MOL   H26520175   2.709   1.386   0.481  1.1935 -0.8773 -0.2833
   56MOL   H26620176   2.576   1.287   0.541 -1.5895 -4.1293 -1.4287
   56MOL   H26720177   2.691   1.076   0.487  1.2253 -0.8335 -2.0559
   56MOL   H26820178   2.766   1.173   0.611  0.8872  0.7027 -0.0505
   56MOL   H26920179   2.864   1.137   0.323 -1.5071 -0.0100 -0.4172
   56MOL   H27020180   2.946   1.080   0.461 -0.0504 -0.0934 -1.7914
   56MOL   H27120181   2.946   1.252   0.427 -0.0372 -0.7422 -0.5523
   56MOL   C27220182   2.412   1.332   0.185  0.3154  0.2582 -0.1328
   56MOL   C27320183   2.284   1.419   0.155 -0.1331  0.1891 -0.7384
   56MOL   C27420184   2.162   1.361   0.235 -0.5359  0.4605  0.0212
   56MOL   C27520185   2.042   1.453   0.257  0.8560 -0.1487  0.8227
   56MOL   C27620186   1.920   1.397   0.342 -0.5777  0.4445  0.4060
   56MOL   C27720187   1.826   1.516   0.396 -0.0346 -0.3868  0.3239
   56MOL   H27820188   2.483   1.336   0.103  1.2511  0.9634  0.7083
   56MOL   H27920189   2.386   1.227   0.198  0.5027  0.2214 -0.0541
   56MOL   H28020190   2.302   1.520   0.194 -1.1634  0.9754 -2.2557
   56MOL   H28120191   2.192   1.320   0.332 -0.1211  2.0857  0.5939
   56MOL   H28220192   2.120   1.272   0.187 -0.4189  0.8698 -0.8434
   56MOL   H28320193   2.005   1.479   0.158  2.7812 -0.9660 -0.1409
   56MOL   H28420194   2.084   1.542   0.302  1.4610 -0.0629  0.0909
   56MOL   H28520195   1.871   1.318   0.285 -0.1951 -0.6746  1.5907
   56MOL   H28620196   1.958   1.333   0.421 -0.3463 -0.5449 -0.5014
   56MOL   H28720197   1.729   1.477   0.424  0.3835 -0.8008  1.2135
   56MOL   H28820198   1.864   1.568   0.484 -0.7372  1.8960 -0.6952
   56MOL   H28920199   1.803   1.585   0.315 -1.8869 -0.8543  0.4447
   56MOL   C29020200   2.251   1.416   7.720  0.0631  0.2961 -0.0629
   56MOL   C29120201   2.332   1.523   7.645 -0.1675 -0.3204  0.4935
   56MOL   C29220202   2.336   1.489   7.493 -0.0401 -0.1856  0.3045
   56MOL   C29320203   2.458   1.527   7.427  0.0408  0.2066  0.1257
   56MOL   C29420204   2.451   1.502   7.275 -0.2034  0.2503  0.4456
   56MOL   C29520205   2.367   1.599   7.204 -0.1596 -0.1911 -0.1012
   56MOL   H29620206   2.143   1.417   7.702  0.0595 -0.8934 -0.1651
   56MOL   H29720207   2.279   1.316   7.686 -1.7270  0.1798 -1.3044
   56MOL   H29820208   2.434   1.516   7.681  0.0459 -0.4070 -0.1183
   56MOL   H29920209   2.248   1.541   7.456  0.2684  0.8593  1.0163
   56MOL   H30020210   2.307   1.387   7.467  0.9934 -0.2600 -0.5637
   56MOL   H30120211   2.476   1.633   7.442  1.5556  0.2030 -1.4835
   56MOL   H30220212   2.540   1.472   7.473 -0.7597 -0.0647  1.2553
   56MOL   H30320213   2.413   1.401   7.261  0.3912 -0.2516  2.2934
   56MOL   H30420214   2.546   1.499   7.222 -0.2881  2.3601  0.1117
   56MOL   H30520215   2.382   1.703   7.234  0.7294  0.2199 -1.8979
   56MOL   H30620216   2.265   1.577   7.235 -0.4572  1.5203  0.1568
   56MOL   H30720217   2.356   1.587   7.096 -0.4828 -2.3246  0.1390
   56MOL   C30820218   2.284   1.659   7.687 -0.1451 -0.5130 -0.0216
   56MOL   C30920219   2.363   1.791   7.630  0.1672 -0.5348  0.2222
   56MOL   C31020220   2.502   1.801   7.691  0.7702  0.2069  1.4130
   56MOL   C31120221   2.595   1.913   7.640 -0.1195 -0.0758 -0.3844
   56MOL   C31220222   2.744   1.880   7.648  0.8977 -0.5344  0.2819
   56MOL   C31320223   2.844   1.992   7.615  0.0699  0.3537 -0.3066
   56MOL   H31420224   2.178   1.673   7.662 -0.0731 -1.1279 -0.6936
   56MOL   H31520225   2.260   1.675   0.065  1.0550  2.2314 -0.1142
   56MOL   H31620226   2.395   1.776   7.527  3.5648 -1.8511  1.3895
   56MOL   H31720227   2.543   1.700   7.684  1.9350  0.7036  1.1001
   56MOL   H31820228   2.479   1.818   0.070  0.8216 -1.7309  1.7481
   56MOL   H31920229   2.581   2.002   7.702 -1.3560 -0.0215 -0.7219
   56MOL   H32020230   2.573   1.929   7.534 -1.2658  0.1022 -0.1303
   56MOL   H32120231   2.756   1.839   0.021 -1.5471  1.0839  1.2877
   56MOL   H32220232   2.771   1.797   7.583  1.2873  0.3730 -0.7259
   56MOL   H32320233   2.823   2.069   7.689  0.1295  0.5596 -0.5027
   56MOL   H32420234   2.825   2.042   7.521  0.9867  1.9195  0.3181
   56MOL   H32520235   2.947   1.954   7.610  0.2677  1.0707 -1.9526
   56MOL   C32620236   2.275   1.915   7.649 -0.1939 -0.2891 -1.1699
   56MOL   C32720237   2.165   1.935   7.537 -0.1575 -0.5238  0.1480
   56MOL   C32820238   2.050   2.030   7.584  0.1448 -0.2017  0.3270
   56MOL   C32920239   2.099   2.178   7.584 -0.4722  0.0830  0.1999
   56MOL   C33020240   2.007   2.279   7.654  0.2539 -0.2163  0.2594
   56MOL   C33120241   2.008   2.271   0.084  0.0071  0.0708 -0.8010
   56MOL   H33220242   2.342   2.000   7.659 -0.0059 -0.6709  1.3268
   56MOL   H33320243   2.243   1.909   0.026  0.4780 -0.5252 -0.9687
   56MOL   H33420244   2.111   1.842   7.518  0.0680 -0.6218 -0.0213
   56MOL   H33520245   1.965   2.011   7.519 -0.7290  0.1474  1.3681
   56MOL   H33620246   2.010   2.007   7.682 -0.7859  0.1481  0.0317
   56MOL   H33720247   2.100   2.220   7.483 -0.1558  2.2510  1.0789
   56MOL   H33820248   2.198   2.192   7.626 -0.0281 -0.2813 -0.7308
   56MOL   H33920249   2.038   2.380   7.627 -1.8358  0.6791  1.0443
   56MOL   H34020250   1.904   2.284   7.618  0.3107  0.1035  0.1452
   56MOL   H34120251   1.920   2.320   0.125  1.5634  1.4262  1.0194
   56MOL   H34220252   2.088   2.327   0.134  0.3725 -0.6190 -0.6041
   56MOL   H34320253   2.023   2.168   0.116  1.0770  0.4298 -0.1066
   56MOL   C34420254   2.238   1.971   7.400  0.5768  0.8569  0.2010
   56MOL   C34520255   2.139   1.967   7.287  0.9923 -0.5618 -0.0149
   56MOL   C34620256   2.178   2.043   7.156 -0.3213  0.0256  0.2675
   56MOL   C34720257   2.257   1.955   7.050 -0.0807 -0.3923  0.8228
   56MOL   C34820258   2.157   1.895   6.945 -0.8400 -0.5477  0.4466
   56MOL   C34920259   2.223   1.779   6.877  0.0670  0.2048  0.7148
   56MOL   H35020260   2.284   2.069   7.409 -1.6189  2.1944 -2.3566
   56MOL   H35120261   2.319   1.902   7.375  0.3123  0.9242 -0.8794
   56MOL   H35220262   2.058   2.026   7.330  1.8916  0.9454 -0.3570
   56MOL   H35320263   2.093   2.091   7.108  0.7532 -0.6006 -2.3388
   56MOL   H35420264   2.237   2.132   7.180 -0.3059  0.8826 -2.7615
   56MOL   H35520265   2.335   2.003   6.992 -0.7706 -0.5144 -0.2101
   56MOL   H35620266   2.308   1.877   7.106 -2.2214 -1.3049  1.5795
   56MOL   H35720267   2.073   1.855   7.002 -1.0858 -3.0474 -1.6185
   56MOL   H35820268   2.124   1.978   6.883  1.5519 -0.4306 -0.7170
   56MOL   H35920269   2.292   1.810   6.798  0.4064 -0.0749  0.9001
   56MOL   H36020270   2.282   1.721   6.948  2.4677  0.5602 -0.9141
   56MOL   H36120271   2.161   1.701   6.832 -0.0498  0.9265 -0.3949
   56MOL   H36220272   2.099   1.867   7.271 -1.1524  0.3841 -0.8222
   57MOL     C120273   6.118   0.202   7.588  0.5747  0.6337  0.0174
   57MOL     C220274   6.070   0.068   7.660  0.1489 -0.3118  0.4451
   57MOL     C320275   5.924   0.050   7.633  0.9581 -0.2551 -0.4691
   57MOL     C420276   5.895   0.022   7.485 -0.3498 -0.3755  0.2142
   57MOL     C520277   5.925   7.607   7.441  0.2011  0.4490  0.9167
   57MOL     C620278   5.820   7.554   7.341 -0.1192  0.6018  0.4320
   57MOL     H720279   6.067   0.285   7.637  0.9912  1.0923 -0.3256
   57MOL     H820280   6.226   0.203   7.598  0.4116 -0.3726  2.2769
   57MOL     H920281   6.122   7.706   7.624 -0.1126 -0.6871  0.9852
   57MOL    H1020282   5.877   0.144   7.664  0.4681 -1.3317  2.1487
   57MOL    H1120283   5.878   7.705   7.701  0.7727  0.6853  0.4188
   57MOL    H1220284   5.920   0.102   7.415  0.0764 -0.8850 -0.2180
   57MOL    H1320285   5.786   0.028   7.486 -0.3323  0.0000 -0.2660
   57MOL    H1420286   6.022   7.598   7.392  0.1691  0.5632  0.8324
   57MOL    H1520287   5.915   7.543   7.529  3.6226 -1.7887 -0.1994
   57MOL    H1620288   5.825   7.598   7.242  1.2912  1.2214  0.7709
   57MOL    H1720289   5.726   7.576   7.390  0.9818  2.3248  1.8110
   57MOL    H1820290   5.830   7.446   7.325  2.3365  0.7210  0.9427
   57MOL    H1920291   6.085   0.206   7.485  1.7969 -1.3178 -0.4771
   57MOL    C2020292   6.103   0.076   0.084  0.5658  0.7184  0.6010
   57MOL    C2120293   6.248   0.078   0.120 -0.9418  0.1477 -0.3712
   57MOL    C2220294   6.282   0.115   0.264 -0.4926  0.6144 -0.2117
   57MOL    C2320295   6.271   0.271   0.295  0.1755  1.0998  0.4333
   57MOL    C2420296   6.283   0.300   0.441  0.9150 -0.0971  0.3149
   57MOL    C2520297   6.302   0.449   0.459  0.0928  0.0094  0.4457
   57MOL    H2620298   6.042   7.727   0.133  0.2974 -1.2214 -2.5642
   57MOL    H2720299   6.057   0.164   0.129  1.3655  0.6625  1.5335
   57MOL    H2820300   6.315   0.142   0.063 -1.5164  0.6454 -0.5027
   57MOL    H2920301   6.380   0.078   0.295 -1.5400 -3.4460 -1.4260
   57MOL    H3020302   6.212   0.049   0.317  0.4782  0.5887  1.0595
   57MOL    H3120303   6.179   0.310   0.250 -0.4741  1.4074  1.9970
   57MOL    H3220304   6.352   0.317   0.239 -0.3726  2.2377  0.5674
   57MOL    H3320305   6.190   0.263   0.484  0.8013 -0.1384  0.0301
   57MOL    H3420306   6.367   0.249   0.489  0.2351  1.6938  3.6174
   57MOL    H3520307   6.227   0.513   0.414  0.5451 -1.7242 -2.9226
   57MOL    H3620308   6.284   0.475   0.563 -1.3609 -4.1367  1.3436
   57MOL    H3720309   6.399   0.482   0.421 -0.5794  2.8267  1.1228
   57MOL    C3820310   6.308   7.663   0.088 -0.1422  0.4228 -0.4797
   57MOL    C3920311   6.458   7.664   0.056  0.8249 -0.3395 -0.6231
   57MOL    C4020312   6.522   7.535   0.121  0.1832  0.1425 -0.2113
   57MOL    C4120313   6.490   7.399   0.062 -0.4648 -0.2442  0.8241
   57MOL    C4220314   6.560   7.272   0.117 -0.1544 -0.0655 -0.2254
   57MOL    C4320315   6.500   7.138   0.077  0.5170  0.2408  1.0685
   57MOL    H4420316   6.262   7.620   7.726  0.4213  0.2059 -0.6729
   57MOL    H4520317   6.287   7.602   0.176 -1.0777  2.3616  0.6688
   57MOL    H4620318   6.495   0.020   0.117 -0.4031 -1.9058  2.3883
   57MOL    H4720319   6.629   7.547   0.106 -0.1320  1.4205 -1.6633
   57MOL    H4820320   6.510   7.530   0.229 -1.1400 -3.3947 -0.4530
   57MOL    H4920321   6.383   7.380   0.054 -0.4151 -0.2518  0.1486
   57MOL    H5020322   6.530   7.408   7.688  2.3918  0.2603  1.9575
   57MOL    H5120323   6.668   7.280   0.105 -0.2192  0.4282 -0.4951
   57MOL    H5220324   6.547   7.278   0.225 -1.9154  2.0199 -0.5250
   57MOL    H5320325   6.517   7.126   7.697  0.0121  0.5942  0.9448
   57MOL    H5420326   6.395   7.153   0.101 -0.0462 -0.4098 -0.8378
   57MOL    H5520327   6.544   7.061   0.140  0.9924 -0.7095 -0.3757
   57MOL    C5620328   6.479   7.680   7.629  0.5122 -0.0851 -0.6288
   57MOL    C5720329   6.611   0.022   7.595 -0.1428  0.1576  0.5695
   57MOL    C5820330   6.596   0.176   7.622  0.4101 -0.1943 -0.0528
   57MOL    C5920331   6.731   0.252   7.649  1.1569 -0.0781  0.2590
   57MOL    C6020332   6.779   0.234   0.068  0.4525 -0.1267  0.0744
   57MOL    C6120333   6.711   0.332   0.164 -0.0937  0.1018  0.4080
   57MOL    H6220334   6.465   7.591   7.568 -0.5223  0.1012 -0.6785
   57MOL    H6320335   6.400   0.020   7.596  0.0578 -0.2867  0.0206
   57MOL    H6420336   6.698   7.713   7.650 -0.3308 -1.2780 -0.0477
   57MOL    H6520337   6.540   0.223   7.542 -1.6799 -0.2429  1.3440
   57MOL    H6620338   6.528   0.191   7.706 -0.7329 -0.2852 -0.9571
   57MOL    H6720339   6.724   0.353   7.607  0.5849 -0.9042 -1.7058
   57MOL    H6820340   6.802   0.208   7.578  1.5120  0.2995  0.3766
   57MOL    H6920341   6.767   0.131   0.099 -0.6520 -0.4830 -1.4304
   57MOL    H7020342   6.887   0.243   0.079  0.3464  1.8091 -0.2357
   57MOL    H7120343   6.759   0.427   0.140 -1.0129  0.4247 -0.1602
   57MOL    H7220344   6.604   0.326   0.147  0.0112  0.4820 -0.4205
   57MOL    H7320345   6.735   0.302   0.266 -2.1063  1.0355  1.1646
   57MOL    C7420346   6.646   7.714   7.448 -0.2607 -0.1142  0.0027
   57MOL    C7520347   6.677   7.565   7.427  0.1745 -0.4277  0.4874
   57MOL    C7620348   6.605   7.516   7.299 -0.0500 -0.5240 -0.4255
   57MOL    C7720349   6.660   7.561   7.162 -0.3364 -0.4557  0.2947
   57MOL    C7820350   6.616   7.475   7.038 -0.4482 -0.0427  0.1188
   57MOL    C7920351   6.475   7.500   6.994  0.1163  0.2124  0.4966
   57MOL    H8020352   6.562   0.011   7.383 -0.4128 -0.8364 -0.0693
   57MOL    H8120353   6.726   0.049   7.408 -0.0329  0.1095  0.8046
   57MOL    H8220354   6.636   7.501   7.505 -2.9297  1.2064  0.2687
   57MOL    H8320355   6.598   7.407   7.303 -2.8139 -0.4466 -1.8901
   57MOL    H8420356   6.499   7.543   7.304  0.6925  2.5760 -0.5737
   57MOL    H8520357   6.635   7.667   7.150 -0.2429 -0.5566 -0.9213
   57MOL    H8620358   6.769   7.559   7.169 -0.4005 -2.4384  0.9137
   57MOL    H8720359   6.627   7.369   7.063 -0.8783  0.4494  2.5981
   57MOL    H8820360   6.678   7.494   6.951 -0.9297  1.3626  0.0742
   57MOL    H8920361   6.476   7.598   6.945  2.9197 -0.0296 -0.0284
   57MOL    H9020362   6.440   7.424   6.925  1.1279 -1.1688  1.4743
   57MOL    H9120363   6.408   7.506   7.080  0.2333 -2.3965  0.7996
   57MOL    C9220364   6.824   7.528   7.415 -0.7087 -0.0229  0.6030
   57MOL    C9320365   6.899   7.492   7.547  0.4009  0.5952  0.6116
   57MOL    C9420366   6.862   7.348   7.590  0.1406 -0.4078 -0.0866
   57MOL    C9520367   6.910   7.235   7.497  0.2466 -0.2700  0.4091
   57MOL    C9620368   6.865   7.093   7.549  0.3503 -0.5371 -0.3036
   57MOL    C9720369   6.927   6.976   7.464  0.3139 -0.5935  0.3089
   57MOL    H9820370   6.841   7.444   7.349 -0.4405  0.1656  0.4308
   57MOL    H9920371   6.883   7.606   7.366 -1.5709  1.0911  1.3130
   57MOL   H10020372   6.862   7.572   7.611  2.7453  1.3759  1.0443
   57MOL   H10120373   6.755   7.335   7.604 -0.1873 -0.1996 -2.2783
   57MOL   H10220374   6.900   7.327   7.691  0.4241  0.0112 -0.1010
   57MOL   H10320375   6.866   7.247   7.398  0.2969 -0.1431  0.4028
   57MOL   H10420376   7.018   7.235   7.489  0.1994 -0.5137 -0.3260
   57MOL   H10520377   6.900   7.088   7.652  0.1092 -1.5859 -0.2669
   57MOL   H10620378   6.756   7.085   7.542  0.4902 -2.2122 -0.9916
   57MOL   H10720379   6.889   6.982   7.362  0.8696  1.9561  0.2060
   57MOL   H10820380   7.036   6.971   7.462  0.4038 -1.3688  4.3009
   57MOL   H10920381   6.895   6.878   7.498 -3.1090  1.1450  2.3511
   57MOL   C11020382   7.048   7.512   7.538  0.7225  0.3037  0.1099
   57MOL   C11120383   7.133   7.471   7.655  0.6507  0.4560  0.8246
   57MOL   C11220384   7.078   7.508   0.067  0.2993 -0.6955 -0.4074
   57MOL   C11320385   7.126   7.421   0.182 -0.0186 -0.8413 -0.4744
   57MOL   C11420386   7.052   7.447   0.315 -0.5617  0.1073  0.0863
   57MOL   C11520387   6.912   7.391   0.330 -0.0634 -0.0522  0.5288
   57MOL   H11620388   7.081   7.455   7.451  1.5344  0.9159  0.0157
   57MOL   H11720389   7.070   7.610   7.497  0.8970  0.2218  0.0056
   57MOL   H11820390   7.137   7.363   7.670  1.5885  0.4678  0.7243
   57MOL   H11920391   6.970   7.491   0.068  0.4426 -1.6126  0.7899
   57MOL   H12020392   7.086   7.615   0.083 -0.4535 -0.9030  1.4751
   57MOL   H12120393   7.223   7.468   0.200 -0.2218 -0.7412  0.3944
   57MOL   H12220394   7.135   7.316   0.155  0.7384 -0.9043  0.0207
   57MOL   H12320395   7.041   7.555   0.319 -0.3796  0.1062  0.8658
   57MOL   H12420396   7.115   7.409   0.397 -1.8044 -0.7022  0.6787
   57MOL   H12520397   6.875   7.407   0.431 -0.6413  0.1373  0.2921
   57MOL   H12620398   6.845   7.448   0.265  0.5589  0.5814  0.4421
   57MOL   H12720399   6.909   7.287   0.296 -0.1242  0.4672 -1.0944
   57MOL   C12820400   7.272   7.528   7.632  0.3180  0.5773  0.0733
   57MOL   C12920401   7.355   7.474   7.509  0.3762  0.0061 -0.0266
   57MOL   C13020402   7.374   7.319   7.512 -0.5461 -0.1841  0.2040
   57MOL   C13120403   7.464   7.254   7.624 -0.5222  0.0490 -0.2165
   57MOL   C13220404   7.481   7.102   7.610  1.1337  0.4087  0.2038
   57MOL   C13320405   7.575   7.060   7.491 -0.0330 -0.6879 -0.1356
   57MOL   H13420406   7.325   7.497   7.722  0.5784 -0.5793 -0.4643
   57MOL   H13520407   7.287   7.636   7.635 -0.5757  0.7021  0.2795
   57MOL   H13620408   7.290   7.500   7.425  2.1748 -0.1973 -1.5041
   57MOL   H13720409   7.279   7.266   7.508 -0.7159  0.2281 -1.7374
   57MOL   H13820410   7.416   7.289   7.415 -3.6666 -1.2082 -0.9143
   57MOL   H13920411   7.423   7.273   7.723 -0.8689 -1.1756 -0.1261
   57MOL   H14020412   7.566   7.295   7.626 -0.4065 -0.2199 -0.4863
   57MOL   H14120413   7.523   7.048   7.695  0.3118 -1.3837 -0.4928
   57MOL   H14220414   7.386   7.048   7.603  1.6389 -1.3184  5.1719
   57MOL   H14320415   7.535   7.072   7.390  1.3894  0.4684 -0.5893
   57MOL   H14420416   7.618   6.962   7.507 -1.6559 -1.7443 -1.9656
   57MOL   H14520417   7.666   7.118   7.506  0.7334 -2.1564  1.0196
   57MOL   C14620418   7.491   7.539   7.471  0.0846  0.4538 -0.7161
   57MOL   C14720419   7.491   7.690   7.425  0.1534 -0.9183  0.7475
   57MOL   C14820420   7.440   7.711   7.279 -0.0518  0.0519  0.9007
   57MOL   C14920421   7.305   0.054   7.265 -0.2040  0.3136  0.6710
   57MOL   C15020422   7.255   0.086   7.124 -0.2639 -0.3056  0.2695
   57MOL   C15120423   7.334   0.206   7.068  0.6955  0.7143  0.1831
   57MOL   H15220424   7.559   7.516   7.552 -3.6008 -0.0852  2.3644
   57MOL   H15320425   7.539   7.486   7.389 -1.5667  0.1610 -1.5249
   57MOL   H15420426   7.418   0.022   7.481  0.2625 -0.1317  0.0619
   57MOL   H15520427   7.441   7.615   7.227 -1.6246  0.2072  0.5822
   57MOL   H15620428   7.507   0.046   7.219  0.4199  0.6839  2.0758
   57MOL   H15720429   7.236   7.718   7.322 -1.4790  2.2218  1.2769
   57MOL   H15820430   7.308   0.150   7.315  0.5569  1.1297 -0.9188
   57MOL   H15920431   7.150   0.116   7.124 -0.8717 -2.3947  0.3874
   57MOL   H16020432   7.267   0.003   7.055 -0.0406  0.5815 -0.7821
   57MOL   H16120433   7.441   0.196   7.086  0.6707  0.4152  0.1560
   57MOL   H16220434   7.310   0.216   6.962 -1.1918 -0.4265  0.4844
   57MOL   H16320435   7.304   0.297   7.122 -0.5093 -0.5900  1.7757
   57MOL   C16420436   7.631   0.029   7.443  0.7156 -0.0839 -0.3426
   57MOL   C16520437   7.671   0.037   7.591 -0.0303  0.3103  0.0539
   57MOL   C16620438   0.094   7.708   7.612 -0.4814  0.2285  0.0303
   57MOL   C16720439   0.132   7.565   7.561  1.0951  0.3066 -0.5167
   57MOL   C16820440   0.108   7.453   7.663 -0.2121 -0.5348  0.2034
   57MOL   C16920441   0.131   7.310   7.610 -0.0006  0.1920  0.2395
   57MOL   H17020442   7.704   7.707   7.378  0.9420  0.8512 -0.8058
   57MOL   H17120443   7.623   0.122   7.387 -1.3285 -0.0008  0.0527
   57MOL   H17220444   7.610   7.706   7.661 -1.3985  3.2028  1.3948
   57MOL   H17320445   0.117   7.715   7.718 -2.4185  1.3444  0.4028
   57MOL   H17420446   0.166   0.052   7.573  1.6017 -0.9266  1.6802
   57MOL   H17520447   0.237   7.549   7.535  0.9740 -2.1440  0.3376
   57MOL   H17620448   0.075   7.554   7.469 -1.6194  0.4354  1.0947
   57MOL   H17720449   0.018   7.465   7.724 -0.0773 -1.7826  0.6735
   57MOL   H17820450   0.184   7.468   0.012  0.9305 -2.1376 -0.5851
   57MOL   H17920451   0.112   7.224   7.673  0.5807  1.8265  2.7309
   57MOL   H18020452   0.231   7.305   7.566  1.0088  1.8490  2.2384
   57MOL   H18120453   0.068   7.292   7.523  0.6881 -3.7575  0.4930
   57MOL   C18220454   7.660   0.187   7.633  0.1143 -0.0973  1.0228
   57MOL   C18320455   7.675   0.217   0.056  0.4918 -0.0655 -0.8342
   57MOL   C18420456   7.579   0.125   0.144 -0.0734 -1.1710  0.1644
   57MOL   C18520457   7.427   0.153   0.139 -0.1282 -0.4389 -0.0218
   57MOL   C18620458   7.340   0.048   0.205  0.0792 -0.5104  0.1683
   57MOL   C18720459   7.359   0.028   0.357  0.0423  0.4619 -0.4715
   57MOL   H18820460   0.013   0.236   7.578 -2.5670  0.3524 -2.7108
   57MOL   H18920461   7.560   0.219   7.602  0.6599 -0.8608 -1.6678
   57MOL   H19020462   0.042   0.173   0.088  0.1253 -1.4118 -1.5418
   57MOL   H19120463   7.597   0.018   0.130 -1.0436 -1.4586  1.0596
   57MOL   H19220464   7.605   0.144   0.248  1.0387 -3.2229  0.2959
   57MOL   H19320465   7.404   0.158   0.033 -2.3168  0.8285  0.4834
   57MOL   H19420466   7.395   0.252   0.173 -0.6598  0.0128 -1.8064
   57MOL   H19520467   7.350   7.679   0.155  0.0920 -1.0285  1.1624
   57MOL   H19620468   7.233   0.066   0.192 -0.2847 -3.7099 -1.9175
   57MOL   H19720469   7.370   0.119   0.416  1.6428  0.0490 -0.1065
   57MOL   H19820470   7.447   7.692   0.364 -1.0402 -1.0359 -0.1855
   57MOL   H19920471   7.272   7.694   0.381 -0.5241  1.3953 -0.1383
   57MOL   C20020472   7.675   0.369   0.090  0.0823  0.3282  0.0416
   57MOL   C20120473   7.707   0.406   0.232  0.2756 -0.9328 -0.3265
   57MOL   C20220474   0.128   0.382   0.260 -0.1660  0.1904  0.4244
   57MOL   C20320475   0.150   0.270   0.367  0.4049 -0.1828  0.5779
   57MOL   C20420476   0.297   0.248   0.405 -0.7053  0.3751  0.3530
   57MOL   C20520477   0.366   0.363   0.484 -0.1735  0.0433 -0.8290
   57MOL   H20620478   7.578   0.413   0.063 -0.8646 -1.5340  0.3670
   57MOL   H20720479   0.023   0.417   0.026  1.2974 -0.2302  1.0366
   57MOL   H20820480   7.652   0.342   0.301 -1.6515  1.5350  0.5257
   57MOL   H20920481   0.167   0.474   0.304  1.5888 -0.4319  0.2214
   57MOL   H21020482   0.198   0.363   0.179  0.1187  0.7210  0.5410
   57MOL   H21120483   0.105   0.178   0.331 -0.6621  1.0753 -1.4379
   57MOL   H21220484   0.093   0.296   0.456 -3.1131  0.8799 -1.8563
   57MOL   H21320485   0.356   0.212   0.321 -0.4650  2.3308 -0.3254
   57MOL   H21420486   0.301   0.161   0.472 -1.0848 -0.3831 -0.5889
   57MOL   H21520487   0.317   0.425   0.559 -0.8151 -1.1825 -0.2135
   57MOL   H21620488   0.467   0.337   0.517 -1.1490 -0.5206  1.8748
   57MOL   H21720489   0.386   0.446   0.416 -2.2887  0.4121 -1.0101
   57MOL   C21820490   7.666   0.558   0.262 -0.4602 -0.1390 -0.0171
   57MOL   C21920491   7.630   0.599   0.406  0.2570 -0.6268 -0.1014
   57MOL   C22020492   7.496   0.537   0.462  0.5223 -0.5324 -0.3107
   57MOL   C22120493   7.374   0.547   0.363  0.4093  0.3681 -0.1065
   57MOL   C22220494   7.254   0.462   0.403 -0.3007 -0.3096  0.4347
   57MOL   C22320495   7.143   0.450   0.301 -0.0865  0.9669  0.1493
   57MOL   H22420496   0.025   0.616   0.228 -0.8675  0.5093  0.0354
   57MOL   H22520497   7.585   0.587   0.195 -0.9472  1.1337  1.1002
   57MOL   H22620498   7.711   0.558   0.467  3.9776  2.5358 -2.6935
   57MOL   H22720499   7.462   0.575   0.558  1.2308 -0.8809  0.0750
   57MOL   H22820500   7.511   0.437   0.500  1.5412 -0.7395 -1.2405
   57MOL   H22920501   7.397   0.510   0.263 -1.5812  0.7812 -0.7257
   57MOL   H23020502   7.335   0.648   0.346  3.4457  1.9054  1.5208
   57MOL   H23120503   7.293   0.361   0.410  1.7725  0.2354 -2.1125
   57MOL   H23220504   7.210   0.486   0.499 -0.2907  1.5922 -0.0052
   57MOL   H23320505   7.184   0.420   0.205  0.6730  1.5688  0.2757
   57MOL   H23420506   7.095   0.546   0.282 -0.2153  0.7594 -0.5820
   57MOL   H23520507   7.054   0.392   0.324  0.8081 -1.1029 -1.4594
   57MOL   C23620508   7.631   0.754   0.420 -0.6160  0.1150 -0.4595
   57MOL   C23720509   7.686   0.807   0.556  0.4112 -0.2412  0.5617
   57MOL   C23820510   7.626   0.950   0.586  0.2649  0.0730  0.0536
   57MOL   C23920511   7.473   0.947   0.602 -0.1731  0.0870  0.0812
   57MOL   C24020512   7.442   1.082   0.669 -0.2276 -0.3245 -0.5976
   57MOL   C24120513   7.289   1.110   0.683 -0.1843  0.0871  0.2445
   57MOL   H24220514   7.689   0.806   0.343 -1.1868 -1.3075 -1.8633
   57MOL   H24320515   7.526   0.779   0.403 -0.8134 -0.4867 -0.1395
   57MOL   H24420516   7.656   0.745   0.641  1.2513 -0.8453  0.4226
   57MOL   H24520517   7.676   0.990   0.674 -1.1757  1.1839  0.3775
   57MOL   H24620518   7.661   1.023   0.514  1.5512 -0.2127  0.3773
   57MOL   H24720519   7.436   0.865   0.664  2.5041 -1.7063 -0.5779
   57MOL   H24820520   7.421   0.943   0.507 -0.7172  0.1771  0.3694
   57MOL   H24920521   7.480   1.082   0.771 -0.4934  1.0896 -0.4970
   57MOL   H25020522   7.498   1.160   0.618 -1.8460  2.6361  2.0235
   57MOL   H25120523   7.265   1.205   0.730 -2.4308 -1.0572  1.4954
   57MOL   H25220524   7.249   1.110   0.582 -0.9744  0.5443  0.5561
   57MOL   H25320525   7.240   1.034   0.743 -2.0794  1.0287 -0.0656
   57MOL   C25420526   0.113   0.801   0.549  0.0560  0.1396 -0.2328
   57MOL   C25520527   0.183   0.810   0.687 -0.2833  0.9877  0.3328
   57MOL   C25620528   0.344   0.829   0.673  0.1580 -0.1242  0.4500
   57MOL   C25720529   0.387   0.964   0.610 -0.9844 -0.3981  0.1766
   57MOL   C25820530   0.534   0.986   0.572 -0.1558 -0.9581 -0.0802
   57MOL   C25920531   0.559   1.124   0.509 -0.2861 -0.1088  0.2214
   57MOL   H26020532   0.143   0.884   0.485 -3.6482 -0.0458 -2.3674
   57MOL   H26120533   0.155   0.713   0.501 -1.3053 -0.8482  0.3591
   57MOL   H26220534   0.159   0.906   0.732 -1.4844  1.9841 -2.3613
   57MOL   H26320535   0.390   0.813   0.770  2.8468 -0.0940 -0.7560
   57MOL   H26420536   0.380   0.757   0.599 -3.3198  0.0728 -1.5305
   57MOL   H26520537   0.332   0.997   0.522  1.3445  0.6950 -0.9049
   57MOL   H26620538   0.361   1.043   0.680 -1.6402  0.8139 -1.4056
   57MOL   H26720539   0.584   0.907   0.515  0.9489 -0.0479 -0.3803
   57MOL   H26820540   0.589   0.990   0.666  0.4344 -1.4855 -0.3964
   57MOL   H26920541   0.662   1.142   0.478 -0.0573  0.4685  1.2795
   57MOL   H27020542   0.540   1.208   0.575 -0.3507 -0.2194  0.3437
   57MOL   H27120543   0.495   1.142   0.422  0.8696  0.6337 -0.4884
   57MOL   C27220544   0.146   0.685   0.780  0.2793 -0.3672  0.4063
   57MOL   C27320545   0.074   0.724   0.915  0.2783  0.4116 -0.4038
   57MOL   C27420546   0.168   0.785   1.018  0.5499  0.3862  0.0953
   57MOL   C27520547   0.121   0.923   1.069 -0.3266  0.1153  0.1668
   57MOL   C27620548   0.218   0.993   1.174  1.0389 -1.0498  0.0451
   57MOL   C27720549   0.233   0.910   1.303  0.0277 -0.1605  0.4454
   57MOL   H27820550   0.066   0.626   0.736  1.1898 -0.7277 -0.8041
   57MOL   H27920551   0.230   0.616   0.788  0.0528 -0.7181 -0.1780
   57MOL   H28020552   7.715   0.788   0.895 -2.3811 -1.9230  2.8175
   57MOL   H28120553   0.263   0.803   0.969  0.5617 -0.0997 -0.0666
   57MOL   H28220554   0.189   0.720   1.103 -0.9021  1.5117  1.3389
   57MOL   H28320555   0.019   0.919   1.108 -0.8078  3.0174 -0.6635
   57MOL   H28420556   0.112   0.990   0.984 -1.3362 -0.6385 -0.3431
   57MOL   H28520557   0.321   1.000   1.139  1.1006 -0.1450  0.3812
   57MOL   H28620558   0.181   1.093   1.197  3.2150  0.1089 -1.3000
   57MOL   H28720559   0.298   0.824   1.289 -0.5039 -0.5846  0.5457
   57MOL   H28820560   0.273   0.974   1.382 -1.7232  0.3697  0.9436
   57MOL   H28920561   0.142   0.865   1.345 -0.2520  0.7418  0.8142
   57MOL   C29020562   0.006   0.599   0.988 -0.4433 -0.1153  0.1370
   57MOL   C29120563   7.643   0.622   1.114 -0.0928 -0.2504  0.6671
   57MOL   C29220564   7.517   0.708   1.072 -0.0702  0.0318 -0.1480
   57MOL   C29320565   7.435   0.666   0.944 -0.6703 -0.6895 -0.2415
   57MOL   C29420566   7.311   0.745   0.914 -0.3308  0.1295  0.1003
   57MOL   C29520567   7.210   0.671   0.825 -0.0729  0.2500 -0.0613
   57MOL   H29620568   0.087   0.532   1.016 -0.5729 -1.0063 -1.5626
   57MOL   H29720569   7.671   0.545   0.917 -0.3734 -1.2121  0.8941
   57MOL   H29820570   7.708   0.676   1.183  1.3978 -1.8499  0.5725
   57MOL   H29920571   7.542   0.814   1.063 -0.4087  0.0859 -0.4823
   57MOL   H30020572   7.461   0.722   1.164  0.3363  2.0591 -0.1868
   57MOL   H30120573   7.487   0.676   0.848  0.7627 -0.8792  0.5029
   57MOL   H30220574   7.410   0.560   0.949 -2.2019 -0.3515 -0.6297
   57MOL   H30320575   7.349   0.837   0.869  0.0181  0.0782  0.2931
   57MOL   H30420576   7.267   0.784   1.006 -1.4188  0.4055 -0.5291
   57MOL   H30520577   7.192   0.577   0.876 -0.9631  0.9632  0.9603
   57MOL   H30620578   7.270   0.649   0.736 -1.3737  1.4172 -1.2327
   57MOL   H30720579   7.123   0.729   0.795 -1.5829 -1.1616  1.4604
   57MOL   C30820580   7.596   0.486   1.169 -0.0876 -0.2680 -0.2699
   57MOL   C30920581   7.529   0.503   1.314 -0.1129  0.8700  0.0677
   57MOL   C31020582   7.630   0.493   1.424 -0.7855  0.6998 -0.0601
   57MOL   C31120583   7.704   0.623   1.452 -0.3731 -0.2843  0.1368
   57MOL   C31220584   0.029   0.635   1.598 -0.0246 -0.2430  0.5621
   57MOL   C31320585   0.127   0.751   1.617  0.2515 -0.5018  0.4953
   57MOL   H31420586   7.528   0.437   1.099  0.4817 -3.0628  1.0424
   57MOL   H31520587   7.676   0.413   1.178  1.1183  0.8872 -1.5069
   57MOL   H31620588   7.475   0.595   1.337  0.1900  0.7573  1.2273
   57MOL   H31720589   7.701   0.412   1.409 -1.8611 -0.2023 -0.3240
   57MOL   H31820590   7.586   0.475   1.522 -3.3350  3.1839 -0.6680
   57MOL   H31920591   7.635   0.707   1.452 -1.8879 -1.4565  2.5764
   57MOL   H32020592   0.063   0.631   1.385 -0.6384 -0.6793 -0.2618
   57MOL   H32120593   7.671   0.654   1.664 -0.9849 -1.3524 -0.3300
   57MOL   H32220594   0.072   0.540   1.629 -0.5054 -0.3179  1.0074
   57MOL   H32320595   0.168   0.749   1.718 -0.4771  1.9906  0.8516
   57MOL   H32420596   0.082   0.850   1.613  0.9749 -0.2226 -0.9678
   57MOL   H32520597   0.215   0.741   1.554  0.5263 -3.0365  1.2206
   57MOL   C32620598   7.422   0.394   1.331 -0.7029  0.6394 -0.0103
   57MOL   C32720599   7.288   0.413   1.246 -0.0885  0.8424 -0.3941
   57MOL   C32820600   7.205   0.282   1.248 -0.2802 -0.4442  0.4879
   57MOL   C32920601   7.274   0.173   1.170 -0.1896  0.2803 -0.0314
   57MOL   C33020602   7.188   0.044   1.169 -0.4922 -0.1669 -0.6618
   57MOL   C33120603   7.259   7.664   1.085 -0.3746  0.3161  0.6385
   57MOL   H33220604   7.403   0.405   1.437 -0.1835 -0.5425  0.2174
   57MOL   H33320605   7.457   0.291   1.334 -4.6057 -0.8937 -3.5065
   57MOL   H33420606   7.323   0.435   1.145  0.9478  0.0858 -0.2141
   57MOL   H33520607   7.186   0.245   1.349 -2.0155 -1.6573 -0.2613
   57MOL   H33620608   7.108   0.296   1.201  0.4450  1.0664 -0.5939
   57MOL   H33720609   7.370   0.154   1.219  1.1631  1.5168 -2.1268
   57MOL   H33820610   7.318   0.197   1.073  1.0624 -0.8740  0.2312
   57MOL   H33920611   7.172   7.726   1.267  0.5539 -0.5570 -0.6622
   57MOL   H34020612   7.088   0.061   1.129 -0.8496 -0.3784  0.1220
   57MOL   H34120613   7.249   7.677   0.977  0.4788 -0.5534  0.4417
   57MOL   H34220614   7.242   7.562   1.118  1.9043  0.0564  1.0993
   57MOL   H34320615   7.368   7.663   1.090 -0.3634 -0.7621  0.2440
   57MOL   C34420616   7.199   0.534   1.292 -0.6654 -0.3728 -0.2210
   57MOL   C34520617   7.172   0.547   1.446  0.1088 -0.6547  0.1452
   57MOL   C34620618   7.043   0.619   1.489 -0.2044 -0.0013  0.1737
   57MOL   C34720619   7.043   0.644   1.641  0.1430 -0.4277 -0.2571
   57MOL   C34820620   6.914   0.711   1.690  0.2216 -0.2149 -0.0275
   57MOL   C34920621   6.890   0.678   1.838  0.1782  0.2225  0.2787
   57MOL   H35020622   7.239   0.628   1.255  0.8555 -1.0895 -0.4363
   57MOL   H35120623   7.103   0.535   1.240 -0.8167  1.1539  0.0666
   57MOL   H35220624   7.256   0.609   1.478 -1.6133  2.8607 -1.8436
   57MOL   H35320625   7.041   0.720   1.446 -1.5064 -0.2575 -0.3771
   57MOL   H35420626   6.954   0.571   1.451 -1.7220  2.5554  0.3472
   57MOL   H35520627   7.047   0.545   1.687  0.1103 -1.1507 -1.7911
   57MOL   H35620628   7.125   0.703   1.681 -1.2428  1.0789  0.4526
   57MOL   H35720629   6.899   0.817   1.670 -1.2065 -0.0484  1.7441
   57MOL   H35820630   6.839   0.673   1.621  1.4461  0.7250 -1.9162
   57MOL   H35920631   6.891   0.571   1.859 -2.6455 -0.2003 -1.4139
   57MOL   H36020632   6.954   0.728   1.911  0.3636  0.5657 -0.1150
   57MOL   H36120633   6.789   0.711   1.864 -0.0306 -1.2871  1.4133
   57MOL   H36220634   7.173   0.453   1.501  0.0493 -0.2762  0.8000
   58MOL     C120635   7.452   5.109   0.064  0.1128  0.7068  0.1097
   58MOL     C220636   7.376   5.037   0.179 -0.2604 -0.8453 -0.4246
   58MOL     C320637   7.440   4.902   0.217 -0.4500  0.7240  0.4014
   58MOL     C420638   7.382   4.826   0.339  0.1388  0.0325 -0.5083
   58MOL     C520639   7.459   4.699   0.359  0.0959 -0.5127  0.1204
   58MOL     C620640   7.401   4.600   0.457  0.7849 -0.0757  0.2911
   58MOL     H720641   7.559   5.115   0.083  0.0071  0.5779  0.7492
   58MOL     H820642   7.439   5.045   7.703  0.8000  1.5363 -0.6039
   58MOL     H920643   7.401   5.094   0.269 -0.4409 -2.2489  0.5246
   58MOL    H1020644   7.546   4.927   0.227 -0.3725  1.8333 -2.4938
   58MOL    H1120645   7.427   4.851   0.121 -1.2350  0.8497  0.4370
   58MOL    H1220646   7.274   4.808   0.336  0.2992 -1.3031  0.8508
   58MOL    H1320647   7.393   4.894   0.424 -1.6599  1.1485 -1.1393
   58MOL    H1420648   7.477   4.652   0.263  0.3615  1.3056 -0.7497
   58MOL    H1520649   7.559   4.720   0.397 -0.3296 -0.9921  1.5310
   58MOL    H1620650   7.432   4.609   0.562  0.9202  0.6114  0.1974
   58MOL    H1720651   7.419   4.496   0.431  1.0735  0.0264  0.0837
   58MOL    H1820652   7.296   4.623   0.477  0.6531  0.3297 -0.8495
   58MOL    H1920653   7.422   5.208   0.031  0.8144  0.7970 -0.2501
   58MOL    C2020654   7.231   5.030   0.143 -0.0777 -0.3970 -0.5752
   58MOL    C2120655   7.145   5.155   0.186 -0.0151 -0.3070  0.0956
   58MOL    C2220656   7.001   5.161   0.129  0.4819  0.1550 -0.1600
   58MOL    C2320657   6.993   5.154   7.705 -0.0700 -0.0611 -0.4775
   58MOL    C2420658   6.857   5.181   7.657  0.5116  0.5025  0.6224
   58MOL    C2520659   6.835   5.126   7.519 -0.0015 -0.1867 -0.2572
   58MOL    H2620660   7.188   4.938   0.183 -0.2532  0.1254  0.4455
   58MOL    H2720661   7.223   5.019   0.034 -2.0756  0.9401 -0.6017
   58MOL    H2820662   7.190   5.239   0.133  1.1162 -0.4480  0.8077
   58MOL    H2920663   6.956   5.258   0.149 -1.5622 -0.1666 -3.0018
   58MOL    H3020664   6.943   5.085   0.182  1.0281 -0.4773 -0.4665
   58MOL    H3120665   7.043   5.063   7.670 -0.8770  0.2176 -2.4392
   58MOL    H3220666   7.059   5.236   7.674  0.1701  0.7634  2.0980
   58MOL    H3320667   6.791   5.136   0.004  0.3480 -0.2191  0.0398
   58MOL    H3420668   6.839   5.288   7.654 -0.0235  0.3900 -0.0741
   58MOL    H3520669   6.908   5.164   7.447  0.0521  0.2618  0.0298
   58MOL    H3620670   6.840   5.017   7.508 -0.8926 -0.3552  0.9291
   58MOL    H3720671   6.735   5.147   7.482  0.0634  1.7630  0.6298
   58MOL    C3820672   7.137   5.203   0.334  0.3689  0.0452 -0.1976
   58MOL    C3920673   7.127   5.361   0.345  0.0893  0.1036 -0.1659
   58MOL    C4020674   7.052   5.400   0.475 -0.0367 -0.5440  0.4915
   58MOL    C4120675   6.899   5.385   0.462  0.2147 -0.6761 -0.2286
   58MOL    C4220676   6.839   5.498   0.369 -1.0053 -0.5483 -0.2057
   58MOL    C4320677   6.717   5.469   0.280  0.0459 -0.1761  0.1675
   58MOL    H4420678   7.225   5.185   0.396 -0.5792  2.7944  2.1068
   58MOL    H4520679   7.047   5.153   0.370 -0.0060  1.6077  1.0740
   58MOL    H4620680   7.066   5.402   0.265  0.6899 -0.6364 -1.0133
   58MOL    H4720681   7.094   5.339   0.555  0.1374 -0.5342  0.4074
   58MOL    H4820682   7.081   5.503   0.497  3.2483 -1.1479 -0.7759
   58MOL    H4920683   6.869   5.293   0.413 -1.2581  1.1678 -2.9313
   58MOL    H5020684   6.843   5.380   0.556  0.7752  0.5643  0.1929
   58MOL    H5120685   6.833   5.588   0.431  1.3766 -0.2866 -0.3206
   58MOL    H5220686   6.916   5.527   0.298 -0.2919 -1.7165  0.0828
   58MOL    H5320687   6.622   5.472   0.334 -0.5086 -2.0136 -0.6732
   58MOL    H5420688   6.729   5.368   0.240 -2.4693 -0.8194  0.9536
   58MOL    H5520689   6.718   5.539   0.197 -1.5994 -1.4593 -0.9772
   58MOL    C5620690   7.273   5.421   0.334  0.0508  0.0975  0.2932
   58MOL    C5720691   7.288   5.567   0.278 -0.0191  0.0325 -0.4848
   58MOL    C5820692   7.247   5.587   0.127 -0.4523  0.3803 -0.3104
   58MOL    C5920693   7.324   5.488   0.031 -0.0149 -0.7770  0.6475
   58MOL    C6020694   7.284   5.520   7.608  0.4507 -0.2500 -0.1218
   58MOL    C6120695   7.360   5.448   7.495 -0.2982 -0.6667 -1.0343
   58MOL    H6220696   7.316   5.414   0.434 -2.2706 -1.3583  1.2450
   58MOL    H6320697   7.335   5.353   0.275  0.4995  0.0216  0.8523
   58MOL    H6420698   7.214   5.619   0.339 -0.9498 -0.1638 -1.4310
   58MOL    H6520699   7.144   5.556   0.108 -0.4469 -0.3452  0.8033
   58MOL    H6620700   7.251   5.683   0.077  1.6961 -0.1424 -1.2133
   58MOL    H6720701   7.286   5.388   0.049  1.4866 -1.8833 -2.0187
   58MOL    H6820702   7.433   5.490   0.042  0.0782 -0.3392 -0.3555
   58MOL    H6920703   7.180   5.492   7.588  0.6212 -1.5248  0.7566
   58MOL    H7020704   7.284   5.628   7.592 -0.4426  0.1083  2.0503
   58MOL    H7120705   7.382   5.347   7.528  0.9030 -0.2915 -0.6659
   58MOL    H7220706   7.296   5.432   7.408 -1.7220  2.5023 -0.6408
   58MOL    H7320707   7.447   5.507   7.466 -1.9750  1.5934 -1.6212
   58MOL    C7420708   7.428   5.610   0.311 -0.8856 -0.2502 -0.2039
   58MOL    C7520709   7.461   5.758   0.293 -0.2873  0.1267 -0.4439
   58MOL    C7620710   7.397   5.840   0.408 -0.3929 -0.7925  0.5406
   58MOL    C7720711   7.416   5.993   0.387  0.0576 -0.5846 -0.2566
   58MOL    C7820712   7.314   6.073   0.471 -0.0119 -0.2359  0.5243
   58MOL    C7920713   7.318   6.080   0.620 -0.1111  0.3697  0.1097
   58MOL    H8020714   7.455   5.596   0.416 -2.2237 -1.8282 -0.0410
   58MOL    H8120715   7.496   5.547   0.254 -0.3898 -0.0562  0.1752
   58MOL    H8220716   7.430   5.809   0.202 -2.8020 -0.0519  0.2998
   58MOL    H8320717   7.292   5.812   0.416 -0.2366 -1.7076 -0.4458
   58MOL    H8420718   7.434   5.810   0.507 -0.6668 -2.2154  0.2190
   58MOL    H8520719   7.516   6.012   0.425 -0.1828 -0.2045  0.1920
   58MOL    H8620720   7.417   6.024   0.282  0.2848 -1.8287 -0.6315
   58MOL    H8720721   7.213   6.039   0.450 -0.0648 -1.1182  2.1328
   58MOL    H8820722   7.314   6.179   0.446 -0.8528  0.3943  3.0324
   58MOL    H8920723   7.398   6.140   0.663 -0.0167  1.3823 -1.4284
   58MOL    H9020724   7.234   6.130   0.668  0.5715 -0.1655  1.9132
   58MOL    H9120725   7.328   5.977   0.653  1.8357  0.2160 -0.9103
   58MOL    C9220726   7.612   5.782   0.286 -0.0863  0.0319 -0.2174
   58MOL    C9320727   7.696   5.732   0.163 -0.3924 -0.4746 -0.5949
   58MOL    C9420728   7.680   5.831   0.055  0.1725 -0.0995 -0.8773
   58MOL    C9520729   7.699   5.781   7.644  0.5213 -0.0179 -0.0466
   58MOL    C9620730   7.678   5.882   7.533 -0.0456  0.1798 -0.0992
   58MOL    C9720731   7.675   5.821   7.394  0.4930 -0.0348  0.1732
   58MOL    H9820732   7.640   5.887   0.293  2.0188 -0.3817 -1.7898
   58MOL    H9920733   7.658   5.736   0.374 -1.2353  1.9132  1.4132
   58MOL   H10020734   7.632   5.651   0.126 -0.6986 -0.7183  0.4594
   58MOL   H10120735   0.025   5.911   0.068  1.6046 -1.4836 -0.0217
   58MOL   H10220736   7.581   5.874   0.063 -0.2573 -1.6719  3.7359
   58MOL   H10320737   0.069   5.732   7.634 -1.5262 -3.8563 -2.5651
   58MOL   H10420738   7.626   5.701   7.630  0.1426  0.1209  1.0989
   58MOL   H10520739   7.577   5.917   7.555  0.1041 -0.2365  1.2933
   58MOL   H10620740   0.024   5.963   7.537  0.2910 -0.1113 -0.2446
   58MOL   H10720741   7.592   5.753   7.376 -0.2200  1.0006 -0.4987
   58MOL   H10820742   7.677   5.900   7.319 -1.0476  0.0012  0.1481
   58MOL   H10920743   0.036   5.761   7.370  0.6130  0.1091  0.2516
   58MOL   C11020744   0.116   5.678   0.203 -0.1240  1.1960  0.0112
   58MOL   C11120745   0.124   5.524   0.235 -0.4933  0.4658  0.1404
   58MOL   C11220746   0.104   5.425   0.118  0.3357 -0.2696  0.0259
   58MOL   C11320747   0.216   5.445   0.010 -0.1242  0.8296  0.4860
   58MOL   C11420748   0.218   5.329   7.628 -0.3557 -0.2775  0.1732
   58MOL   C11520749   0.079   5.284   7.586  0.7164 -0.0002  0.2872
   58MOL   H11620750   0.191   5.701   0.128  1.7195 -2.5649  0.6126
   58MOL   H11720751   0.144   5.727   0.297 -0.9726  2.4601 -0.3819
   58MOL   H11820752   0.225   5.500   0.267  0.5963  3.3072 -1.0009
   58MOL   H11920753   0.005   5.436   0.072 -0.1045  0.1138  1.0336
   58MOL   H12020754   0.131   5.324   0.149  1.8954 -0.8986 -3.2317
   58MOL   H12120755   0.302   5.453   0.076 -0.2649  3.7106  0.4018
   58MOL   H12220756   0.205   5.541   7.685  1.6884  0.1173 -1.2576
   58MOL   H12320757   0.271   5.239   7.658  0.4008 -0.2487 -1.0240
   58MOL   H12420758   0.273   5.359   7.539 -1.4207 -1.7929 -1.0261
   58MOL   H12520759   0.088   5.193   7.527 -2.2988 -0.8935  1.1204
   58MOL   H12620760   0.025   5.244   7.671  1.3148  0.6177  0.9694
   58MOL   H12720761   0.025   5.356   7.525  0.5463  0.2024  0.6742
   58MOL   C12820762   0.047   5.488   0.364 -0.2433  0.3807  1.1718
   58MOL   C12920763   0.085   5.348   0.434  0.4155 -0.6509  0.0079
   58MOL   C13020764   7.683   5.280   0.502 -0.0219  0.2460  0.4629
   58MOL   C13120765   7.593   5.369   0.584  0.3365 -0.0371  0.4677
   58MOL   C13220766   7.501   5.284   0.668  0.4557  0.8160 -0.5426
   58MOL   C13320767   7.400   5.359   0.748 -0.2373  0.0754  0.6821
   58MOL   H13420768   7.671   5.473   0.333  0.4583  0.2098 -1.1570
   58MOL   H13520769   0.061   5.559   0.445  1.5169 -0.4087  1.5878
   58MOL   H13620770   0.118   5.274   0.361 -0.1623 -1.1409  0.2410
   58MOL   H13720771   7.621   5.246   0.419  0.0863 -1.3220  1.0073
   58MOL   H13820772   7.717   5.197   0.563 -0.1384 -0.2253 -0.1088
   58MOL   H13920773   7.537   5.419   0.506 -0.8072 -1.8258  0.1179
   58MOL   H14020774   7.641   5.445   0.646 -0.6424  0.8372  0.1618
   58MOL   H14120775   7.445   5.205   0.618 -0.0994  0.1036  1.1581
   58MOL   H14220776   7.565   5.229   0.737  0.9750  1.1746 -0.7388
   58MOL   H14320777   7.449   5.438   0.803  0.7109  0.5240 -0.7633
   58MOL   H14420778   7.356   5.308   0.834  1.7023 -2.1219  0.4174
   58MOL   H14520779   7.325   5.399   0.680 -0.1857  0.3868  0.8074
   58MOL   C14620780   0.188   5.366   0.539  0.2349  0.0634 -0.3962
   58MOL   C14720781   0.281   5.239   0.563 -0.3004  0.2562 -0.1586
   58MOL   C14820782   0.349   5.242   0.707  0.6425 -0.7327  0.6011
   58MOL   C14920783   0.260   5.244   0.833  0.2669 -0.0215  0.1248
   58MOL   C15020784   0.326   5.179   0.954 -0.5610  0.3372 -0.7470
   58MOL   C15120785   0.243   5.181   1.083  0.3922 -0.0158  0.5661
   58MOL   H15220786   0.261   5.440   0.506  0.6903 -1.0621 -1.9753
   58MOL   H15320787   0.150   5.404   0.634 -0.0012  0.7262 -0.7552
   58MOL   H15420788   0.221   5.148   0.565  1.4678 -0.9293  0.8982
   58MOL   H15520789   0.413   5.329   0.721  0.3313 -0.4170  0.0444
   58MOL   H15620790   0.414   5.155   0.721  0.0463 -1.1037  1.0848
   58MOL   H15720791   0.237   5.346   0.860  2.3081  1.2343 -2.6292
   58MOL   H15820792   0.175   5.181   0.806  0.8234 -2.4599  3.6431
   58MOL   H15920793   0.430   5.208   0.966 -0.4666 -0.4767  0.5772
   58MOL   H16020794   0.329   5.073   0.928  1.9064  0.0760  0.3994
   58MOL   H16120795   0.277   5.104   1.152  0.1026  1.2925  2.1977
   58MOL   H16220796   0.247   5.273   1.141 -0.0697  0.4803 -0.1770
   58MOL   H16320797   0.143   5.152   1.052  0.2835  1.1396 -0.2273
   58MOL   C16420798   0.383   5.224   0.452 -0.7133 -0.0949 -0.7591
   58MOL   C16520799   0.422   5.081   0.406 -0.6025  0.2001  0.3067
   58MOL   C16620800   0.295   5.008   0.348  0.1468  0.4735  0.4444
   58MOL   C16720801   0.238   5.052   0.210  0.9961 -0.9214 -0.0762
   58MOL   C16820802   0.097   5.016   0.179  0.0519  0.2896 -0.1409
   58MOL   C16920803   0.068   4.963   0.032  0.2031 -0.5990 -0.0028
   58MOL   H17020804   0.355   5.288   0.369 -1.9350  0.2802 -0.0725
   58MOL   H17120805   0.478   5.265   0.486 -0.9659 -0.8170  0.8671
   58MOL   H17220806   0.454   5.027   0.495 -1.7557  0.6310  0.9957
   58MOL   H17320807   0.220   5.017   0.426  1.1473  1.6462  1.2896
   58MOL   H17420808   0.315   4.902   0.334  1.7533  1.0162 -1.6215
   58MOL   H17520809   0.299   5.004   0.134  1.4520 -2.7720  1.3939
   58MOL   H17620810   0.252   5.159   0.198 -0.8993 -0.3907  1.9575
   58MOL   H17720811   0.039   5.106   0.197 -1.1021 -0.8595  2.0887
   58MOL   H17820812   0.065   4.948   0.258  0.8969  1.8057  1.5642
   58MOL   H17920813   0.124   4.872   0.012  0.1056 -0.6022 -0.2576
   58MOL   H18020814   0.091   5.042   7.688 -1.7330  1.9790  2.1087
   58MOL   H18120815   7.688   4.943   0.021 -0.3199  2.5464 -1.2709
   58MOL   C18220816   0.540   5.094   0.305 -0.3518 -0.2847 -0.1472
   58MOL   C18320817   0.614   4.967   0.258  0.0163  0.1992  0.1959
   58MOL   C18420818   0.709   4.930   0.375 -0.0211  0.6268 -0.0702
   58MOL   C18520819   0.701   4.776   0.421  0.2332 -0.7919  0.0900
   58MOL   C18620820   0.783   4.683   0.319 -0.3063 -0.0004  0.1204
   58MOL   C18720821   0.762   4.546   0.369  0.5209 -0.7891  0.2387
   58MOL   H18820822   0.510   5.157   0.222 -0.3724 -0.5888 -0.3725
   58MOL   H18920823   0.612   5.160   0.354 -0.0757 -1.9816  1.7840
   58MOL   H19020824   0.534   4.895   0.245  1.2166 -1.1767  0.2801
   58MOL   H19120825   0.808   4.969   0.350  1.3341 -3.0850 -0.8871
   58MOL   H19220826   0.692   4.990   0.464 -1.1885 -2.2636  1.7215
   58MOL   H19320827   0.599   4.744   0.441  1.0892 -2.1447  2.4030
   58MOL   H19420828   0.763   4.779   0.510  0.0832  5.2254  0.1880
   58MOL   H19520829   0.887   4.712   0.332 -0.6903  0.2051  3.0746
   58MOL   H19620830   0.744   4.689   0.217 -1.6235 -0.9272  0.5541
   58MOL   H19720831   0.800   4.463   0.310  1.7539 -0.4931  0.6046
   58MOL   H19820832   0.658   4.537   0.400  0.4873 -0.1136  0.3330
   58MOL   H19920833   0.807   4.545   0.468 -0.7082  1.8401  0.8740
   58MOL   C20020834   0.690   4.985   0.127 -0.4717 -0.4181 -0.8629
   58MOL   C20120835   0.605   4.995   0.004  0.2241  0.1626 -0.6307
   58MOL   C20220836   0.678   5.075   7.626  0.8194  0.2996  0.1952
   58MOL   C20320837   0.822   5.031   7.586  0.4526  0.1349  0.3576
   58MOL   C20420838   0.887   5.103   7.469  0.7037  0.4425  0.3969
   58MOL   C20520839   1.026   5.037   7.432 -0.9708  0.1894  0.0241
   58MOL   H20620840   0.761   4.903   0.122 -0.9433 -0.8387 -0.7054
   58MOL   H20720841   0.747   5.078   0.136 -1.8858  0.3135  0.7820
   58MOL   H20820842   0.512   5.048   0.027 -0.1554 -1.3162  1.3010
   58MOL   H20920843   0.692   5.179   7.658  1.1986  1.1674 -2.6924
   58MOL   H21020844   0.613   5.072   7.539 -0.3690  0.5473  1.0624
   58MOL   H21120845   0.811   4.930   7.547  0.6363  0.5758 -0.8303
   58MOL   H21220846   0.890   5.040   7.671 -0.3116  0.2117  0.9672
   58MOL   H21320847   0.909   5.207   7.491 -0.3164  0.6938  0.2253
   58MOL   H21420848   0.822   5.101   7.382  0.5568  1.1480  0.4861
   58MOL   H21520849   1.094   5.101   7.374 -0.7622  0.9722  1.1204
   58MOL   H21620850   1.062   5.012   7.531  2.1788  2.1290 -0.5565
   58MOL   H21720851   1.006   4.942   7.383 -1.4508  0.2409  0.1121
   58MOL   C21820852   0.566   4.850   7.681  0.6039  0.3221  0.4984
   58MOL   C21920853   0.505   4.828   7.543  0.3014 -0.1029 -0.6762
   58MOL   C22020854   0.371   4.901   7.516  0.4840  0.1290  0.5037
   58MOL   C22120855   0.318   4.876   7.374  0.0029 -0.3241  0.2165
   58MOL   C22220856   0.217   4.978   7.318  1.1971 -0.0012  0.3298
   58MOL   C22320857   0.289   5.102   7.280 -0.0234  0.3651 -0.3426
   58MOL   H22420858   0.660   4.795   7.685  0.0057 -0.9004 -1.3775
   58MOL   H22520859   0.505   4.800   0.029  1.1898 -0.2811  0.5845
   58MOL   H22620860   0.585   4.868   7.480  1.9298 -0.2723  1.2533
   58MOL   H22720861   0.376   5.005   7.548  2.9506 -0.3445  1.7756
   58MOL   H22820862   0.298   4.874   7.593 -1.6256  0.8349 -1.2015
   58MOL   H22920863   0.273   4.778   7.361 -1.2135  0.2187  0.3176
   58MOL   H23020864   0.394   4.877   7.295 -0.8216  0.8043 -0.5894
   58MOL   H23120865   0.150   4.948   7.237  1.0411  1.6524 -0.1831
   58MOL   H23220866   0.159   5.005   7.406 -0.2321 -0.4427 -0.4657
   58MOL   H23320867   0.225   5.184   7.247  1.3443  0.7502 -2.1235
   58MOL   H23420868   0.363   5.087   7.202 -0.2265  0.2281 -0.5064
   58MOL   H23520869   0.340   5.140   7.369 -2.4685  0.2876  1.1188
   58MOL   C23620870   0.487   4.677   7.504  0.1414 -0.0636  0.4124
   58MOL   C23720871   0.599   4.580   7.549  0.6062  0.7495 -0.4262
   58MOL   C23820872   0.735   4.607   7.482 -0.1914  0.8007 -0.2997
   58MOL   C23920873   0.858   4.541   7.549 -0.4163  0.8578  0.2567
   58MOL   C24020874   0.918   4.629   7.665 -0.4438 -0.2157  0.8239
   58MOL   C24120875   1.013   4.557   0.027  0.0382  0.3944 -0.1436
   58MOL   H24220876   0.393   4.646   7.551 -0.6855  0.2038 -1.0364
   58MOL   H24320877   0.458   4.659   7.401  1.2060 -1.1321  0.2880
   58MOL   H24420878   0.617   4.575   7.656 -0.1939  0.9758 -0.2786
   58MOL   H24520879   0.736   4.584   7.375  0.2880 -0.6440  0.0028
   58MOL   H24620880   0.757   4.714   7.486  0.3556  0.9120 -3.9820
   58MOL   H24720881   0.939   4.531   7.476 -0.6380  1.6428 -0.1019
   58MOL   H24820882   0.827   4.446   7.593 -2.5151  1.7546  0.7885
   58MOL   H24920883   0.969   4.712   7.618 -0.8219 -1.6948 -2.3561
   58MOL   H25020884   0.844   4.673   0.005  0.2442 -1.7402  2.6434
   58MOL   H25120885   1.076   4.488   7.698  0.2684 -1.4503  2.2823
   58MOL   H25220886   1.068   4.636   0.079  0.9808 -1.1289  1.2477
   58MOL   H25320887   0.953   4.500   0.098  1.0735 -2.0980 -1.1940
   58MOL   C25420888   0.561   4.424   7.509 -0.7456 -0.7366 -0.3692
   58MOL   C25520889   0.437   4.364   7.586 -0.0728 -0.2322 -0.2669
   58MOL   C25620890   0.478   4.333   0.010  0.1217  0.3131  0.7720
   58MOL   C25720891   0.362   4.274   0.103 -0.6434 -0.1707  0.2095
   58MOL   C25820892   0.371   4.121   0.106  0.3717 -0.5703  0.1245
   58MOL   C25920893   0.279   4.037   0.205 -1.2306 -0.3365 -0.4477
   58MOL   H26020894   0.644   4.358   7.533 -1.9599 -1.6386  1.5228
   58MOL   H26120895   0.541   4.406   7.404  0.7752  0.2513 -0.8395
   58MOL   H26220896   0.359   4.441   7.579 -0.5328 -0.7180 -0.5268
   58MOL   H26320897   0.565   4.270   0.026 -1.1063 -1.4299  0.7762
   58MOL   H26420898   0.511   4.418   0.070 -0.1456 -0.2710  1.7640
   58MOL   H26520899   0.376   4.297   0.209 -0.6867 -2.1685  0.6685
   58MOL   H26620900   0.265   4.302   0.064  0.8753  2.9423 -1.5472
   58MOL   H26720901   0.471   4.101   0.145  0.0860 -0.4011  0.9584
   58MOL   H26820902   0.372   4.075   0.007 -0.9353 -0.9988  0.2946
   58MOL   H26920903   0.291   3.933   0.175  1.4430 -0.1187 -0.2890
   58MOL   H27020904   0.172   4.048   0.185 -1.5337 -1.9286  0.2343
   58MOL   H27120905   0.297   4.048   0.312  0.0897  0.2392 -0.7240
   58MOL   C27220906   0.373   4.244   7.516 -0.1423 -0.1523  0.2451
   58MOL   C27320907   0.320   4.263   7.369 -0.7103  0.6857 -0.0235
   58MOL   C27420908   0.211   4.379   7.358 -0.0843  0.5633  0.4855
   58MOL   C27520909   0.089   4.361   7.448  0.5581  0.0538  0.4867
   58MOL   C27620910   7.715   4.461   7.402  0.3962 -0.3545 -1.2586
   58MOL   C27720911   0.005   4.590   7.491 -0.4741 -0.3453 -0.4632
   58MOL   H27820912   0.454   4.172   7.513 -0.5673 -0.6262  0.1680
   58MOL   H27920913   0.291   4.196   7.569 -0.7756 -1.0014 -1.4529
   58MOL   H28020914   0.398   4.302   7.304 -0.7316  1.4023  0.3780
   58MOL   H28120915   0.185   4.387   7.253  1.9310 -2.5831 -0.3410
   58MOL   H28220916   0.256   4.475   7.382  2.0691 -0.1553 -0.4952
   58MOL   H28320917   0.129   4.384   7.546 -0.4422  1.7022  0.5135
   58MOL   H28420918   0.051   4.259   7.458  0.3621  0.0427 -0.3269
   58MOL   H28520919   7.708   4.480   7.295 -0.6571  0.3607 -1.0748
   58MOL   H28620920   7.613   4.434   7.428  0.7746 -0.8867 -0.3121
   58MOL   H28720921   0.102   4.638   7.475 -0.4405 -0.0062  0.6832
   58MOL   H28820922   7.659   4.670   7.487 -0.1310  0.0317  0.6200
   58MOL   H28920923   7.726   4.561   7.596 -0.6339  3.4658  0.6832
   58MOL   C29020924   0.269   4.132   7.308 -0.1879 -0.4341  0.8021
   58MOL   C29120925   0.381   4.047   7.240  0.4390  0.4643 -0.3093
   58MOL   C29220926   0.325   3.905   7.203 -0.5135 -0.4135  0.4694
   58MOL   C29320927   0.299   3.812   7.316 -0.7595  0.4618 -0.0304
   58MOL   C29420928   0.256   3.671   7.272  0.0767 -0.0002 -0.1314
   58MOL   C29520929   0.236   3.580   7.390 -0.3688  0.2297  0.3583
   58MOL   H29620930   0.207   4.156   7.222  2.0265  0.0507 -0.7017
   58MOL   H29720931   0.213   4.066   7.375 -0.8876 -1.3036 -0.6120
   58MOL   H29820932   0.463   4.028   7.310  0.7762  2.0494 -0.2733
   58MOL   H29920933   0.394   3.858   7.133 -0.4911  0.7666 -0.3036
   58MOL   H30020934   0.241   3.910   7.133 -0.5157 -1.1054  0.4184
   58MOL   H30120935   0.381   3.794   7.384 -1.4279  2.9598  1.4834
   58MOL   H30220936   0.224   3.854   7.383 -0.2794  2.1885 -0.5566
   58MOL   H30320937   0.326   3.624   7.203 -0.0953 -0.7300  0.1868
   58MOL   H30420938   0.172   3.684   7.204 -0.1525 -1.9373 -0.2431
   58MOL   H30520939   0.129   3.567   7.409 -0.6110 -1.1934 -1.9185
   58MOL   H30620940   0.283   3.607   7.485  1.7864 -0.2726 -0.5514
   58MOL   H30720941   0.295   3.493   7.364 -2.0422 -1.0868  0.8781
   58MOL   C30820942   0.441   4.121   7.114 -0.0510  0.4752  0.0268
   58MOL   C30920943   0.590   4.092   7.095  0.0556  0.2760  0.2736
   58MOL   C31020944   0.671   4.198   7.178 -0.1449  0.1850 -0.2813
   58MOL   C31120945   0.812   4.150   7.222  0.2838  0.6952 -0.2296
   58MOL   C31220946   0.865   4.244   7.327  0.4209  0.0697  0.6971
   58MOL   C31320947   1.018   4.247   7.330  0.5760  0.1420 -0.5278
   58MOL   H31420948   0.385   4.087   7.027  0.9491  0.5126 -0.6482
   58MOL   H31520949   0.430   4.230   7.121 -3.6467  0.1771 -0.0624
   58MOL   H31620950   0.610   3.994   7.138 -1.0768  0.2968  0.8567
   58MOL   H31720951   0.613   4.229   7.264 -1.1306 -0.5289 -0.6687
   58MOL   H31820952   0.677   4.294   7.126 -0.4961 -0.3036 -1.2479
   58MOL   H31920953   0.885   4.144   7.141 -0.3628 -0.4395 -0.7423
   58MOL   H32020954   0.803   4.048   7.260  3.7640  0.0888 -0.8520
   58MOL   H32120955   0.834   4.346   7.305  1.4284  0.3669  0.6493
   58MOL   H32220956   0.827   4.219   7.426  1.8976 -1.3034  0.9433
   58MOL   H32320957   1.069   4.283   7.241 -1.1583  2.8910 -0.4961
   58MOL   H32420958   1.064   4.155   7.367  2.6891  1.6375  0.7514
   58MOL   H32520959   1.035   4.317   7.412  0.6972 -0.6401  0.1203
   58MOL   C32620960   0.634   4.087   6.947  0.1370 -0.5794  0.0711
   58MOL   C32720961   0.620   3.942   6.886 -0.6877 -0.2411 -0.4679
   58MOL   C32820962   0.479   3.901   6.847 -0.0389 -0.4862 -0.2863
   58MOL   C32920963   0.465   3.753   6.795  0.3192  0.2310  0.0213
   58MOL   C33020964   0.322   3.726   6.752  0.4120  1.2116 -0.0264
   58MOL   C33120965   0.304   3.585   6.714  0.2049  0.1607  0.2835
   58MOL   H33220966   0.730   4.135   6.932 -0.5968  1.5955  1.9574
   58MOL   H33320967   0.571   4.158   6.893  0.9754 -1.2721 -1.8417
   58MOL   H33420968   0.646   3.868   6.962 -1.0125 -1.1808 -1.2612
   58MOL   H33520969   0.402   3.899   6.924 -0.0977 -0.5703 -0.3458
   58MOL   H33620970   0.438   3.978   6.782  3.4510  2.0997  0.4694
   58MOL   H33720971   0.501   3.679   6.865 -0.2962  1.1059  1.2918
   58MOL   H33820972   0.531   3.724   6.714 -0.3710  0.0349 -0.4758
   58MOL   H33920973   0.253   3.756   6.831  1.6833 -0.3250  1.7198
   58MOL   H34020974   0.300   3.787   6.665  0.9783 -3.0696 -3.3621
   58MOL   H34120975   0.376   3.557   6.638  1.8321 -1.2910  2.2941
   58MOL   H34220976   0.204   3.562   6.677 -0.5407 -0.2116  2.4177
   58MOL   H34320977   0.322   3.515   6.797  1.1567 -0.6713 -0.6113
   58MOL   C34420978   0.729   3.927   6.773 -0.1842 -0.1872 -0.1981
   58MOL   C34520979   0.868   3.880   6.825  0.4849 -0.0549 -0.3803
   58MOL   C34620980   0.978   3.872   6.714  0.2062  0.0458  0.1178
   58MOL   C34720981   1.112   3.822   6.769 -0.7665  0.1626  0.0027
   58MOL   C34820982   1.218   3.807   6.653  0.4053 -0.7312 -0.1873
   58MOL   C34920983   1.367   3.791   6.706 -0.0562  0.3597  0.6670
   58MOL   H35020984   0.708   3.846   6.703 -0.0818  0.0477 -0.5024
   58MOL   H35120985   0.733   4.021   6.719 -0.7145 -1.0964 -1.8724
   58MOL   H35220986   0.857   3.787   6.880 -1.9497  1.1486  1.2595
   58MOL   H35320987   0.944   3.808   6.632 -0.7126  0.1216  0.4286
   58MOL   H35420988   0.992   3.970   6.669 -2.0697  0.5646  0.4852
   58MOL   H35520989   1.154   3.899   6.834  0.5517 -2.2058  2.0516
   58MOL   H35620990   1.095   3.734   6.831 -2.4412 -0.8385 -1.8601
   58MOL   H35720991   1.205   3.728   6.579 -0.1133 -1.1755  0.3662
   58MOL   H35820992   1.217   3.904   6.604 -0.3237  0.5768  2.3086
   58MOL   H35920993   1.428   3.710   6.665 -0.6053 -0.5886  1.7142
   58MOL   H36020994   1.414   3.887   6.683  1.3949 -0.4379  0.2153
   58MOL   H36120995   1.371   3.769   6.812  0.1177 -0.6073  0.4592
   58MOL   H36220996   0.891   3.952   6.905  0.3456 -0.1987 -0.2111
   59MOL     C120997   5.269   5.554   6.732  0.0676 -0.0638  0.0165
   59MOL     C220998   5.183   5.478   6.835 -0.4190  0.1535 -0.1360
   59MOL     C320999   5.258   5.429   6.958  0.1255 -1.2414 -0.0264
   59MOL     C421000   5.174   5.363   7.064  0.1912  0.1946  0.3253
   59MOL     C521001   5.261   5.342   7.190  0.7732 -0.0470 -0.0109
   59MOL     C621002   5.210   5.234   7.284  0.3494  0.5628  0.1300
   59MOL     H721003   5.314   5.636   6.788  0.8309 -0.0086 -0.6751
   59MOL     H821004   5.350   5.498   6.684  0.7536  0.0573  1.0148
   59MOL     H921005   5.110   5.551   6.870  2.0979  1.0461  3.5085
   59MOL    H1021006   5.316   5.513   6.998  0.6673 -1.8627  0.4944
   59MOL    H1121007   5.332   5.356   6.926  0.0974 -0.4199 -2.0670
   59MOL    H1221008   5.135   5.271   7.020 -0.6414  0.3233  0.7880
   59MOL    H1321009   5.089   5.426   7.089  0.6521  0.3464  1.5480
   59MOL    H1421010   5.361   5.322   7.153 -0.1169  1.6126 -3.5402
   59MOL    H1521011   5.270   5.440   7.237  0.1082 -0.5467  1.2013
   59MOL    H1621012   5.162   5.158   7.222 -0.8981  2.1411 -0.8724
   59MOL    H1721013   5.119   5.258   7.340 -0.7104 -1.8522 -0.4801
   59MOL    H1821014   5.286   5.184   7.344  0.1574 -0.6990 -0.6603
   59MOL    H1921015   5.216   5.613   6.658  2.0045  1.2663 -0.3482
   59MOL    C2021016   5.117   5.367   6.748  0.5862  0.1941  0.2276
   59MOL    C2121017   5.011   5.410   6.651  0.1329  0.0925 -0.4904
   59MOL    C2221018   4.983   5.292   6.553 -0.7378 -0.0550 -0.8570
   59MOL    C2321019   4.915   5.171   6.605  0.0789 -0.3813  0.5341
   59MOL    C2421020   4.915   5.059   6.501 -0.1236 -0.2041  0.0649
   59MOL    C2521021   4.828   4.944   6.549 -0.3429 -0.1062 -0.1966
   59MOL    H2621022   5.063   5.303   6.817 -0.1642 -0.8481 -1.3271
   59MOL    H2721023   5.197   5.323   6.688  0.4274  1.6424 -1.0804
   59MOL    H2821024   5.042   5.498   6.594 -2.4753  0.0840 -1.9740
   59MOL    H2921025   5.074   5.243   6.519 -0.9710 -0.8386 -0.3667
   59MOL    H3021026   4.942   5.332   6.460  0.6370 -1.9450 -2.2937
   59MOL    H3121027   4.814   5.199   6.634 -0.1657  0.3842 -0.9837
   59MOL    H3221028   4.969   5.136   6.693  1.1615 -3.0877 -1.1585
   59MOL    H3321029   4.879   5.104   6.409  0.7992  0.8557  0.2089
   59MOL    H3421030   5.019   5.031   6.491  0.3499  0.9446  1.4830
   59MOL    H3521031   4.846   4.906   6.649 -0.8159 -2.1210 -0.8479
   59MOL    H3621032   4.725   4.974   6.568 -0.1815 -0.6220  1.6171
   59MOL    H3721033   4.820   4.864   6.475 -1.2767  0.0366 -0.2554
   59MOL    C3821034   4.892   5.475   6.726 -0.5815  0.8773 -0.0196
   59MOL    C3921035   4.774   5.516   6.634 -0.4369  0.0783 -0.3678
   59MOL    C4021036   4.634   5.493   6.693 -0.1214  0.0785 -0.3896
   59MOL    C4121037   4.599   5.591   6.814  0.2170  0.2321  0.3798
   59MOL    C4221038   4.460   5.593   6.863 -0.2225  0.3570 -0.4054
   59MOL    C4321039   4.400   5.694   6.966 -0.6163 -0.2060  0.2361
   59MOL    H4421040   4.929   5.553   6.793  1.6068 -0.6876  0.6507
   59MOL    H4521041   4.867   5.393   6.794 -0.3566 -0.1123 -1.1115
   59MOL    H4621042   4.770   5.451   6.546 -0.2384 -0.6234  0.1418
   59MOL    H4721043   4.550   5.501   6.624  0.6274  0.5444 -1.2432
   59MOL    H4821044   4.632   5.391   6.732  0.4762 -0.7184 -2.3955
   59MOL    H4921045   4.668   5.571   6.897  3.9788  1.9517 -2.1736
   59MOL    H5021046   4.628   5.692   6.785  0.2755  0.5396  1.4934
   59MOL    H5121047   4.400   5.601   6.772 -0.8729 -0.6350 -0.0665
   59MOL    H5221048   4.428   5.496   6.901 -0.0572  0.1923 -0.6928
   59MOL    H5321049   4.297   5.678   6.997 -1.0862 -0.3667 -1.3906
   59MOL    H5421050   4.421   5.794   6.928  0.8829 -0.1429  1.1847
   59MOL    H5521051   4.463   5.682   7.054 -0.9557  0.0763  0.5171
   59MOL    C5621052   4.795   5.664   6.576  0.2394 -0.8289 -0.1837
   59MOL    C5721053   4.680   5.715   6.480  0.2468 -0.1996  0.1348
   59MOL    C5821054   4.699   5.651   6.344 -0.4260  0.1526  0.3667
   59MOL    C5921055   4.581   5.648   6.242  0.5714 -0.6563  0.0917
   59MOL    C6021056   4.620   5.586   6.109 -0.2466 -0.2752  0.0414
   59MOL    C6121057   4.510   5.587   5.999  0.3644 -0.2148 -0.2083
   59MOL    H6221058   4.797   5.726   6.665 -0.6288 -0.6197 -0.3118
   59MOL    H6321059   4.894   5.672   6.531  0.2672 -3.5955 -0.7559
   59MOL    H6421060   4.579   5.696   6.517  2.0356 -2.8398  4.0194
   59MOL    H6521061   4.795   5.686   6.307  1.2567 -1.4784  2.9895
   59MOL    H6621062   4.718   5.545   6.365  0.7615  0.2086 -0.4003
   59MOL    H6721063   4.539   5.747   6.222 -0.4931 -1.3447 -1.1244
   59MOL    H6821064   4.507   5.589   6.295  0.5434 -0.5814  0.1360
   59MOL    H6921065   4.711   5.639   6.080 -1.3156  1.0224 -1.0212
   59MOL    H7021066   4.652   5.482   6.121  1.6052  0.3438  0.6937
   59MOL    H7121067   4.475   5.689   5.983  0.7014  0.0866  0.9486
   59MOL    H7221068   4.557   5.557   5.905 -0.8454  0.7680 -1.1592
   59MOL    H7321069   4.426   5.519   6.018  1.1084 -1.4418 -1.2296
   59MOL    C7421070   4.676   5.861   6.469  0.1942  1.1229 -0.0087
   59MOL    C7521071   4.607   5.939   6.589 -0.2909  0.3793 -0.1126
   59MOL    C7621072   4.712   6.049   6.650 -0.0306 -0.4515  0.8908
   59MOL    C7721073   4.758   6.149   6.546 -0.3226  0.0015  0.0744
   59MOL    C7821074   4.898   6.203   6.569  0.4305 -0.1200  0.7719
   59MOL    C7921075   4.959   6.276   6.451 -0.3303  0.2868  0.1057
   59MOL    H8021076   4.780   5.891   6.470 -0.1810  2.6936 -2.9043
   59MOL    H8121077   4.631   5.896   6.375 -2.1803  0.4032  0.8287
   59MOL    H8221078   4.586   5.872   6.672  0.8547  2.5968  2.0493
   59MOL    H8321079   4.659   6.112   6.721  0.3273  2.1134 -0.9923
   59MOL    H8421080   4.796   5.999   6.697 -0.5203 -0.8829  1.2994
   59MOL    H8521081   4.751   6.113   6.444 -1.4851  0.1776  0.0858
   59MOL    H8621082   4.686   6.231   6.549  0.3555  0.6529 -0.8698
   59MOL    H8721083   4.969   6.122   6.586  0.3615 -0.0426  1.4343
   59MOL    H8821084   4.904   6.265   6.658 -0.1207 -0.7975  1.2823
   59MOL    H8921085   4.940   6.221   6.358  1.1767 -0.6511  0.3394
   59MOL    H9021086   4.917   6.375   6.432  2.3298  1.2985 -0.7829
   59MOL    H9121087   5.067   6.294   6.458 -0.0043 -1.2066 -0.8309
   59MOL    C9221088   4.483   6.019   6.543  0.5152 -0.5134  0.1548
   59MOL    C9321089   4.372   5.951   6.458 -0.0514 -0.2191 -0.1643
   59MOL    C9421090   4.305   5.832   6.537  0.7210 -0.1999 -0.7947
   59MOL    C9521091   4.244   5.720   6.455  0.1662  0.4746 -0.0877
   59MOL    C9621092   4.143   5.622   6.524  0.8418  0.5924 -0.0667
   59MOL    C9721093   4.103   5.508   6.422 -0.1453  0.5346 -0.1527
   59MOL    H9821094   4.438   6.069   6.629 -0.1029 -0.8275  0.0139
   59MOL    H9921095   4.516   6.094   6.471  0.4144 -1.0406 -0.4460
   59MOL   H10021096   4.409   5.902   6.369 -0.4877  1.1562 -1.1209
   59MOL   H10121097   4.229   5.880   6.599  0.3996 -1.3119 -0.3030
   59MOL   H10221098   4.374   5.797   6.614 -0.6093 -0.1230  0.4497
   59MOL   H10321099   4.186   5.761   6.372 -1.1426  1.8085  1.4331
   59MOL   H10421100   4.325   5.660   6.413 -1.4343 -1.0271 -1.0928
   59MOL   H10521101   4.193   5.582   6.612  2.7899 -0.0536 -1.4174
   59MOL   H10621102   4.049   5.669   6.553 -0.0471  1.6605 -4.2291
   59MOL   H10721103   4.196   5.453   6.403 -0.2953  0.5468 -0.9267
   59MOL   H10821104   4.025   5.445   6.466 -1.7704  1.0372 -2.2407
   59MOL   H10921105   4.060   5.544   6.328  2.4444  2.2548 -0.7317
   59MOL   C11021106   4.268   6.055   6.424  0.4573 -0.0883 -0.4995
   59MOL   C11121107   4.279   6.140   6.296 -0.0126  0.4614 -0.1121
   59MOL   C11221108   4.181   6.253   6.294  0.6430  0.2799  0.4999
   59MOL   C11321109   4.218   6.375   6.201 -0.0995 -0.5132  0.5861
   59MOL   C11421110   4.151   6.513   6.239  0.0716  1.0643 -0.1694
   59MOL   C11521111   4.201   6.629   6.150 -0.3549 -0.5328 -0.5449
   59MOL   H11621112   4.167   6.014   6.430 -0.0034  1.1520  0.5108
   59MOL   H11721113   4.272   6.123   6.509  1.8094 -1.6512  0.7196
   59MOL   H11821114   4.378   6.185   6.292 -0.0475  0.6748  1.0514
   59MOL   H11921115   4.182   6.299   6.393 -1.8900  2.2014 -0.2920
   59MOL   H12021116   4.083   6.216   6.264  0.4711  2.5661 -2.0624
   59MOL   H12121117   4.203   6.347   6.097  4.6917 -2.8150  0.3869
   59MOL   H12221118   4.323   6.405   6.211  0.2129 -1.7451  1.0254
   59MOL   H12321119   4.169   6.532   6.345 -1.8994  0.5595  0.2884
   59MOL   H12421120   4.043   6.500   6.226  0.1280  3.2873 -3.3731
   59MOL   H12521121   4.173   6.616   6.046 -0.4539 -1.8188 -0.3562
   59MOL   H12621122   4.175   6.724   6.197 -0.6744 -0.5167 -0.7595
   59MOL   H12721123   4.310   6.635   6.151 -0.3266 -1.1717 -0.1926
   59MOL   C12821124   4.264   6.053   6.175  0.0395 -0.1373 -0.0226
   59MOL   C12921125   4.372   6.083   6.068  0.3767 -0.0624  0.4157
   59MOL   C13021126   4.337   6.022   5.927 -0.1454 -0.7714  0.6407
   59MOL   C13121127   4.206   6.073   5.864 -1.1893 -0.2317  0.1877
   59MOL   C13221128   4.182   6.009   5.726  0.0610  0.3136 -0.6652
   59MOL   C13321129   4.044   6.029   5.658  0.3734 -0.1860  0.1715
   59MOL   H13421130   4.163   6.051   6.134  0.0476  0.1569 -0.0535
   59MOL   H13521131   4.290   5.953   6.209 -1.2589 -0.1696  0.9390
   59MOL   H13621132   4.367   6.191   6.052  1.2784 -0.1266 -0.2964
   59MOL   H13721133   4.417   6.058   5.862 -0.1813 -1.6502  0.0985
   59MOL   H13821134   4.348   5.914   5.918  1.0858 -0.4741 -1.9419
   59MOL   H13921135   4.208   6.182   5.858 -2.1664 -0.1099  1.6479
   59MOL   H14021136   4.124   6.057   5.933 -0.6313 -3.5348  0.1450
   59MOL   H14121137   4.260   6.055   5.665  0.5781  2.3344  1.4310
   59MOL   H14221138   4.210   5.903   5.727 -1.6352 -0.1423 -0.2467
   59MOL   H14321139   4.037   6.000   5.554 -0.2256 -2.5623  0.8542
   59MOL   H14421140   4.015   6.134   5.655 -0.9161 -0.5183  0.7286
   59MOL   H14521141   3.966   5.971   5.706  0.6506 -1.7843 -1.2857
   59MOL   C14621142   4.512   6.041   6.109  0.6042 -0.4094 -0.2329
   59MOL   C14721143   4.631   6.112   6.047 -0.0391 -0.5157 -0.1235
   59MOL   C14821144   4.760   6.059   6.096 -0.0092  0.0184 -0.7427
   59MOL   C14921145   4.811   5.934   6.012 -0.2435  0.7764 -0.1938
   59MOL   C15021146   4.942   5.876   6.068 -0.4937  0.6141  0.5066
   59MOL   C15121147   4.994   5.769   5.977  0.8644  0.1163  0.5305
   59MOL   H15221148   4.530   6.051   6.216 -0.1982  1.6676 -0.2657
   59MOL   H15321149   4.512   5.934   6.088  2.7875 -0.0904 -2.0669
   59MOL   H15421150   4.622   6.095   5.939 -2.6670 -0.3625  0.0232
   59MOL   H15521151   4.764   6.027   6.200  0.8266  0.4763 -0.6282
   59MOL   H15621152   4.837   6.135   6.084 -0.7931  1.3825  2.5441
   59MOL   H15721153   4.734   5.857   6.021 -0.2500  0.6543 -1.2428
   59MOL   H15821154   4.827   5.967   5.910  1.8994  1.3041  0.2903
   59MOL   H15921155   4.915   5.839   6.167 -0.0049 -0.8071  0.1296
   59MOL   H16021156   5.023   5.947   6.083 -1.5761  1.8115  0.7214
   59MOL   H16121157   4.914   5.701   5.948  1.3497 -0.0311 -0.4647
   59MOL   H16221158   5.051   5.807   5.893  2.1813 -0.1670  1.2752
   59MOL   H16321159   5.063   5.701   6.027  0.8439  0.1656  0.6262
   59MOL   C16421160   4.628   6.265   6.077  0.2067  0.6962  0.8492
   59MOL   C16521161   4.696   6.341   5.957 -0.0846 -1.0804 -0.1260
   59MOL   C16621162   4.605   6.354   5.833  0.7057  0.0283  0.3958
   59MOL   C16721163   4.467   6.426   5.854  0.2791 -0.7271  0.0750
   59MOL   C16821164   4.402   6.469   5.720 -0.5806  0.4127  0.2737
   59MOL   C16921165   4.254   6.513   5.744 -0.5447  1.1685 -0.9208
   59MOL   H17021166   4.530   6.312   6.091  0.2811  1.2050 -0.2943
   59MOL   H17121167   4.674   6.285   6.174 -0.1665  1.8387  0.7969
   59MOL   H17221168   4.783   6.280   5.935  0.5820 -0.5014  0.8542
   59MOL   H17321169   4.582   6.254   5.796 -0.7860 -0.1473  1.7175
   59MOL   H17421170   4.656   6.404   5.751 -2.7382  0.9475 -1.2807
   59MOL   H17521171   4.487   6.515   5.912  0.4990 -0.8855  0.2450
   59MOL   H17621172   4.403   6.362   5.915  1.7512  0.2634  2.7311
   59MOL   H17721173   4.408   6.381   5.655  0.1936 -1.1608  2.3992
   59MOL   H17821174   4.461   6.546   5.671 -0.7422 -0.8900 -2.0332
   59MOL   H17921175   4.195   6.441   5.801  1.8862 -0.0216  0.1709
   59MOL   H18021176   4.215   6.520   5.643  0.8822 -0.6460 -1.6299
   59MOL   H18121177   4.257   6.614   5.785 -0.2920 -0.4432  3.3295
   59MOL   C18221178   4.745   6.478   6.010 -0.8115 -0.0715  0.4504
   59MOL   C18321179   4.888   6.467   6.073  0.8926 -0.1518 -0.0563
   59MOL   C18421180   4.887   6.559   6.190  0.5815  0.1550  1.2562
   59MOL   C18521181   4.900   6.711   6.151 -0.0142 -0.6544 -0.4964
   59MOL   C18621182   4.917   6.806   6.268 -0.5215  0.0501  0.0406
   59MOL   C18721183   4.944   6.951   6.223  0.4843 -0.5245  0.1007
   59MOL   H18821184   4.754   6.557   5.935 -1.1516 -0.6438 -0.2008
   59MOL   H18921185   4.667   6.501   6.082 -0.8352 -0.2403  0.4785
   59MOL   H19021186   4.897   6.370   6.122 -0.0834 -0.5031 -0.5466
   59MOL   H19121187   4.809   6.545   6.264  0.7327  0.8288  1.5498
   59MOL   H19221188   4.977   6.535   6.248 -0.4741 -2.7223  1.7471
   59MOL   H19321189   4.807   6.723   6.095 -0.2248  0.5258  0.0960
   59MOL   H19421190   4.985   6.737   6.088 -0.7879  0.5685 -1.0629
   59MOL   H19521191   5.005   6.772   6.322 -0.7829 -1.5740 -0.5053
   59MOL   H19621192   4.836   6.802   6.341 -1.6421 -1.1572 -1.2464
   59MOL   H19721193   4.855   6.982   6.169 -0.2385  0.0741  1.6030
   59MOL   H19821194   5.031   6.963   6.159  0.8078  1.5188  0.8747
   59MOL   H19921195   4.967   7.010   6.312  3.4050 -1.2197 -0.1254
   59MOL   C20021196   4.996   6.486   5.969  0.0958  0.2075  0.2536
   59MOL   C20121197   5.143   6.454   6.017 -0.0933  0.4854  0.0550
   59MOL   C20221198   5.181   6.302   6.030 -0.2060  0.1670 -0.1179
   59MOL   C20321199   5.226   6.270   6.172  0.6898  0.5230 -0.1791
   59MOL   C20421200   5.284   6.134   6.177  0.2388  0.2974  0.1306
   59MOL   C20521201   5.288   6.059   6.313  0.5411  0.2856  0.2627
   59MOL   H20621202   4.985   6.585   5.926 -1.0697 -0.8576 -1.9469
   59MOL   H20721203   4.969   6.415   5.891  0.2033  0.3637  0.0759
   59MOL   H20821204   5.150   6.498   6.117  0.0466 -0.0409  0.2761
   59MOL   H20921205   5.265   6.284   5.963  0.4614  1.6372  0.2964
   59MOL   H21021206   5.107   6.234   5.988  0.6633 -1.3539  0.7368
   59MOL   H21121207   5.129   6.280   6.220  1.3078  1.0357  0.9954
   59MOL   H21221208   5.301   6.342   6.205  0.9798  0.3332 -0.4205
   59MOL   H21321209   5.387   6.141   6.144 -0.0251 -0.8838 -0.9799
   59MOL   H21421210   5.227   6.072   6.107  2.8744 -3.1453  0.9111
   59MOL   H21521211   5.191   6.032   6.355  1.3907 -1.2843  1.2784
   59MOL   H21621212   5.339   5.963   6.304 -0.4047 -0.3997  1.9522
   59MOL   H21721213   5.338   6.118   6.390  1.4201 -2.0288  1.5147
   59MOL   C21821214   5.245   6.535   5.937  0.9770  0.6414 -0.0489
   59MOL   C21921215   5.393   6.541   5.995 -0.5369 -0.2222  0.4375
   59MOL   C22021216   5.405   6.616   6.130  0.2560  0.3787  0.1105
   59MOL   C22121217   5.385   6.768   6.125  0.5839  0.2129 -0.2029
   59MOL   C22221218   5.423   6.848   6.249 -0.1824  0.0325  0.2254
   59MOL   C22321219   5.564   6.826   6.305 -0.2219  0.2260 -0.3332
   59MOL   H22421220   5.255   6.484   5.841 -1.4001  1.2875 -0.6744
   59MOL   H22521221   5.205   6.634   5.915  0.2398  0.6300  1.2099
   59MOL   H22621222   5.427   6.439   6.013  1.9130  0.5639  0.4872
   59MOL   H22721223   5.506   6.600   6.170 -0.1225  1.0231  1.3492
   59MOL   H22821224   5.333   6.579   6.203 -1.6558  2.6106 -0.6123
   59MOL   H22921225   5.276   6.775   6.118  0.6571  1.3952 -0.3636
   59MOL   H23021226   5.430   6.818   6.039  0.1213  1.4475  0.2548
   59MOL   H23121227   5.415   6.954   6.228  3.5505  0.3670  0.2482
   59MOL   H23221228   5.361   6.833   6.338  0.1625  2.1125  0.8247
   59MOL   H23321229   5.570   6.864   6.407 -0.2303  1.2433 -0.7106
   59MOL   H23421230   5.640   6.878   6.247  0.8316  0.2958  1.0833
   59MOL   H23521231   5.585   6.720   6.319 -2.0082  0.0653  1.4738
   59MOL   C23621232   5.494   6.591   5.885 -1.1341  0.0558  0.6672
   59MOL   C23721233   5.644   6.566   5.921 -0.7133 -0.1678  0.1825
   59MOL   C23821234   5.722   6.695   5.973 -0.0132 -0.0473  0.3076
   59MOL   C23921235   5.853   6.659   6.051 -1.0451 -0.1374 -0.3047
   59MOL   C24021236   5.944   6.778   6.092  0.6447  0.7626  0.3691
   59MOL   C24121237   6.090   6.743   6.134  0.4316 -0.4842 -0.3505
   59MOL   H24221238   5.472   6.522   5.804  1.0196 -0.1392  0.2203
   59MOL   H24321239   5.484   6.691   5.843 -0.7240 -0.3331 -0.3631
   59MOL   H24421240   5.638   6.499   6.006  1.7370 -0.4466  0.1572
   59MOL   H24521241   5.749   6.764   5.893  2.3723  2.7313  3.4028
   59MOL   H24621242   5.658   6.744   6.047 -1.4723  0.0848 -1.0074
   59MOL   H24721243   5.926   6.599   5.996 -1.4472 -0.5056 -0.4447
   59MOL   H24821244   5.831   6.612   6.147  2.2110 -1.4390 -0.1316
   59MOL   H24921245   5.941   6.845   6.006  0.7812  1.1518  0.6662
   59MOL   H25021246   5.887   6.834   6.166 -0.0328 -0.8106  1.0360
   59MOL   H25121247   6.092   6.668   6.214  0.5551  2.9942  3.0784
   59MOL   H25221248   6.155   6.708   6.054  1.8680 -2.2072  1.5039
   59MOL   H25321249   6.154   6.822   6.173  0.8377 -0.0340 -1.8875
   59MOL   C25421250   5.730   6.500   5.816  0.0617  0.4395  0.4862
   59MOL   C25521251   5.770   6.568   5.683 -0.3000  0.3816  0.8899
   59MOL   C25621252   5.655   6.570   5.568 -0.2545 -0.1932 -0.1667
   59MOL   C25721253   5.700   6.652   5.439 -0.7843 -0.5031 -0.4199
   59MOL   C25821254   5.582   6.692   5.346 -0.1246 -0.2446  0.3412
   59MOL   C25921255   5.614   6.765   5.213 -0.8248  0.1094 -0.4614
   59MOL   H26021256   5.680   6.404   5.802 -0.2200  0.8361 -1.3581
   59MOL   H26121257   5.819   6.482   5.875  1.0640  0.7730 -0.9085
   59MOL   H26221258   5.799   6.672   5.694  0.0387  0.3550  0.2414
   59MOL   H26321259   5.624   6.467   5.549 -1.2335 -0.0185  0.4271
   59MOL   H26421260   5.567   6.612   5.617  0.3403  1.8798 -0.8528
   59MOL   H26521261   5.744   6.743   5.480  0.7593 -0.9563 -1.0465
   59MOL   H26621262   5.766   6.598   5.371  0.5393  0.0058  0.4397
   59MOL   H26721263   5.511   6.740   5.414 -0.1637 -0.6362  0.5785
   59MOL   H26821264   5.526   6.609   5.300 -0.7066 -0.4162  1.3512
   59MOL   H26921265   5.666   6.857   5.242 -2.3139  0.8271  0.0149
   59MOL   H27021266   5.520   6.804   5.174 -0.7891  2.3147  1.5118
   59MOL   H27121267   5.671   6.720   5.132  0.5112  1.8999 -0.5507
   59MOL   C27221268   5.897   6.501   5.624  0.5553  0.2072 -0.9085
   59MOL   C27321269   6.028   6.513   5.714  0.5018 -0.4795 -0.2105
   59MOL   C27421270   6.080   6.653   5.725 -0.2924  0.0287  0.3379
   59MOL   C27521271   6.103   6.722   5.580 -0.0339  0.0561  0.0274
   59MOL   C27621272   6.161   6.863   5.594 -0.1998  0.1080 -0.7518
   59MOL   C27721273   6.069   6.965   5.674  0.5124  0.6925 -0.1513
   59MOL   H27821274   5.874   6.395   5.620  0.7325  0.1603 -0.6724
   59MOL   H27921275   5.924   6.534   5.523 -0.5971 -0.7474 -1.5398
   59MOL   H28021276   6.014   6.479   5.817  2.6681  0.8426  0.5509
   59MOL   H28121277   6.181   6.659   5.767 -0.5391 -2.0187  1.2476
   59MOL   H28221278   6.025   6.717   5.794  2.2097  0.3227  2.1232
   59MOL   H28321279   6.004   6.733   5.537 -0.0709 -1.7584 -0.3847
   59MOL   H28421280   6.163   6.652   5.521 -1.2302 -0.1427 -0.9672
   59MOL   H28521281   6.259   6.850   5.640 -1.2405  0.8375  1.7685
   59MOL   H28621282   6.176   6.889   5.490  0.0220 -0.7964 -0.9508
   59MOL   H28721283   5.973   6.964   5.621 -0.1185 -0.0743  0.9818
   59MOL   H28821284   6.054   6.938   5.778  2.0165  0.2051 -0.0565
   59MOL   H28921285   6.107   7.067   5.676  0.2760  0.7770  0.0141
   59MOL   C29021286   6.137   6.415   5.673  0.4900 -0.2986 -0.2260
   59MOL   C29121287   6.161   6.293   5.755  0.1122 -0.3674 -0.6095
   59MOL   C29221288   6.199   6.327   5.907 -0.1483  0.4069 -0.7415
   59MOL   C29321289   6.311   6.431   5.922  0.0246 -0.1751  0.3894
   59MOL   C29421290   6.383   6.421   6.061  0.2293 -0.8457 -0.0421
   59MOL   C29521291   6.479   6.546   6.076  0.1524 -0.0599 -0.1519
   59MOL   H29621292   6.230   6.470   5.682  0.5493 -0.8725  3.5916
   59MOL   H29721293   6.136   6.393   5.566  1.5973 -2.6496  0.2232
   59MOL   H29821294   6.247   6.244   5.710  2.7289  1.8505  1.7845
   59MOL   H29921295   6.245   6.240   5.954 -0.8053  0.8366  0.7229
   59MOL   H30021296   6.113   6.352   5.969  0.1097 -1.7558  0.5506
   59MOL   H30121297   6.378   6.407   5.839 -1.1200  1.3457 -1.0182
   59MOL   H30221298   6.271   6.531   5.903 -0.6860 -0.5340 -0.0017
   59MOL   H30321299   6.413   6.323   6.097  0.3691 -0.4875  0.8197
   59MOL   H30421300   6.299   6.428   6.130  0.4018 -1.5249  0.2371
   59MOL   H30521301   6.414   6.631   6.097  0.3358 -0.0507  0.3944
   59MOL   H30621302   6.531   6.567   5.983  0.7169 -0.4735  0.0701
   59MOL   H30721303   6.548   6.546   6.161 -0.9067  0.3395  0.7242
   59MOL   C30821304   6.046   6.200   5.736  0.4239 -0.1358 -0.0033
   59MOL   C30921305   6.047   6.069   5.816  0.2061  1.0897 -0.7638
   59MOL   C31021306   6.182   5.995   5.804  0.0806 -0.5261  0.0003
   59MOL   C31121307   6.211   5.884   5.910 -0.0845  0.7791 -0.2421
   59MOL   C31221308   6.343   5.796   5.896 -0.3484 -0.3629 -0.2345
   59MOL   C31321309   6.472   5.881   5.904 -0.5822 -0.2164 -0.6016
   59MOL   H31421310   5.957   6.261   5.751  0.7447  0.4975 -0.5876
   59MOL   H31521311   6.045   6.180   5.629 -1.5913 -2.0811  0.3509
   59MOL   H31621312   6.040   6.101   5.920 -0.7408 -2.0486  0.1908
   59MOL   H31721313   6.272   6.056   5.792  1.0729 -1.7498  0.9987
   59MOL   H31821314   6.176   5.946   5.707 -1.0908 -1.6586  0.6209
   59MOL   H31921315   6.125   5.820   5.932 -0.4918  1.5336  0.3567
   59MOL   H32021316   6.222   5.944   6.000  1.3876 -2.2982  1.7133
   59MOL   H32121317   6.352   5.722   5.975 -2.4560  0.3543  0.7030
   59MOL   H32221318   6.342   5.748   5.798  1.2643  0.9147 -0.9152
   59MOL   H32321319   6.500   5.932   5.812 -0.7087 -1.6782 -1.4616
   59MOL   H32421320   6.551   5.813   5.935  1.7473  2.1988 -1.0546
   59MOL   H32521321   6.469   5.953   5.987  1.0119 -0.9941  0.1471
   59MOL   C32621322   5.926   5.972   5.788 -0.2583 -0.1536  0.5002
   59MOL   C32721323   5.787   6.023   5.832  1.2777  0.0288  0.2033
   59MOL   C32821324   5.682   5.943   5.751  0.1522 -0.5431 -0.3945
   59MOL   C32921325   5.641   6.009   5.624  0.6323 -0.1855 -0.0280
   59MOL   C33021326   5.519   5.930   5.571  0.1438  0.7847  0.1095
   59MOL   C33121327   5.457   5.997   5.444 -0.0810 -0.0782 -0.2307
   59MOL   H33221328   5.940   5.880   5.844  0.8750 -0.8590 -0.9159
   59MOL   H33321329   5.933   5.943   5.683 -0.6054 -1.9278  0.9647
   59MOL   H33421330   5.784   6.122   5.786  1.4844  0.1562  0.4665
   59MOL   H33521331   5.709   5.838   5.740 -0.3385 -0.8888  1.6097
   59MOL   H33621332   5.598   5.955   5.818  0.7759 -1.3134  0.5346
   59MOL   H33721333   5.724   6.011   5.554  1.3931  1.5402  0.8749
   59MOL   H33821334   5.606   6.112   5.638  1.2434 -0.2659  2.2419
   59MOL   H33921335   5.549   5.829   5.546  0.7710  1.4834 -2.0763
   59MOL   H34021336   5.443   5.928   5.650 -0.8611  0.2685 -0.8451
   59MOL   H34121337   5.439   6.103   5.462  1.1543  0.0393  0.3943
   59MOL   H34221338   5.364   5.949   5.418 -0.7221 -0.3066  2.3185
   59MOL   H34321339   5.534   6.000   5.367 -0.3470  0.4868 -0.4799
   59MOL   C34421340   5.772   6.034   5.987 -0.6120  0.4688 -0.6001
   59MOL   C34521341   5.701   6.163   6.027 -0.4632  0.5782  0.3892
   59MOL   C34621342   5.665   6.166   6.178 -0.6542  0.8814  0.6205
   59MOL   C34721343   5.637   6.302   6.244 -0.2277  0.1811  0.4514
   59MOL   C34821344   5.598   6.295   6.398  0.1514  0.6300 -0.5016
   59MOL   C34921345   5.623   6.441   6.460  0.0839 -0.0554 -0.1428
   59MOL   H35021346   5.708   5.959   6.032 -0.3093  0.5500 -0.0255
   59MOL   H35121347   5.870   6.034   6.034 -0.2502 -1.6282 -1.3022
   59MOL   H35221348   5.612   6.180   5.968 -0.2324 -0.1555 -0.1671
   59MOL   H35321349   5.582   6.096   6.189 -0.2520  0.5627  1.7660
   59MOL   H35421350   5.748   6.118   6.231 -0.8848 -0.0865  0.1127
   59MOL   H35521351   5.728   6.359   6.224 -0.1017 -1.0547 -2.7917
   59MOL   H35621352   5.557   6.352   6.189 -0.3576  0.5557  0.9814
   59MOL   H35721353   5.498   6.257   6.419  0.1653  2.2933  2.9348
   59MOL   H35821354   5.664   6.219   6.440 -2.4174 -2.0563 -1.1424
   59MOL   H35921355   5.626   6.444   6.569  1.3300 -1.0758 -0.1392
   59MOL   H36021356   5.706   6.493   6.412  2.0413 -1.2645  1.8056
   59MOL   H36121357   5.537   6.505   6.441 -0.3449 -0.4659  0.3949
   59MOL   H36221358   5.765   6.243   5.989 -1.9827  2.6885  2.1848
   60MOL     C121359   3.409   3.981   1.598 -0.6604  0.1822 -0.1923
   60MOL     C221360   3.359   4.018   1.737  0.2823  0.1207  0.1630
   60MOL     C321361   3.300   3.903   1.825  0.3615  0.7736  0.0358
   60MOL     C421362   3.411   3.809   1.872  0.1898 -0.4585 -0.2690
   60MOL     C521363   3.365   3.699   1.964 -0.1307  0.0337  0.2202
   60MOL     C621364   3.473   3.626   2.038 -0.3581  0.5873 -1.3406
   60MOL     H721365   3.325   3.941   1.542  0.9821 -1.3970 -1.5879
   60MOL     H821366   3.461   4.062   1.547  2.4587 -1.3329  0.4461
   60MOL     H921367   3.448   4.057   1.787  1.2629 -1.6529 -0.1242
   60MOL    H1021368   3.227   3.843   1.771 -0.1128  3.0826 -1.9465
   60MOL    H1121369   3.253   3.946   1.914  1.5595  1.2258  0.4517
   60MOL    H1221370   3.458   3.877   1.942  0.7434  0.6872 -1.7279
   60MOL    H1321371   3.477   3.772   1.793  0.1610  0.5178 -0.7560
   60MOL    H1421372   3.303   3.743   2.042 -0.9078  1.0901 -0.9679
   60MOL    H1521373   3.298   3.632   1.909  0.0321  2.1598 -2.6756
   60MOL    H1621374   3.543   3.683   2.099  2.5338 -2.1750 -1.9518
   60MOL    H1721375   3.535   3.575   1.964 -1.3932  0.3466 -2.0600
   60MOL    H1821376   3.436   3.545   2.100 -0.3417  1.6808  0.1287
   60MOL    H1921377   3.475   3.895   1.613  0.5857  1.5506  2.5302
   60MOL    C2021378   3.249   4.130   1.713 -0.0384  0.2512  0.1584
   60MOL    C2121379   3.259   4.245   1.812  0.4180  0.7232 -0.6156
   60MOL    C2221380   3.339   4.363   1.756 -0.8898  0.5398  0.4235
   60MOL    C2321381   3.498   4.343   1.776 -0.2901  0.0552 -0.2272
   60MOL    C2421382   3.558   4.382   1.908 -0.1388 -0.6356 -0.7488
   60MOL    C2521383   3.704   4.343   1.938  0.4225 -0.7706 -0.1179
   60MOL    H2621384   3.154   4.079   1.729 -2.1501  4.5376  2.2077
   60MOL    H2721385   3.252   4.166   1.610 -0.4988 -1.5599 -0.5092
   60MOL    H2821386   3.309   4.214   1.904  0.7697 -0.1566 -1.1005
   60MOL    H2921387   3.318   4.462   1.796  0.0793  1.8960 -2.3252
   60MOL    H3021388   3.333   4.370   1.648  0.6458  0.2911  0.3024
   60MOL    H3121389   3.541   4.401   1.695  2.5697 -1.5862  0.0536
   60MOL    H3221390   3.531   4.242   1.754 -0.7939 -0.5690  1.7248
   60MOL    H3321391   3.558   4.491   1.900 -0.2390 -0.5796 -0.0262
   60MOL    H3421392   3.480   4.358   1.980  0.3437  0.1567  0.0500
   60MOL    H3521393   3.720   4.239   1.968 -3.1489 -2.0251 -2.2838
   60MOL    H3621394   3.770   4.368   1.856 -0.7683  0.0421 -0.8383
   60MOL    H3721395   3.726   4.399   2.029 -2.3693 -0.4836  0.4410
   60MOL    C3821396   3.121   4.296   1.852 -0.0523 -0.5028  0.1309
   60MOL    C3921397   3.117   4.394   1.969  0.1293 -0.0034 -0.7845
   60MOL    C4021398   3.004   4.503   1.946 -0.9542  0.0850  0.1313
   60MOL    C4121399   2.858   4.444   1.928  0.3137 -0.5251  0.3115
   60MOL    C4221400   2.749   4.554   1.932 -0.1628 -0.6444  0.0568
   60MOL    C4321401   2.615   4.499   1.964 -0.5152 -0.0364 -0.0476
   60MOL    H4421402   3.059   4.210   1.876  1.6058 -2.0782 -1.1088
   60MOL    H4521403   3.081   4.341   1.760 -0.1983  0.8325  0.8327
   60MOL    H4621404   3.201   4.463   1.972 -0.5418  0.7472  1.7892
   60MOL    H4721405   3.002   4.568   2.034  0.9810 -0.2858  0.4653
   60MOL    H4821406   3.033   4.571   1.866  1.0214 -0.2693  0.5338
   60MOL    H4921407   2.849   4.389   1.834  1.6252 -0.1885 -0.0211
   60MOL    H5021408   2.850   4.381   2.016 -0.7928  0.4518  0.9145
   60MOL    H5121409   2.785   4.633   1.998  0.2229 -0.8861  0.1340
   60MOL    H5221410   2.757   4.609   1.838 -0.6127  1.7641  1.3819
   60MOL    H5321411   2.629   4.433   2.049  1.7438  2.0812  1.3051
   60MOL    H5421412   2.585   4.444   1.874  0.0514 -1.9222  0.8989
   60MOL    H5521413   2.539   4.573   1.989 -2.1234 -1.5856 -0.2843
   60MOL    C5621414   3.129   4.320   2.109  0.2729  0.2351 -0.5265
   60MOL    C5721415   3.103   4.411   2.233  0.5507  0.2596  0.0128
   60MOL    C5821416   2.954   4.438   2.268  0.0442  0.2530 -0.8332
   60MOL    C5921417   2.918   4.477   2.413 -0.9205 -0.1809 -0.3738
   60MOL    C6021418   2.815   4.390   2.482 -0.3344 -0.1301  0.4028
   60MOL    C6121419   2.783   4.436   2.625 -0.0836  0.0169 -0.0525
   60MOL    H6221420   3.064   4.232   2.113 -0.1244  0.6230  2.4825
   60MOL    H6321421   3.227   4.277   2.129  1.1709  1.7589 -1.5740
   60MOL    H6421422   3.135   4.347   2.315  1.8720  0.1812 -0.5500
   60MOL    H6521423   2.917   4.525   2.214  1.8362  0.1679 -2.2113
   60MOL    H6621424   2.900   4.345   2.253 -1.8927  1.3405 -0.8243
   60MOL    H6721425   2.881   4.579   2.408  0.2979  0.2124 -2.0780
   60MOL    H6821426   3.009   4.479   2.473 -0.8550  0.2412 -0.4814
   60MOL    H6921427   2.732   4.396   2.412  1.2907  2.2493 -1.3852
   60MOL    H7021428   2.841   4.284   2.490 -0.4870 -0.1815  0.2308
   60MOL    H7121429   2.866   4.439   2.696  0.0250  1.9724 -0.2208
   60MOL    H7221430   2.739   4.536   2.623  0.5304  0.2774 -0.6084
   60MOL    H7321431   2.704   4.376   2.669 -0.0746  1.1289  1.5413
   60MOL    C7421432   3.190   4.538   2.253 -0.3967 -0.3705  0.7649
   60MOL    C7521433   3.342   4.517   2.250 -0.2297 -1.1025  0.5700
   60MOL    C7621434   3.419   4.652   2.205 -0.1717  0.0158 -0.0368
   60MOL    C7721435   3.382   4.697   2.063  0.0715  0.3324  0.1385
   60MOL    C7821436   3.453   4.833   2.017 -0.5846  0.2998 -0.6141
   60MOL    C7921437   3.607   4.837   2.020 -0.8212  0.2731  0.0858
   60MOL    H8021438   3.157   4.616   2.184 -0.0923  0.9516  2.0692
   60MOL    H8121439   3.159   4.584   2.347 -0.4656 -0.0827  0.6019
   60MOL    H8221440   3.369   4.441   2.177 -2.4689 -0.6098 -0.8392
   60MOL    H8321441   3.402   4.732   2.277  1.5542 -1.1348  1.7250
   60MOL    H8421442   3.524   4.623   2.219 -0.2588 -0.7520 -0.9462
   60MOL    H8521443   3.408   4.625   1.986 -1.4090  1.4304 -1.4136
   60MOL    H8621444   3.275   4.715   2.057 -0.1156 -0.2526  1.5027
   60MOL    H8721445   3.422   4.911   2.087  1.1966  0.8798 -0.4495
   60MOL    H8821446   3.403   4.874   1.930 -0.5381 -1.2436 -1.3898
   60MOL    H8921447   3.640   4.818   2.122 -1.6597 -2.0305 -0.0426
   60MOL    H9021448   3.639   4.761   1.948 -1.9593 -0.7648  0.6582
   60MOL    H9121449   3.648   4.929   1.977  0.0622 -0.7510 -1.3011
   60MOL    C9221450   3.393   4.474   2.392  0.3117  0.0261  0.6850
   60MOL    C9321451   3.496   4.356   2.401  0.0028  0.0648 -0.2326
   60MOL    C9421452   3.431   4.225   2.350  0.4059 -0.2648  0.1273
   60MOL    C9521453   3.515   4.105   2.381 -0.4213 -0.0177 -0.2455
   60MOL    C9621454   3.440   3.968   2.385 -0.2491 -0.3588 -0.2061
   60MOL    C9721455   3.530   3.851   2.420 -0.2681  0.3666  0.4684
   60MOL    H9821456   3.426   4.555   2.457 -2.4012  0.9761  0.9392
   60MOL    H9921457   3.306   4.454   2.455 -1.0753 -0.3613 -1.3306
   60MOL   H10021458   3.517   4.340   2.507 -0.5591 -1.0868 -0.2903
   60MOL   H10121459   3.420   4.227   2.242  0.7298 -0.2863  0.0915
   60MOL   H10221460   3.335   4.214   2.401  1.8339 -0.0325  2.9841
   60MOL   H10321461   3.612   4.099   2.333  0.9984 -1.0875  2.6480
   60MOL   H10421462   3.547   4.120   2.484  0.5826 -0.7173 -0.4510
   60MOL   H10521463   3.370   3.989   2.466  0.0397 -1.2797  0.2866
   60MOL   H10621464   3.388   3.944   2.293  0.7316 -0.7217 -0.6760
   60MOL   H10721465   3.616   3.840   2.354  1.6073  4.6132  2.0529
   60MOL   H10821466   3.588   3.871   2.511  0.0878  3.6985 -0.4158
   60MOL   H10921467   3.470   3.760   2.419  3.8407 -2.4900  0.3416
   60MOL   C11021468   3.629   4.395   2.330  0.2206 -0.6226  0.1256
   60MOL   C11121469   3.715   4.509   2.390 -0.2233 -0.5928 -0.0677
   60MOL   C11221470   3.796   4.578   2.278 -0.3692  0.1071  0.4356
   60MOL   C11321471   3.885   4.696   2.330 -0.6233  0.4724 -0.1716
   60MOL   C11421472   3.944   4.785   2.214 -0.3491  0.6747 -0.0628
   60MOL   C11521473   4.025   4.895   2.276 -0.2458 -0.2598 -0.4234
   60MOL   H11621474   3.696   4.310   2.317  0.0701 -0.4952 -1.7153
   60MOL   H11721475   3.602   4.412   2.225 -0.5928  0.4381  0.4980
   60MOL   H11821476   3.662   4.599   2.421  1.6103  0.3062  0.5509
   60MOL   H11921477   3.731   4.611   2.196  1.0697  0.6809 -0.4910
   60MOL   H12021478   3.864   4.511   2.225 -0.0553  0.3638  0.5171
   60MOL   H12121479   3.974   4.655   2.376 -0.8320 -1.0921 -1.1088
   60MOL   H12221480   3.832   4.752   2.407 -0.1481  1.3002 -0.4520
   60MOL   H12321481   3.865   4.822   2.148 -0.8496 -1.7932 -0.9194
   60MOL   H12421482   4.002   4.716   2.152  2.2200 -0.1590  3.1338
   60MOL   H12521483   4.091   4.867   2.358  0.8067  0.5511 -0.9833
   60MOL   H12621484   4.085   4.934   2.194  1.2271 -2.7341 -0.5850
   60MOL   H12721485   3.955   4.975   2.298  0.2580  1.0213 -3.2728
   60MOL   C12821486   3.802   4.464   2.510 -0.1741  0.4078  0.3938
   60MOL   C12921487   3.749   4.382   2.634  0.3173 -0.2103 -0.4545
   60MOL   C13021488   3.654   4.466   2.712  0.2390 -0.3060 -0.1791
   60MOL   C13121489   3.560   4.397   2.812 -0.3646  0.6062  0.0397
   60MOL   C13221490   3.490   4.496   2.898 -0.7127 -0.5093  0.1170
   60MOL   C13321491   3.379   4.572   2.832 -0.5356 -0.2014 -0.2866
   60MOL   H13421492   3.858   4.552   2.543  1.9504 -0.4155 -0.9389
   60MOL   H13521493   3.884   4.404   2.469  0.5550  1.7838 -0.2061
   60MOL   H13621494   3.690   4.295   2.606 -2.7811  1.6534  0.0826
   60MOL   H13721495   3.723   4.531   2.766 -1.8937  1.8078  0.1135
   60MOL   H13821496   3.603   4.536   2.645  1.5120  2.4117  1.5732
   60MOL   H13921497   3.622   4.328   2.869 -1.3200  1.2673  1.8967
   60MOL   H14021498   3.495   4.330   2.756  1.5052  0.9490 -2.6698
   60MOL   H14121499   3.446   4.448   2.986 -0.4611  0.0303  0.5403
   60MOL   H14221500   3.566   4.565   2.936 -2.9100  2.1042 -0.0621
   60MOL   H14321501   3.288   4.514   2.816  0.1981 -1.8422  1.3886
   60MOL   H14421502   3.413   4.607   2.734 -0.4124  1.2468  0.2646
   60MOL   H14521503   3.358   4.661   2.892  2.0154 -0.4776  1.0798
   60MOL   C14621504   3.870   4.333   2.715 -0.5084  0.5295 -1.1503
   60MOL   C14721505   3.973   4.226   2.658  0.0987 -0.3515  0.1473
   60MOL   C14821506   3.919   4.083   2.652 -0.9420 -0.5175 -0.4356
   60MOL   C14921507   4.007   3.989   2.565  0.3104  0.3838  0.4475
   60MOL   C15021508   3.924   3.869   2.506 -0.2476 -0.4311 -0.7306
   60MOL   C15121509   4.019   3.763   2.444 -0.5431  0.1734 -0.1037
   60MOL   H15221510   3.926   4.422   2.743 -1.5356  0.2845  1.8821
   60MOL   H15321511   3.848   4.297   2.816  4.8764  2.0628  0.7874
   60MOL   H15421512   4.006   4.257   2.559 -0.8344 -0.3265 -0.1565
   60MOL   H15521513   3.824   4.099   2.601 -0.5587  2.3814 -0.3124
   60MOL   H15621514   3.896   4.040   2.750 -0.3470  0.8638  0.3144
   60MOL   H15721515   4.066   4.032   2.485 -2.9068  0.9214 -1.7371
   60MOL   H15821516   4.080   3.944   2.632  0.8815  0.0817 -0.3745
   60MOL   H15921517   3.848   3.899   2.433 -2.0957 -0.8366  0.9833
   60MOL   H16021518   3.871   3.830   2.593  1.7089  2.1846  1.7436
   60MOL   H16121519   4.030   3.780   2.337  0.4678 -0.2947 -0.0786
   60MOL   H16221520   4.121   3.768   2.482 -0.3161  2.2454 -0.9307
   60MOL   H16321521   3.972   3.665   2.459  1.3056 -0.4771  1.6772
   60MOL   C16421522   4.099   4.231   2.738 -0.0892  0.1248  0.2498
   60MOL   C16521523   4.182   4.364   2.717  0.2976 -0.1349 -0.7400
   60MOL   C16621524   4.178   4.459   2.837  0.1074 -0.8379 -0.6140
   60MOL   C16721525   4.215   4.607   2.809  0.0476 -0.4175  0.1370
   60MOL   C16821526   4.111   4.687   2.715 -0.4162  0.3430  0.2754
   60MOL   C16921527   4.176   4.792   2.631 -0.4160 -0.1248  0.2613
   60MOL   H17021528   4.086   4.213   2.845 -0.3981  2.0822  0.5644
   60MOL   H17121529   4.167   4.154   2.702 -0.1492  0.7348 -1.2089
   60MOL   H17221530   4.144   4.416   2.630  0.5978 -0.3208 -0.9837
   60MOL   H17321531   4.254   4.426   2.909  0.4927 -0.4669 -0.8510
   60MOL   H17421532   4.085   4.458   2.893  0.5921  1.2273  0.2532
   60MOL   H17521533   4.312   4.610   2.759  0.0504 -1.6617  0.0593
   60MOL   H17621534   4.222   4.657   2.906 -1.7859  1.8632 -0.8459
   60MOL   H17721535   4.053   4.739   2.791 -0.2671  1.2301 -0.2184
   60MOL   H17821536   4.038   4.628   2.660  0.3008  1.5667 -2.0095
   60MOL   H17921537   4.254   4.746   2.570 -1.6220 -0.1154 -1.3111
   60MOL   H18021538   4.235   4.867   2.684 -0.2648 -0.4131  0.5012
   60MOL   H18121539   4.096   4.839   2.574  0.5162  0.2703 -0.7434
   60MOL   C18221540   4.322   4.315   2.680  0.3724 -0.3052  0.5274
   60MOL   C18321541   4.339   4.269   2.525 -0.0191 -1.2056  0.1405
   60MOL   C18421542   4.479   4.203   2.498  0.2735  0.5704  0.3123
   60MOL   C18521543   4.496   4.065   2.560  0.0151 -0.1098  0.1305
   60MOL   C18621544   4.397   3.949   2.524 -0.2977 -0.1446 -0.6193
   60MOL   C18721545   4.443   3.807   2.569 -0.0360  0.9511 -0.0071
   60MOL   H18821546   4.383   4.401   2.706  0.1976 -0.1173  0.3118
   60MOL   H18921547   4.360   4.236   2.745 -0.3265 -0.2970  0.9534
   60MOL   H19021548   4.262   4.196   2.501  1.1320 -1.2619 -3.6266
   60MOL   H19121549   4.486   4.180   2.391 -0.8785  0.4179  0.2616
   60MOL   H19221550   4.567   4.263   2.520  0.4441  0.4244  0.0283
   60MOL   H19321551   4.489   4.076   2.668  1.8189 -0.8760  0.3476
   60MOL   H19421552   4.595   4.021   2.545 -0.2637 -0.1674 -1.6896
   60MOL   H19521553   4.386   3.934   2.416  0.3331 -1.8237 -0.4578
   60MOL   H19621554   4.298   3.959   2.568 -0.3766 -1.0796 -0.5942
   60MOL   H19721555   4.551   3.802   2.584  0.3938  2.6591 -2.2919
   60MOL   H19821556   4.387   3.736   2.508  2.1998  1.4633 -2.7187
   60MOL   H19921557   4.399   3.796   2.669  1.4327  2.6815  0.8433
   60MOL   C20021558   4.329   4.400   2.433  0.0955  0.1107  0.1079
   60MOL   C20121559   4.284   4.376   2.289 -0.7378 -0.6118 -0.0251
   60MOL   C20221560   4.134   4.353   2.274  0.6113 -0.2922  0.4417
   60MOL   C20321561   4.102   4.285   2.133 -0.4473 -0.7366  0.7052
   60MOL   C20421562   3.959   4.225   2.128 -0.1884  0.1342  0.1035
   60MOL   C20521563   3.919   4.107   2.219 -0.6853  0.2008 -0.4561
   60MOL   H20621564   4.430   4.440   2.438  1.1239 -2.5192  2.2791
   60MOL   H20721565   4.263   4.481   2.463  0.2888  0.7160 -1.1013
   60MOL   H20821566   4.331   4.288   2.246  1.0971  0.0591  0.5740
   60MOL   H20921567   4.085   4.450   2.271  2.9803  0.9039 -0.2537
   60MOL   H21021568   4.101   4.282   2.351 -1.3065 -1.3542 -1.2943
   60MOL   H21121569   4.173   4.207   2.105 -1.3196 -0.8954 -1.1023
   60MOL   H21221570   4.125   4.358   2.055  1.0694 -1.0075  0.8872
   60MOL   H21321571   3.953   4.188   2.026 -0.6289 -0.0893  0.2075
   60MOL   H21421572   3.889   4.307   2.141 -0.5179 -0.0703 -0.3693
   60MOL   H21521573   3.880   4.137   2.316 -0.4779  0.1549 -0.3591
   60MOL   H21621574   3.838   4.049   2.177  0.8735 -1.3233 -1.4321
   60MOL   H21721575   4.005   4.041   2.233 -0.7486 -0.1332 -1.6219
   60MOL   C21821576   4.332   4.494   2.197  0.4654 -0.6169  0.0411
   60MOL   C21921577   4.430   4.458   2.090  0.3074  0.9529  0.6701
   60MOL   C22021578   4.558   4.393   2.141  0.0096 -0.0589 -0.7584
   60MOL   C22121579   4.651   4.491   2.211  0.9822 -0.3882  0.2664
   60MOL   C22221580   4.795   4.432   2.239 -0.4823 -0.2301 -0.5492
   60MOL   C22321581   4.875   4.529   2.325 -0.0996  0.1419 -0.6511
   60MOL   H22421582   4.254   4.549   2.144  2.1406  1.9192  0.1250
   60MOL   H22521583   4.366   4.577   2.259 -1.0180 -0.3604  0.5347
   60MOL   H22621584   4.376   4.376   2.042 -0.6471  1.4211  0.9176
   60MOL   H22721585   4.621   4.352   2.062  1.6003 -1.0678  0.9885
   60MOL   H22821586   4.540   4.303   2.200  1.7553 -2.7915 -4.1584
   60MOL   H22921587   4.596   4.520   2.301  1.7410  0.6736  0.3921
   60MOL   H23021588   4.683   4.577   2.153 -0.3241  0.3708  0.6569
   60MOL   H23121589   4.787   4.331   2.280 -1.3117 -0.2073 -0.6477
   60MOL   H23221590   4.848   4.412   2.147  0.1849 -0.3778 -0.1355
   60MOL   H23321591   4.887   4.613   2.257  0.3547 -0.1274 -0.9089
   60MOL   H23421592   4.978   4.498   2.341  0.3255  1.8709  0.0881
   60MOL   H23521593   4.825   4.575   2.410  0.2754  0.9166 -0.8482
   60MOL   C23621594   4.459   4.572   1.992  0.1717 -0.4546  0.2660
   60MOL   C23721595   4.349   4.598   1.889 -0.2918 -0.0021  0.2004
   60MOL   C23821596   4.333   4.486   1.775 -0.1213  0.5180  0.1170
   60MOL   C23921597   4.190   4.481   1.714  0.2780 -0.2891 -0.0967
   60MOL   C24021598   4.186   4.371   1.606 -0.5586 -0.0359 -0.5718
   60MOL   C24121599   4.044   4.364   1.533  0.0512  0.1168 -0.5438
   60MOL   H24221600   4.467   4.661   2.055  1.3098 -0.8341  0.6855
   60MOL   H24321601   4.550   4.554   1.935 -0.3699 -0.4567 -0.6004
   60MOL   H24421602   4.253   4.602   1.940 -0.9053  0.9515 -0.9953
   60MOL   H24521603   4.405   4.512   1.698 -0.4160 -0.0107 -0.3397
   60MOL   H24621604   4.362   4.390   1.818 -0.9267  0.2654  0.1085
   60MOL   H24721605   4.161   4.571   1.660 -4.3120 -1.2437  0.5499
   60MOL   H24821606   4.114   4.461   1.790 -1.6095 -0.1869 -1.9450
   60MOL   H24921607   4.266   4.407   1.541 -1.4736 -0.6316 -2.0759
   60MOL   H25021608   4.220   4.276   1.646  0.0718  0.1824 -0.5766
   60MOL   H25121609   4.049   4.315   1.436  1.6632  0.1864 -0.5194
   60MOL   H25221610   3.969   4.317   1.596  0.1264 -1.9439 -1.9340
   60MOL   H25321611   4.007   4.462   1.505  1.2853  0.1800 -1.9970
   60MOL   C25421612   4.362   4.732   1.819 -0.1695  0.0635 -0.1828
   60MOL   C25521613   4.310   4.856   1.898  0.0998  0.6569 -0.3228
   60MOL   C25621614   4.158   4.876   1.901 -0.0115  0.3072  0.4444
   60MOL   C25721615   4.092   4.910   1.767 -0.0781  0.6651  0.2348
   60MOL   C25821616   3.946   4.867   1.758 -0.0102 -0.6286  0.6777
   60MOL   C25921617   3.909   4.717   1.752 -0.3885 -0.3176 -0.1379
   60MOL   H26021618   4.322   4.734   1.718 -1.3277  2.6518  0.2704
   60MOL   H26121619   4.471   4.741   1.813  0.1427 -1.8280  2.0147
   60MOL   H26221620   4.338   4.836   2.002  0.1567  3.2900  0.2244
   60MOL   H26321621   4.120   4.778   1.931  0.4049 -0.1860 -0.6393
   60MOL   H26421622   4.119   4.953   1.968  0.9192 -2.3032  4.1733
   60MOL   H26521623   4.093   5.015   1.737 -1.4697 -0.2564 -3.2975
   60MOL   H26621624   4.147   4.862   1.686 -0.6501  1.8421 -0.8640
   60MOL   H26721625   3.904   4.923   1.675  0.3654 -0.7843  0.3863
   60MOL   H26821626   3.894   4.914   1.842 -1.4485 -0.8651 -0.0529
   60MOL   H26921627   3.986   4.664   1.696 -0.4757 -1.1641  0.5375
   60MOL   H27021628   3.810   4.699   1.712 -0.2506  0.6320 -0.9138
   60MOL   H27121629   3.904   4.672   1.851 -1.2337  0.2677  0.0946
   60MOL   C27221630   4.392   4.987   1.866 -0.2454  0.1726 -0.2674
   60MOL   C27321631   4.503   5.015   1.975 -0.4270 -0.7645 -0.1581
   60MOL   C27421632   4.438   5.081   2.104  0.0300 -0.8838  0.1075
   60MOL   C27521633   4.491   5.029   2.247 -0.6281 -1.4002  0.7401
   60MOL   C27621634   4.497   4.878   2.263 -0.0919  0.7251 -0.3953
   60MOL   C27721635   4.535   4.858   2.414  0.4744  0.2584 -0.1320
   60MOL   H27821636   4.433   4.972   1.766 -0.9063  1.1299 -0.6879
   60MOL   H27921637   4.316   5.065   1.857 -0.8673 -0.3088  0.7550
   60MOL   H28021638   4.549   4.917   1.981 -0.4988 -0.7368  0.9992
   60MOL   H28121639   4.333   5.049   2.102 -0.2935 -0.1019  3.1217
   60MOL   H28221640   4.430   5.189   2.095  2.9955 -0.6618 -0.4150
   60MOL   H28321641   4.416   5.064   2.318  0.0413 -1.8267  1.6618
   60MOL   H28421642   4.577   5.086   2.282 -0.7539 -1.9572  1.9722
   60MOL   H28521643   4.404   4.825   2.243  0.0830 -0.1153  0.9108
   60MOL   H28621644   4.577   4.832   2.204 -0.8324 -0.5711 -0.4098
   60MOL   H28721645   4.622   4.921   2.433 -0.0103  1.1244 -0.7148
   60MOL   H28821646   4.458   4.901   2.479 -0.6688 -2.5437  0.4197
   60MOL   H28921647   4.555   4.758   2.453 -1.0842  0.1523  0.4464
   60MOL   C29021648   4.609   5.112   1.927  0.0874 -1.1044 -0.6337
   60MOL   C29121649   4.737   5.120   2.001  0.2188 -0.7734 -0.8030
   60MOL   C29221650   4.823   4.991   1.988  0.7717 -1.0477  0.3838
   60MOL   C29321651   4.930   4.977   2.101  0.5495  0.1719 -0.6804
   60MOL   C29421652   4.867   4.953   2.237 -0.5770  0.0166  0.4573
   60MOL   C29521653   4.983   4.924   2.338 -0.3823  0.7300  0.3576
   60MOL   H29621654   4.571   5.213   1.912 -1.2150 -1.3149  1.1311
   60MOL   H29721655   4.650   5.101   1.826 -0.1029  2.4141 -1.1443
   60MOL   H29821656   4.697   5.131   2.102  1.0660  1.0768 -0.6502
   60MOL   H29921657   4.866   4.999   1.888  0.3929 -2.2217  0.1279
   60MOL   H30021658   4.762   4.901   1.984 -0.3798 -0.3763  2.4422
   60MOL   H30121659   4.993   4.893   2.073  2.2461 -0.0255  3.4909
   60MOL   H30221660   5.001   5.059   2.095  1.1355 -0.2833  0.0604
   60MOL   H30321661   4.788   4.878   2.241  0.0738 -0.6153  2.0796
   60MOL   H30421662   4.808   5.041   2.265 -1.4682 -0.4083 -0.0573
   60MOL   H30521663   5.043   5.014   2.329  3.0558 -1.3987  1.0042
   60MOL   H30621664   5.035   4.831   2.312  0.9116  1.4033  0.4622
   60MOL   H30721665   4.960   4.924   2.444 -0.4314 -1.7103  0.3900
   60MOL   C30821666   4.815   5.247   1.973  0.4914  0.1176  0.8243
   60MOL   C30921667   4.752   5.381   2.026 -0.6478 -0.3898 -0.8535
   60MOL   C31021668   4.842   5.498   1.974 -0.4306  1.1458  0.7128
   60MOL   C31121669   4.829   5.517   1.820 -0.6463  0.2115 -0.1549
   60MOL   C31221670   4.929   5.633   1.776 -0.0023  0.1639 -0.5575
   60MOL   C31321671   4.936   5.659   1.623 -0.2415  0.2743 -0.3866
   60MOL   H31421672   4.911   5.243   2.024  1.5522 -0.7292 -1.1808
   60MOL   H31521673   4.840   5.244   1.867  0.1223 -0.9361  0.7640
   60MOL   H31621674   4.650   5.396   1.989 -1.3751  1.5297  1.7316
   60MOL   H31721675   4.943   5.488   2.012 -0.7414  0.6435  1.4124
   60MOL   H31821676   4.794   5.591   2.003  0.6777  2.1156 -0.5065
   60MOL   H31921677   4.729   5.538   1.781 -1.1662 -1.5324  0.2142
   60MOL   H32021678   4.868   5.431   1.766  1.9795  0.3984  1.3821
   60MOL   H32121679   4.906   5.724   1.832  1.5766  0.4082 -0.3009
   60MOL   H32221680   5.029   5.600   1.801 -0.1137 -1.3484 -2.0614
   60MOL   H32321681   4.847   5.712   1.587 -0.6958 -1.2042 -1.5231
   60MOL   H32421682   4.955   5.571   1.561 -0.1113 -1.2457  1.7821
   60MOL   H32521683   5.016   5.732   1.614 -0.2166  0.1636 -1.1260
   60MOL   C32621684   4.747   5.395   2.181  0.2623 -0.3695  0.7226
   60MOL   C32721685   4.610   5.431   2.245  0.3345 -0.4602 -0.9026
   60MOL   C32821686   4.611   5.397   2.397  0.1771  0.6371 -0.1692
   60MOL   C32921687   4.713   5.480   2.483 -0.4464 -0.4707 -0.8940
   60MOL   C33021688   4.773   5.404   2.601 -0.3811  0.4769 -0.3011
   60MOL   C33121689   4.885   5.475   2.678  0.9702 -0.5108 -0.6550
   60MOL   H33221690   4.829   5.455   2.220 -0.1454  0.7587 -0.1407
   60MOL   H33321691   4.786   5.302   2.222  1.3659  0.3967  1.4359
   60MOL   H33421692   4.537   5.367   2.196  0.2910  0.4342 -2.0276
   60MOL   H33521693   4.517   5.409   2.450  0.4668 -0.6264  0.6377
   60MOL   H33621694   4.634   5.292   2.413 -0.9705  0.6043  1.4128
   60MOL   H33721695   4.675   5.574   2.525 -0.1615 -0.3854 -0.8283
   60MOL   H33821696   4.790   5.516   2.415 -0.9072 -0.7190 -1.5520
   60MOL   H33921697   4.694   5.392   2.676 -0.4354 -2.0261 -0.7073
   60MOL   H34021698   4.812   5.308   2.568  2.6102  1.1410  1.1601
   60MOL   H34121699   4.989   5.468   2.644  1.1223 -1.7402  0.0620
   60MOL   H34221700   4.902   5.431   2.776  1.0367  1.9118  0.4758
   60MOL   H34321701   4.862   5.582   2.681  1.5256 -0.4099  0.1736
   60MOL   C34421702   4.577   5.579   2.212  0.4101  0.0536 -0.1610
   60MOL   C34521703   4.442   5.622   2.258 -0.1464  0.3233 -0.4243
   60MOL   C34621704   4.404   5.760   2.206 -0.8334  0.5009 -1.4068
   60MOL   C34721705   4.257   5.812   2.225 -0.0014 -0.2398  0.1125
   60MOL   C34821706   4.232   5.953   2.179  0.5264  0.0555  0.1993
   60MOL   C34921707   4.116   6.021   2.242 -0.2591  0.0442  0.3434
   60MOL   H35021708   4.653   5.640   2.261 -1.4869  2.1555  0.2453
   60MOL   H35121709   4.591   5.600   2.106 -1.4072  0.1154 -0.4022
   60MOL   H35221710   4.434   5.620   2.367  1.0651  1.2149 -0.3104
   60MOL   H35321711   4.464   5.832   2.261 -0.6269 -0.1798 -0.7345
   60MOL   H35421712   4.433   5.759   2.101  0.2496 -1.4377 -1.1127
   60MOL   H35521713   4.192   5.741   2.174  0.0004 -0.2695  0.1514
   60MOL   H35621714   4.248   5.805   2.333 -0.2294 -0.2642  0.0918
   60MOL   H35721715   4.324   6.008   2.200  0.1276  0.4254  1.0070
   60MOL   H35821716   4.215   5.964   2.072 -1.2089  1.0989  0.5505
   60MOL   H35921717   4.023   5.965   2.226 -0.2503 -0.8234  3.0193
   60MOL   H36021718   4.113   6.047   2.348 -0.1840  1.6606 -0.0450
   60MOL   H36121719   4.113   6.122   2.203 -0.3332 -0.3722 -0.7350
   60MOL   H36221720   4.369   5.554   2.214 -1.6355 -0.0451  2.4611
   61MOL     C121721   7.099   3.952   5.058 -0.2918 -0.4194 -0.9255
   61MOL     C221722   6.988   3.982   4.952  0.2995  0.6730 -0.3460
   61MOL     C321723   6.850   4.002   5.028  0.0523 -0.1713  0.2523
   61MOL     C421724   6.724   4.041   4.952 -0.1712 -0.0624 -0.6078
   61MOL     C521725   6.603   4.089   5.036 -0.0756 -0.4757  0.6882
   61MOL     C621726   6.481   4.128   4.959  0.1591 -0.1062 -0.1690
   61MOL     H721727   7.103   4.030   5.135  0.0078 -1.0385 -0.3152
   61MOL     H821728   7.075   3.856   5.102 -2.4331  1.2390  1.6784
   61MOL     H921729   7.014   4.075   4.901 -0.0388  1.8740  1.6343
   61MOL    H1021730   6.869   4.089   5.091  1.3386 -0.8053  0.7592
   61MOL    H1121731   6.831   3.909   5.083  2.5853 -0.5845  0.4964
   61MOL    H1221732   6.705   3.964   4.877  3.8800 -1.1592 -0.6562
   61MOL    H1321733   6.754   4.124   4.887 -1.2414  1.7185  1.1102
   61MOL    H1421734   6.578   4.002   5.096 -1.6867 -2.8825 -3.2680
   61MOL    H1521735   6.628   4.162   5.114  1.7073  0.5976 -0.8578
   61MOL    H1621736   6.418   4.046   4.925  0.2653  0.3699 -1.5391
   61MOL    H1721737   6.501   4.191   4.873 -0.1060  0.4735  0.1893
   61MOL    H1821738   6.424   4.194   5.025  0.2311  1.0004 -1.1998
   61MOL    H1921739   7.195   3.945   5.007  0.9526  0.9133  1.1622
   61MOL    C2021740   6.975   3.884   4.834 -0.4035 -0.4472  0.0134
   61MOL    C2121741   7.085   3.888   4.722 -0.5042 -1.0635 -0.3621
   61MOL    C2221742   7.138   3.753   4.693 -0.5190  0.2564 -0.5350
   61MOL    C2321743   7.232   3.711   4.812  0.7329  0.4759 -0.6010
   61MOL    C2421744   7.298   3.572   4.789  0.2771  0.0615 -0.4008
   61MOL    C2521745   7.401   3.554   4.888 -0.0960  0.6164  0.1656
   61MOL    H2621746   6.881   3.884   4.779 -0.6547  0.4189  0.4446
   61MOL    H2721747   6.967   3.783   4.875 -1.1591 -0.6496 -0.6130
   61MOL    H2821748   7.164   3.958   4.747 -0.1135 -1.8365  0.5918
   61MOL    H2921749   7.191   3.766   4.598 -0.1607  2.0356 -0.1003
   61MOL    H3021750   7.055   3.683   4.688 -0.9391  0.6365  0.8169
   61MOL    H3121751   7.189   3.708   4.912  0.3387  1.1641 -0.7422
   61MOL    H3221752   7.315   3.781   4.819  1.0463  0.1875 -1.2972
   61MOL    H3321753   7.224   3.492   4.794  1.1353 -0.6129  2.1851
   61MOL    H3421754   7.352   3.579   4.694 -0.8187 -2.7570 -1.3066
   61MOL    H3521755   7.409   3.445   4.894  0.8921  0.7123  0.7383
   61MOL    H3621756   7.500   3.588   4.858  0.2824 -0.4946  0.1307
   61MOL    H3721757   7.369   3.586   4.987 -0.1428 -0.5726  0.5484
   61MOL    C3821758   7.032   3.949   4.599  0.3253  0.5352 -0.1870
   61MOL    C3921759   6.975   4.091   4.601  0.2008  0.0646  0.1868
   61MOL    C4021760   7.079   4.199   4.644 -0.1649 -0.4221  0.0242
   61MOL    C4121761   7.197   4.214   4.555  0.1660 -0.0737  0.2400
   61MOL    C4221762   7.282   4.341   4.571 -0.3497 -0.1345  0.4030
   61MOL    C4321763   7.388   4.354   4.456  0.0397 -0.4320  0.6600
   61MOL    H4421764   6.963   3.875   4.558  1.2604 -0.2620 -0.3230
   61MOL    H4521765   7.120   3.950   4.535  0.3057 -1.4369 -0.2605
   61MOL    H4621766   6.906   4.106   4.685 -0.3478  1.1338 -0.4442
   61MOL    H4721767   7.021   4.291   4.652  1.8395  0.9454 -0.8118
   61MOL    H4821768   7.127   4.185   4.741 -0.9235  1.5169  0.7166
   61MOL    H4921769   7.252   4.122   4.578  1.5027  0.7392  0.3457
   61MOL    H5021770   7.153   4.226   4.456  2.4860 -0.5307 -0.8822
   61MOL    H5121771   7.219   4.430   4.574 -1.0892 -0.6480  0.4137
   61MOL    H5221772   7.324   4.334   4.671  0.5095  1.5414  0.1691
   61MOL    H5321773   7.463   4.427   4.487 -0.0128 -0.6266  1.2518
   61MOL    H5421774   7.342   4.381   4.361  0.5353  0.5386  0.6904
   61MOL    H5521775   7.443   4.260   4.448  1.1363  0.1075  1.7118
   61MOL    C5621776   6.908   4.121   4.469  0.0569  0.4361  0.1937
   61MOL    C5721777   6.765   4.057   4.455 -0.0265  0.3204  0.4803
   61MOL    C5821778   6.739   4.035   4.304 -0.0195  0.4279 -0.6572
   61MOL    C5921779   6.718   4.167   4.218 -0.3293  0.4955  0.4035
   61MOL    C6021780   6.668   4.142   4.076 -0.0666  0.0988  0.2591
   61MOL    C6121781   6.774   4.090   3.978  0.0376  0.8448 -0.4114
   61MOL    H6221782   6.897   4.229   4.456  2.1232  0.6634  0.1939
   61MOL    H6321783   6.972   4.081   4.390 -4.0265 -1.4931 -2.3117
   61MOL    H6421784   6.779   3.963   4.509 -1.0639 -0.3485 -0.3979
   61MOL    H6521785   6.820   3.979   4.257  0.3225  1.3115 -1.1376
   61MOL    H6621786   6.656   3.964   4.296 -0.0711  0.3078  0.8825
   61MOL    H6721787   6.812   4.222   4.218  0.8082 -1.3067 -2.7881
   61MOL    H6821788   6.645   4.237   4.258  0.4805  0.0449  2.7744
   61MOL    H6921789   6.577   4.082   4.078  0.5719 -0.8772  0.4174
   61MOL    H7021790   6.638   4.237   4.032  1.7227  0.1398 -0.9365
   61MOL    H7121791   6.725   4.091   3.880 -0.2159  0.9806 -0.2854
   61MOL    H7221792   6.862   4.153   3.968  1.9988 -2.0386 -2.0438
   61MOL    H7321793   6.804   3.989   4.004 -0.9087  0.4468 -0.8195
   61MOL    C7421794   6.644   4.122   4.532  0.4958  0.6491 -0.6120
   61MOL    C7521795   6.509   4.043   4.516 -0.3910  1.0001 -0.3020
   61MOL    C7621796   6.522   3.902   4.597  0.1438  0.0385 -0.4885
   61MOL    C7721797   6.426   3.788   4.559  0.8468  1.0181  0.7041
   61MOL    C7821798   6.473   3.655   4.612  0.6209 -0.4899 -0.0189
   61MOL    C7921799   6.385   3.538   4.575  0.8714  0.3944  0.4023
   61MOL    H8021800   6.669   4.123   4.638 -0.2322 -2.3745 -0.3841
   61MOL    H8121801   6.627   4.225   4.498 -0.6642  1.0775  1.1830
   61MOL    H8221802   6.487   4.023   4.411  0.7667  1.7829 -0.7068
   61MOL    H8321803   6.613   3.852   4.565 -0.1642 -0.5153 -0.5038
   61MOL    H8421804   6.528   3.925   4.703  1.3047  0.3604 -0.6174
   61MOL    H8521805   6.328   3.822   4.595 -0.2214 -0.3527 -0.8553
   61MOL    H8621806   6.408   3.791   4.452 -0.7925 -0.9015  0.8903
   61MOL    H8721807   6.491   3.653   4.720 -1.8326 -2.1101  0.3940
   61MOL    H8821808   6.567   3.638   4.560  1.4771 -0.8931  1.6214
   61MOL    H8921809   6.301   3.511   4.640  0.2760  0.9967 -0.1012
   61MOL    H9021810   6.339   3.551   4.477 -0.7372  0.4875  1.1426
   61MOL    H9121811   6.449   3.450   4.570  1.8265  1.0692  0.6680
   61MOL    C9221812   6.381   4.122   4.555  0.5346  0.1680 -0.3253
   61MOL    C9321813   6.351   4.252   4.483 -0.0662  0.6163 -0.2641
   61MOL    C9421814   6.268   4.214   4.359 -0.1922 -0.3681  0.0542
   61MOL    C9521815   6.237   4.310   4.243  0.0759 -0.6023  0.4797
   61MOL    C9621816   6.361   4.352   4.166  0.2133 -0.2138  0.6340
   61MOL    C9721817   6.324   4.399   4.022 -0.7953  0.2356 -0.4647
   61MOL    H9821818   6.297   4.053   4.553  0.4244  0.2789  0.4249
   61MOL    H9921819   6.387   4.159   4.657 -2.2570  1.1353 -0.4718
   61MOL   H10021820   6.438   4.293   4.434  1.5037  0.0335  1.9428
   61MOL   H10121821   6.174   4.173   4.397 -0.7562  1.2861  0.4942
   61MOL   H10221822   6.320   4.135   4.304  0.8561  0.0784  0.3860
   61MOL   H10321823   6.173   4.254   4.174  1.5146 -1.7146  0.0382
   61MOL   H10421824   6.186   4.401   4.276 -0.7243 -0.2405 -1.6757
   61MOL   H10521825   6.418   4.422   4.227 -0.0258 -1.4250  2.2896
   61MOL   H10621826   6.424   4.263   4.159 -1.5519 -1.3850 -0.9355
   61MOL   H10721827   6.240   4.342   3.981 -0.3049 -1.5402  0.9434
   61MOL   H10821828   6.282   4.499   4.037 -0.5548  0.3381 -0.4697
   61MOL   H10921829   6.407   4.404   3.952 -1.4513  3.1921 -1.0928
   61MOL   C11021830   6.257   4.345   4.568  0.0131  0.4426 -0.3614
   61MOL   C11121831   6.329   4.417   4.686  0.1348 -0.8397  0.4696
   61MOL   C11221832   6.227   4.464   4.791  0.1903 -0.1936 -0.7912
   61MOL   C11321833   6.156   4.351   4.874  0.3302 -0.8154 -0.0500
   61MOL   C11421834   6.029   4.410   4.945  0.2507  0.2041 -0.8823
   61MOL   C11521835   5.943   4.309   5.013  0.5314  0.5464  0.1244
   61MOL   H11621836   6.217   4.424   4.505  1.2215  0.8378 -0.6471
   61MOL   H11721837   6.171   4.285   4.600  1.8725 -0.9058  2.4102
   61MOL   H11821838   6.395   4.357   4.748  2.1770  0.8596 -0.0254
   61MOL   H11921839   6.152   4.528   4.744  0.6897  2.1502  1.4826
   61MOL   H12021840   6.271   4.539   4.857  0.4782 -2.2931  1.4608
   61MOL   H12121841   6.226   4.310   4.947 -1.5661  0.6878  2.6903
   61MOL   H12221842   6.123   4.276   4.802 -1.5505  1.2831 -1.4163
   61MOL   H12321843   5.966   4.470   4.879 -0.8085 -1.7510 -1.6752
   61MOL   H12421844   6.068   4.479   5.020  0.6127  0.6572 -1.4851
   61MOL   H12521845   5.882   4.367   5.082 -0.9477  0.3896 -1.0079
   61MOL   H12621846   5.872   4.259   4.946 -0.3467 -0.3673  1.6970
   61MOL   H12721847   5.999   4.237   5.073  0.7717 -1.5398 -2.4835
   61MOL   C12821848   6.407   4.541   4.642  0.3062  0.0407  0.3956
   61MOL   C12921849   6.555   4.527   4.588 -0.4196 -0.2460  0.2660
   61MOL   C13021850   6.634   4.459   4.699 -0.1766  0.0555 -0.7785
   61MOL   C13121851   6.621   4.520   4.842 -0.0146  0.1945 -0.6959
   61MOL   C13221852   6.733   4.465   4.941 -0.0510 -0.4788 -0.0944
   61MOL   C13321853   6.748   4.557   5.067 -0.4701  0.1409  0.2858
   61MOL   H13421854   6.416   4.608   4.727  0.6482 -0.8049  1.0411
   61MOL   H13521855   6.351   4.601   4.570 -1.0270 -0.8413  0.6879
   61MOL   H13621856   6.558   4.458   4.503 -3.4498 -0.1714  0.0468
   61MOL   H13721857   6.603   4.354   4.698  1.2424 -0.3714 -0.6302
   61MOL   H13821858   6.741   4.449   4.680  0.0426  1.0520 -0.1157
   61MOL   H13921859   6.529   4.505   4.898  0.4073  2.5645  0.7023
   61MOL   H14021860   6.621   4.628   4.838 -0.1280  0.2652  0.8482
   61MOL   H14121861   6.709   4.366   4.980 -1.7572  0.4447  1.2957
   61MOL   H14221862   6.826   4.461   4.885 -0.2523 -2.2885 -0.3492
   61MOL   H14321863   6.658   4.560   5.127 -1.4537 -0.9277 -1.0936
   61MOL   H14421864   6.788   4.655   5.043  3.1730 -1.3070  0.0728
   61MOL   H14521865   6.832   4.529   5.131  0.0454 -0.2094 -0.5329
   61MOL   C14621866   6.609   4.662   4.541 -0.9259  0.3992 -0.1365
   61MOL   C14721867   6.725   4.675   4.430 -0.3013  0.5079 -0.7318
   61MOL   C14821868   6.778   4.820   4.416  0.0879 -0.4727 -0.2633
   61MOL   C14921869   6.681   4.932   4.369  0.0019 -0.0442  0.5302
   61MOL   C15021870   6.750   5.061   4.304  0.3426 -0.4161  0.1788
   61MOL   C15121871   6.648   5.166   4.271 -0.0246  0.1533 -1.4244
   61MOL   H15221872   6.525   4.727   4.517 -0.5738  0.5741 -0.9113
   61MOL   H15321873   6.653   4.700   4.634  0.9812 -1.1471 -0.3671
   61MOL   H15421874   6.814   4.619   4.460 -0.4303  0.2686 -0.7948
   61MOL   H15521875   6.871   4.818   4.360  0.6215  0.0423  0.5841
   61MOL   H15621876   6.819   4.848   4.513  0.5357 -0.3697 -0.4836
   61MOL   H15721877   6.619   4.889   4.291  1.6131  0.2157 -0.9331
   61MOL   H15821878   6.614   4.973   4.444 -1.8533  3.2072 -2.7696
   61MOL   H15921879   6.798   5.024   4.214 -0.7967 -2.1021  0.2353
   61MOL   H16021880   6.828   5.102   4.369 -1.3800 -0.4724  2.3473
   61MOL   H16121881   6.597   5.210   4.357  2.0643  1.2111 -0.6932
   61MOL   H16221882   6.708   5.250   4.238 -0.8846  2.2287  1.9792
   61MOL   H16321883   6.572   5.138   4.198 -0.3969  0.4724 -1.1634
   61MOL   C16421884   6.681   4.611   4.295  0.7441  0.2284  0.2719
   61MOL   C16521885   6.777   4.616   4.173  0.2996 -0.7126 -0.1650
   61MOL   C16621886   6.922   4.549   4.204 -0.4817  0.3240 -0.0529
   61MOL   C16721887   7.011   4.524   4.079  0.5578 -0.3910 -0.3428
   61MOL   C16821888   7.140   4.456   4.107  0.0026  0.1555 -0.2772
   61MOL   C16921889   7.122   4.307   4.114  0.0439 -0.0240  0.6583
   61MOL   H17021890   6.673   4.504   4.313 -2.0290  0.4997  0.8372
   61MOL   H17121891   6.582   4.645   4.263  0.1422  0.7428  2.6022
   61MOL   H17221892   6.788   4.722   4.151 -0.2224 -1.0430 -2.0402
   61MOL   H17321893   6.906   4.453   4.252 -1.3225  0.0355 -0.9010
   61MOL   H17421894   6.972   4.613   4.276  0.3334 -0.7327  0.3404
   61MOL   H17521895   7.038   4.607   4.014  1.4818 -0.5137 -0.1338
   61MOL   H17621896   6.958   4.461   4.009 -0.5430 -0.7905  0.8268
   61MOL   H17721897   7.187   4.488   4.200 -0.2298  1.2958 -0.5509
   61MOL   H17821898   7.209   4.480   4.025  0.5098  0.1506  0.1487
   61MOL   H17921899   7.070   4.268   4.202  0.4630  2.4753  2.0692
   61MOL   H18021900   7.213   4.249   4.099 -0.5512 -1.7314  3.3570
   61MOL   H18121901   7.066   4.281   4.024  0.5986  0.1005  0.2754
   61MOL   C18221902   6.704   4.558   4.054  0.1652 -0.1986  0.2011
   61MOL   C18321903   6.710   4.632   3.919  0.6565  0.0515 -0.3064
   61MOL   C18421904   6.642   4.768   3.917 -0.0884  0.7341  0.7636
   61MOL   C18521905   6.485   4.774   3.933 -0.1059  0.6379 -0.9701
   61MOL   C18621906   6.434   4.924   3.925 -0.3771 -0.3941 -0.4086
   61MOL   C18721907   6.291   4.947   3.979 -0.1840  0.3518 -0.3735
   61MOL   H18821908   6.735   4.454   4.041 -2.2990 -1.0124  0.4609
   61MOL   H18921909   6.598   4.551   4.078  0.1832 -0.6573  0.1600
   61MOL   H19021910   6.817   4.644   3.899  1.0399 -2.7165 -0.0128
   61MOL   H19121911   6.697   4.833   3.986  0.7120 -0.8123  1.5960
   61MOL   H19221912   6.669   4.819   3.824  0.8891  1.3204  1.3482
   61MOL   H19321913   6.443   4.731   4.024  0.4716  3.5624  0.7643
   61MOL   H19421914   6.437   4.719   3.852  0.2830  0.0209 -0.7821
   61MOL   H19521915   6.455   4.974   3.830  0.1545  0.3093  0.0727
   61MOL   H19621916   6.505   4.980   3.987 -0.0698  0.9533 -1.9486
   61MOL   H19721917   6.212   4.900   3.920 -0.6053 -0.6523  0.9631
   61MOL   H19821918   6.266   5.053   3.969 -0.7274  0.5212  2.3699
   61MOL   H19921919   6.277   4.922   4.084  2.7753  0.5191  0.0994
   61MOL   C20021920   6.660   4.538   3.804 -0.3742 -0.5275 -0.0925
   61MOL   C20121921   6.691   4.577   3.657  1.2882 -0.2670  0.4329
   61MOL   C20221922   6.840   4.615   3.630  0.2971  0.3897  0.5157
   61MOL   C20321923   6.940   4.493   3.637  0.4307  0.0050  0.2314
   61MOL   C20421924   7.083   4.524   3.603  0.1574  0.3734 -0.6152
   61MOL   C20521925   7.095   4.614   3.479 -0.3734  0.4489 -0.1155
   61MOL   H20621926   6.552   4.525   3.815 -0.2899  0.5650  2.4276
   61MOL   H20721927   6.706   4.442   3.825 -1.0768 -0.5284  1.5597
   61MOL   H20821928   6.629   4.666   3.644 -2.4218 -2.4867  2.3715
   61MOL   H20921929   6.885   4.687   3.698  0.0592  0.9506  0.0866
   61MOL   H21021930   6.836   4.649   3.526  0.8496  2.4866  1.1666
   61MOL   H21121931   6.886   4.424   3.572 -0.4314  2.1414 -1.3847
   61MOL   H21221932   6.934   4.457   3.740 -0.9384 -1.7233 -0.4247
   61MOL   H21321933   7.137   4.432   3.582  0.1352  0.0025  0.9125
   61MOL   H21421934   7.134   4.568   3.689 -2.4758 -0.7683  1.6200
   61MOL   H21521935   7.202   4.634   3.465 -0.5783  1.1738 -0.6822
   61MOL   H21621936   7.054   4.565   3.391  1.2813 -2.0545  0.4493
   61MOL   H21721937   7.051   4.713   3.491 -0.4701  0.7937 -2.9409
   61MOL   C21821938   6.633   4.488   3.547 -0.1561 -0.4171 -0.0266
   61MOL   C21921939   6.480   4.493   3.525 -0.1134  0.2903 -0.0727
   61MOL   C22021940   6.421   4.350   3.521 -0.3216  0.4578 -0.3793
   61MOL   C22121941   6.422   4.279   3.659 -0.6291 -0.4427  0.3481
   61MOL   C22221942   6.367   4.145   3.652 -0.1082  0.5448  0.7438
   61MOL   C22321943   6.380   4.077   3.790 -0.1839 -0.0538  0.1370
   61MOL   H22421944   6.684   4.498   3.451  0.1297 -2.7261 -0.1551
   61MOL   H22521945   6.656   4.386   3.578 -3.0493 -0.7252  1.2647
   61MOL   H22621946   6.437   4.536   3.616 -0.7395 -1.9031  0.6877
   61MOL   H22721947   6.484   4.292   3.454 -4.0985 -3.1049 -1.0207
   61MOL   H22821948   6.315   4.354   3.495 -0.6735 -2.5833  0.3781
   61MOL   H22921949   6.369   4.342   3.731 -0.1370 -0.3637  0.6382
   61MOL   H23021950   6.523   4.269   3.698 -0.8595  1.2289  1.4681
   61MOL   H23121951   6.262   4.158   3.628 -0.2625 -0.8095  0.6403
   61MOL   H23221952   6.410   4.087   3.570  0.4160  0.2648  1.2111
   61MOL   H23321953   6.294   4.083   3.856  0.8215  3.5430  1.1867
   61MOL   H23421954   6.472   4.104   3.841  0.6124 -0.1442 -1.2229
   61MOL   H23521955   6.393   3.969   3.783 -0.3691  0.0445 -2.3154
   61MOL   C23621956   6.442   4.576   3.395  0.8332  0.0663 -0.5341
   61MOL   C23721957   6.296   4.644   3.397  0.3227  0.2137  0.1374
   61MOL   C23821958   6.251   4.669   3.252  0.4562 -0.3948  0.5147
   61MOL   C23921959   6.186   4.552   3.179  0.0987 -0.2590  0.9793
   61MOL   C24021960   6.177   4.583   3.032  1.4270 -0.3838  0.1997
   61MOL   C24121961   6.091   4.485   2.951 -0.4630  0.1684 -0.5469
   61MOL   H24221962   6.516   4.652   3.371 -0.3407  0.6795 -2.2584
   61MOL   H24321963   6.457   4.508   3.311 -0.3932  0.8261 -1.3715
   61MOL   H24421964   6.225   4.577   3.445 -0.0643 -0.9711 -2.0475
   61MOL   H24521965   6.176   4.748   3.256  1.3513  0.6629 -2.3421
   61MOL   H24621966   6.336   4.709   3.196  0.8530 -2.7279 -0.6219
   61MOL   H24721967   6.082   4.552   3.211 -0.4426 -0.3827 -0.7673
   61MOL   H24821968   6.228   4.452   3.187 -1.5908 -1.1162 -0.7127
   61MOL   H24921969   6.122   4.677   3.022  1.1117 -0.4344  1.3951
   61MOL   H25021970   6.274   4.602   2.986  1.3444  1.3313  0.7063
   61MOL   H25121971   6.001   4.463   3.008 -0.0176 -0.4129 -0.0653
   61MOL   H25221972   6.071   4.541   2.859 -0.8248 -0.2971 -0.7568
   61MOL   H25321973   6.133   4.387   2.927 -2.1846  0.0884 -3.4719
   61MOL   C25421974   6.302   4.776   3.474 -0.0392  0.5199 -0.2712
   61MOL   C25521975   6.165   4.811   3.543 -0.4590  0.4638 -0.3526
   61MOL   C25621976   6.166   4.967   3.578  0.2770 -0.2207  0.2174
   61MOL   C25721977   6.125   5.066   3.467  0.0953 -0.0192 -0.5631
   61MOL   C25821978   6.102   5.209   3.531 -1.1287  0.7720  0.5929
   61MOL   C25921979   6.073   5.308   3.417 -0.4571  0.3603  0.1109
   61MOL   H26021980   6.340   4.857   3.412  2.3833 -0.0186  0.4582
   61MOL   H26121981   6.382   4.773   3.548 -0.3766 -0.8070  0.0530
   61MOL   H26221982   6.080   4.797   3.476 -0.4182 -0.3107 -0.2445
   61MOL   H26321983   6.094   4.984   3.658 -0.4624 -1.9683 -0.0590
   61MOL   H26421984   6.265   4.985   3.618  0.7148 -0.9861 -0.5064
   61MOL   H26521985   6.205   5.075   3.393 -0.1829 -1.6971 -1.0952
   61MOL   H26621986   6.037   5.026   3.417 -0.3145  1.1659 -0.7988
   61MOL   H26721987   6.197   5.247   3.569 -0.1303 -1.6700  0.6220
   61MOL   H26821988   6.035   5.218   3.616 -0.4486  3.5026  0.9136
   61MOL   H26921989   6.152   5.315   3.343 -0.6853  1.2378 -0.0548
   61MOL   H27021990   6.059   5.407   3.460  1.6171  0.2388  1.1043
   61MOL   H27121991   5.988   5.280   3.354 -0.0582  0.0095 -0.2731
   61MOL   C27221992   6.145   4.719   3.663  0.4757 -0.2471 -0.0631
   61MOL   C27321993   5.992   4.685   3.699  0.4479 -0.1096  0.4107
   61MOL   C27421994   5.980   4.605   3.834 -0.3520  0.2462  0.1908
   61MOL   C27521995   6.038   4.674   3.952  0.0984 -0.0521  0.8413
   61MOL   C27621996   5.988   4.615   4.086  0.8145 -0.5761  0.1145
   61MOL   C27721997   6.045   4.689   4.204  0.3238  0.2155  0.5246
   61MOL   H27821998   6.200   4.625   3.649 -2.3099 -1.6584 -2.0243
   61MOL   H27921999   6.188   4.774   3.746  1.0459  3.5504 -2.7329
   61MOL   H28022000   5.929   4.774   3.699  0.7393  0.0939  0.9826
   61MOL   H28122001   6.013   4.502   3.826  0.2389  0.4524 -0.1078
   61MOL   H28222002   5.873   4.600   3.854 -0.7830  2.4110 -1.3272
   61MOL   H28322003   6.014   4.780   3.942  1.4769  0.2869  0.9530
   61MOL   H28422004   6.145   4.663   3.937  0.0520 -0.6030  0.9200
   61MOL   H28522005   5.880   4.623   4.097  0.9059  1.1712 -0.1021
   61MOL   H28622006   6.004   4.507   4.089  1.6867 -0.4537 -0.1334
   61MOL   H28722007   6.154   4.691   4.204  0.3530  0.7764  3.1319
   61MOL   H28822008   6.015   4.793   4.221 -0.1234 -0.1144  1.8216
   61MOL   H28922009   6.013   4.634   4.292 -2.0821 -1.9677 -1.6309
   61MOL   C29022010   5.936   4.591   3.586 -0.1949 -0.1046 -0.1082
   61MOL   C29122011   5.785   4.545   3.588  0.0556 -0.9182 -0.0322
   61MOL   C29222012   5.689   4.663   3.618 -0.0804  0.2263 -0.6056
   61MOL   C29322013   5.645   4.690   3.765  0.0527 -0.2907  0.0332
   61MOL   C29422014   5.605   4.558   3.846  0.0235 -0.5352 -0.1905
   61MOL   C29522015   5.539   4.576   3.985  0.0133 -0.2627 -0.0968
   61MOL   H29622016   5.997   4.502   3.568  1.5405  1.2984 -1.3121
   61MOL   H29722017   5.952   4.648   3.494  1.7902 -0.1804  0.1664
   61MOL   H29822018   5.778   4.480   3.675  0.8233  0.0649  0.7892
   61MOL   H29922019   5.595   4.655   3.564 -0.1492  2.6305 -0.9195
   61MOL   H30022020   5.736   4.758   3.590 -0.7318  0.4444 -0.9756
   61MOL   H30122021   5.727   4.744   3.813  0.9097  0.7785 -2.5386
   61MOL   H30222022   5.568   4.768   3.771  2.5615  2.3747 -1.1204
   61MOL   H30322023   5.683   4.485   3.867  0.2746 -0.0867  0.4557
   61MOL   H30422024   5.539   4.505   3.777 -1.3446 -0.0518  0.7100
   61MOL   H30522025   5.456   4.646   3.978  0.1522 -0.1672 -0.8423
   61MOL   H30622026   5.619   4.603   4.054  1.1230 -1.2311 -0.9855
   61MOL   H30722027   5.506   4.488   4.040  0.6335  0.3764  1.3269
   61MOL   C30822028   5.752   4.465   3.458 -0.0870  0.0089 -0.0884
   61MOL   C30922029   5.758   4.312   3.473 -0.0703  0.2082 -0.8623
   61MOL   C31022030   5.790   4.236   3.341 -0.2637 -0.0392 -0.5319
   61MOL   C31122031   5.675   4.240   3.237 -0.5555  0.1034 -0.3602
   61MOL   C31222032   5.718   4.169   3.105 -0.0926 -0.1560 -0.0631
   61MOL   C31322033   5.822   4.227   3.013  0.3624 -0.3872 -0.1139
   61MOL   H31422034   5.671   4.497   3.392 -0.9803  0.0475  1.0155
   61MOL   H31522035   5.841   4.480   3.397 -1.9068 -0.9508 -3.1160
   61MOL   H31622036   5.842   4.284   3.537 -1.6335 -2.0384  0.2652
   61MOL   H31722037   5.811   4.131   3.364 -0.3674  0.4254  1.8174
   61MOL   H31822038   5.883   4.276   3.302  1.3715 -2.0619  1.1069
   61MOL   H31922039   5.651   4.344   3.215  1.2322  0.4378 -0.8770
   61MOL   H32022040   5.595   4.183   3.283 -0.3512 -0.0534 -0.1981
   61MOL   H32122041   5.748   4.069   3.137 -0.0932 -0.1186  0.0575
   61MOL   H32222042   5.630   4.135   3.050  0.2956 -1.4283  0.0913
   61MOL   H32322043   5.902   4.262   3.079  1.1005  1.3969 -1.8841
   61MOL   H32422044   5.779   4.310   2.956  2.8055  1.1717  0.2168
   61MOL   H32522045   5.847   4.144   2.947  2.2171  0.3556 -0.3752
   61MOL   C32622046   5.636   4.266   3.540  0.3836 -0.0461  0.3740
   61MOL   C32722047   5.643   4.135   3.623 -0.2187 -0.5426 -0.3005
   61MOL   C32822048   5.726   4.158   3.741  0.1677 -0.1343  0.2822
   61MOL   C32922049   5.740   4.044   3.843  0.2509  0.0087 -0.4358
   61MOL   C33022050   5.819   4.082   3.972  0.0667  0.7117  0.1910
   61MOL   C33122051   5.960   4.127   3.936 -0.3835  0.6475  0.0585
   61MOL   H33222052   5.554   4.257   3.470  0.0123 -1.6780  0.9881
   61MOL   H33322053   5.586   4.345   3.598  0.2059  2.6580 -3.2918
   61MOL   H33422054   5.690   4.057   3.564 -3.1406 -2.4789 -0.1539
   61MOL   H33522055   5.823   4.196   3.711 -0.9738  0.6410 -2.5491
   61MOL   H33622056   5.680   4.244   3.790 -0.0671  0.9598 -1.8307
   61MOL   H33722057   5.783   3.955   3.798  1.1076 -0.8965  2.0718
   61MOL   H33822058   5.642   4.009   3.876  0.1603  1.2110  0.5990
   61MOL   H33922059   5.767   4.168   4.012 -1.7431 -1.3151  2.3154
   61MOL   H34022060   5.821   4.007   4.051 -0.5882 -1.6429 -1.9410
   61MOL   H34122061   5.968   4.236   3.935  1.1155  0.6521  3.4019
   61MOL   H34222062   6.011   4.067   3.860 -0.5333  1.7928 -0.9536
   61MOL   H34322063   6.021   4.098   4.022 -0.0329 -1.6515 -0.9354
   61MOL   C34422064   5.503   4.079   3.661  0.2452  0.8785  0.6634
   61MOL   C34522065   5.499   3.927   3.637  0.2075 -0.4471  0.1638
   61MOL   C34622066   5.380   3.852   3.692  0.2218  0.7090 -0.2869
   61MOL   C34722067   5.426   3.708   3.723 -0.2400 -0.2267 -0.2750
   61MOL   C34822068   5.314   3.619   3.768  0.1430  0.3025 -0.0871
   61MOL   C34922069   5.364   3.480   3.820  0.2197 -0.4628 -0.4939
   61MOL   H35022070   5.480   4.111   3.763  0.7807 -1.3113  1.5000
   61MOL   H35122071   5.424   4.134   3.610 -0.7830 -0.5005  0.7258
   61MOL   H35222072   5.584   3.886   3.692  0.2708  0.9807  1.1617
   61MOL   H35322073   5.357   3.905   3.785 -0.7263 -1.7365  0.9337
   61MOL   H35422074   5.293   3.850   3.627 -0.2398  0.7951  0.3178
   61MOL   H35522075   5.466   3.675   3.627 -1.8539  0.7067 -1.3066
   61MOL   H35622076   5.518   3.701   3.781  0.2784  1.2972 -0.8873
   61MOL   H35722077   5.273   3.683   3.846  1.1822 -0.5256  1.1740
   61MOL   H35822078   5.245   3.596   3.687 -0.5487 -1.3530  0.9326
   61MOL   H35922079   5.409   3.415   3.745 -0.9732 -2.8448  0.7915
   61MOL   H36022080   5.421   3.490   3.912  2.1163 -3.1964 -1.2987
   61MOL   H36122081   5.281   3.417   3.852 -0.4984  0.4769 -0.5132
   61MOL   H36222082   5.511   3.896   3.534  4.0194 -0.1944  0.4716
   62MOL     C122083   2.159   1.531   6.531 -0.3837  0.3448 -0.1370
   62MOL     C222084   2.209   1.393   6.483  0.9856 -0.0014  0.0103
   62MOL     C322085   2.363   1.377   6.491  0.0504  0.4341 -0.7313
   62MOL     C422086   2.448   1.477   6.411 -0.2738 -0.2375  0.6340
   62MOL     C522087   2.605   1.460   6.444  0.1667 -0.0102 -0.5398
   62MOL     C622088   2.664   1.357   6.358  0.2437 -0.5959 -0.4327
   62MOL     H722089   2.051   1.543   6.531 -0.4514 -0.2232  1.6336
   62MOL     H822090   2.201   1.550   6.629  0.7496 -1.1665 -0.2932
   62MOL     H922091   2.168   1.322   6.555 -1.2357 -0.7582 -1.9301
   62MOL    H1022092   2.383   1.278   6.450  1.0479 -0.0802  0.9280
   62MOL    H1122093   2.391   1.381   6.596 -0.0366 -3.0667 -0.4959
   62MOL    H1222094   2.424   1.580   6.435 -2.8386 -0.4287 -1.0050
   62MOL    H1322095   2.435   1.476   6.303  2.6672 -2.0047  0.2507
   62MOL    H1422096   2.660   1.550   6.420 -0.9314  1.5089  2.3651
   62MOL    H1522097   2.638   1.453   6.548  1.4001  1.4796 -0.8214
   62MOL    H1622098   2.768   1.358   6.388 -0.2268 -1.7696  1.3240
   62MOL    H1722099   2.658   1.377   6.251  0.8254  3.4277  0.2270
   62MOL    H1822100   2.628   1.256   6.380  1.8165 -0.8572  1.0116
   62MOL    H1922101   2.192   1.614   6.469  0.8894  0.8013  1.1226
   62MOL    C2022102   2.139   1.350   6.352  0.4338 -0.2401  0.3838
   62MOL    C2122103   2.127   1.195   6.338  0.8999 -0.2199  0.0795
   62MOL    C2222104   1.975   1.161   6.364 -0.0739 -0.6952  0.0063
   62MOL    C2322105   1.957   1.008   6.411  0.4082  0.8171  0.3890
   62MOL    C2422106   1.827   0.992   6.493  0.2037 -0.5043  0.3473
   62MOL    C2522107   1.791   0.853   6.543  0.6083  0.6247  0.5361
   62MOL    H2622108   2.190   1.396   6.267 -1.6173  1.4469  0.0058
   62MOL    H2722109   2.038   1.390   6.350  0.4709 -0.1356  0.6590
   62MOL    H2822110   2.200   1.142   6.399 -1.2023 -0.6477  2.2444
   62MOL    H2922111   1.911   1.178   6.278  1.9903  0.2807 -1.3906
   62MOL    H3022112   1.944   1.225   6.447  0.0638 -0.3174 -0.2334
   62MOL    H3122113   2.038   0.970   6.473  0.6795 -0.4088 -0.6783
   62MOL    H3222114   1.946   0.949   6.320  1.2468 -0.1766  0.9160
   62MOL    H3322115   1.826   1.054   6.582 -3.1812  2.7596 -1.8032
   62MOL    H3422116   1.743   1.037   6.440  1.5042  1.7701  0.1216
   62MOL    H3522117   1.717   0.857   6.623 -0.4548 -1.6991 -0.2846
   62MOL    H3622118   1.754   0.800   6.455 -0.1581  2.0081  0.0035
   62MOL    H3722119   1.878   0.801   6.582  0.6545 -0.0544 -0.4622
   62MOL    C3822120   2.181   1.141   6.201 -0.2615  0.8540  0.0877
   62MOL    C3922121   2.326   1.165   6.143 -0.3397 -0.1776 -0.0665
   62MOL    C4022122   2.422   1.046   6.182 -0.6134  0.2200  0.6982
   62MOL    C4122123   2.375   0.896   6.142 -1.0701  0.8924  0.4805
   62MOL    C4222124   2.477   0.788   6.179  0.3255 -0.5027 -0.0920
   62MOL    C4322125   2.463   0.654   6.107 -0.0019  0.1414 -0.2476
   62MOL    H4422126   2.119   1.199   6.133 -1.2435 -0.8071 -0.4487
   62MOL    H4522127   2.147   1.038   6.193  1.9055  0.1959 -0.8872
   62MOL    H4622128   2.363   1.255   6.191  1.8439  0.7558 -3.3350
   62MOL    H4722129   2.516   1.064   6.131  0.4104 -3.4988  1.1355
   62MOL    H4822130   2.432   1.063   6.289  0.7319  0.0643  0.6036
   62MOL    H4922131   2.281   0.885   6.197 -1.2692 -1.5850 -0.3082
   62MOL    H5022132   2.357   0.891   6.035  0.8891 -1.9721  0.2287
   62MOL    H5122133   2.575   0.825   6.148 -0.3632  1.0626 -0.4139
   62MOL    H5222134   2.481   0.768   6.286 -2.8914  0.9416  0.3335
   62MOL    H5322135   2.373   0.597   6.132 -0.9752  2.0559  0.7608
   62MOL    H5422136   2.543   0.588   6.143 -0.4622 -0.3881 -0.1888
   62MOL    H5522137   2.473   0.669   6.000 -0.1311  1.0615 -0.1305
   62MOL    C5622138   2.329   1.185   5.988 -0.1046  0.3243  0.0112
   62MOL    C5722139   2.471   1.229   5.941  0.2123 -0.1606 -0.7521
   62MOL    C5822140   2.457   1.335   5.830  0.0806  0.7468 -0.6116
   62MOL    C5922141   2.463   1.468   5.892  0.2704 -0.9621  0.3591
   62MOL    C6022142   2.462   1.586   5.787 -0.0091  0.4313 -0.0915
   62MOL    C6122143   2.593   1.592   5.699  0.4079 -0.3092  0.3689
   62MOL    H6222144   2.308   1.092   5.936  1.2099  1.4259 -2.6138
   62MOL    H6322145   2.263   1.260   5.944  0.3724  0.3153 -0.7364
   62MOL    H6422146   2.522   1.265   6.030 -0.4409 -0.5162 -0.2252
   62MOL    H6522147   2.533   1.329   5.751  0.0939 -0.5330 -0.5063
   62MOL    H6622148   2.362   1.316   5.781 -0.7391  0.6806  0.9746
   62MOL    H6722149   2.554   1.468   5.953 -0.0884  2.5856  1.0228
   62MOL    H6822150   2.382   1.469   5.965  0.7842 -1.2879  0.9409
   62MOL    H6922151   2.374   1.575   5.723 -0.9230  3.4211  0.5767
   62MOL    H7022152   2.447   1.676   5.847 -1.9730 -0.5145  0.9045
   62MOL    H7122153   2.673   1.548   5.758  0.9734  2.1076  1.4896
   62MOL    H7222154   2.577   1.522   5.617  1.5834 -2.1956  1.7309
   62MOL    H7322155   2.618   1.688   5.655 -2.4220  0.4518  0.2958
   62MOL    C7422156   2.554   1.111   5.879 -0.3548 -0.0387  0.0813
   62MOL    C7522157   2.706   1.135   5.864  0.1077  0.0734 -0.0236
   62MOL    C7622158   2.775   1.118   6.002 -0.2698 -0.2629 -0.3470
   62MOL    C7722159   2.911   1.186   6.009 -0.4703 -0.0052  0.3100
   62MOL    C7822160   2.953   1.208   6.152  0.3041  0.3202  0.3371
   62MOL    C7922161   3.085   1.292   6.152  0.0589  0.1821 -0.1706
   62MOL    H8022162   2.528   1.021   5.935 -0.0601 -1.2406 -1.6863
   62MOL    H8122163   2.509   1.085   5.783  0.9045  2.2161 -1.1661
   62MOL    H8222164   2.714   1.240   5.838 -1.3055  0.5449  1.3385
   62MOL    H8322165   2.709   1.165   6.075  0.5761  0.7204 -0.1857
   62MOL    H8422166   2.793   1.013   6.022  0.3282 -0.2836 -0.9490
   62MOL    H8522167   2.995   1.136   5.961  1.6445  1.3423  2.5106
   62MOL    H8622168   2.909   1.283   5.959  3.4388  1.0355  2.0397
   62MOL    H8722169   2.967   1.113   6.203  0.2640 -0.2862 -0.7582
   62MOL    H8822170   2.876   1.256   6.214  0.6899  0.2500  0.8700
   62MOL    H8922171   3.171   1.226   6.150 -0.5388 -0.5769 -2.6133
   62MOL    H9022172   3.092   1.370   6.077  1.7785  0.9106  0.7200
   62MOL    H9122173   3.082   1.344   6.248  1.0320  0.3976 -0.2509
   62MOL    C9222174   2.778   1.042   5.761 -0.5643  0.2823  0.2503
   62MOL    C9322175   2.757   1.080   5.614 -0.0878  0.4192 -0.3143
   62MOL    C9422176   2.823   1.211   5.573  0.0088  0.3655  0.1964
   62MOL    C9522177   2.976   1.224   5.566  0.1965  0.4703 -0.4092
   62MOL    C9622178   3.022   1.364   5.533 -0.3390  0.2883  0.1722
   62MOL    C9722179   2.998   1.465   5.642 -0.2957  0.0752  0.0415
   62MOL    H9822180   2.886   1.039   5.778 -0.4948 -0.2954 -0.2691
   62MOL    H9922181   2.741   0.941   5.780 -0.6005 -0.0950 -1.6889
   62MOL   H10022182   2.649   1.093   5.606 -0.1745  0.3578  0.7395
   62MOL   H10122183   2.786   1.276   5.652 -1.2246 -0.1456  0.0557
   62MOL   H10222184   2.779   1.256   5.484 -2.4701 -2.1704  0.0747
   62MOL   H10322185   3.023   1.196   5.660  1.1781 -2.1125 -1.6223
   62MOL   H10422186   3.017   1.149   5.497  1.7553  0.6031  0.3612
   62MOL   H10522187   3.130   1.359   5.517 -0.6034 -0.6584 -1.4114
   62MOL   H10622188   2.980   1.402   5.439 -1.1669 -1.2422 -0.0877
   62MOL   H10722189   3.046   1.562   5.626 -1.5655  1.2042  2.7523
   62MOL   H10822190   2.892   1.484   5.659  0.0249  1.3463  0.7362
   62MOL   H10922191   3.021   1.425   5.741 -1.2902  0.8993  0.6123
   62MOL   C11022192   2.797   0.963   5.523  0.2563  0.1062 -0.0371
   62MOL   C11122193   2.687   0.858   5.505 -0.0203 -0.1970 -0.1203
   62MOL   C11222194   2.736   0.714   5.517  0.4131  0.8171  0.0355
   62MOL   C11322195   2.782   0.667   5.654 -0.0762 -0.5479 -0.2635
   62MOL   C11422196   2.779   0.512   5.681 -1.2335  0.2494  0.7221
   62MOL   C11522197   2.891   0.438   5.607 -1.1784  0.0466  0.6797
   62MOL   H11622198   2.819   0.998   5.422 -2.1074  0.7405 -0.3477
   62MOL   H11722199   2.880   0.906   5.567  0.1271  0.1636  0.2796
   62MOL   H11822200   2.614   0.869   5.586 -1.3941  1.5151 -1.5520
   62MOL   H11922201   2.819   0.698   5.448  2.0134  1.5850  1.7242
   62MOL   H12022202   2.651   0.654   5.485 -0.5771  1.9721  0.4685
   62MOL   H12122203   2.727   0.726   5.729  1.7686 -0.4506  1.0482
   62MOL   H12222204   2.883   0.702   5.677 -1.2764  1.6491  1.9144
   62MOL   H12322205   2.680   0.475   5.653 -0.4158 -0.9987 -0.6397
   62MOL   H12422206   2.785   0.496   5.789  1.7841 -0.4295  0.5157
   62MOL   H12522207   2.989   0.478   5.632 -1.7905  1.5227  0.7290
   62MOL   H12622208   2.889   0.331   5.630 -0.0236 -0.4837 -1.5476
   62MOL   H12722209   2.892   0.446   5.498 -2.0736 -0.8546  0.5885
   62MOL   C12822210   2.603   0.883   5.373  0.1484  0.0560 -0.5673
   62MOL   C12922211   2.512   1.006   5.362 -0.4238  0.0655 -0.4549
   62MOL   C13022212   2.378   0.977   5.428  0.0148 -0.1455 -0.5522
   62MOL   C13122213   2.295   1.100   5.472 -0.6588  0.5934  0.0583
   62MOL   C13222214   2.194   1.074   5.588  0.3335 -0.6054 -0.4063
   62MOL   C13322215   2.104   1.187   5.645 -0.8997 -0.6335 -0.3856
   62MOL   H13422216   2.536   0.801   5.349 -0.4175  0.2855  0.2003
   62MOL   H13522217   2.655   0.876   5.278 -2.3658  0.7481 -2.0493
   62MOL   H13622218   2.547   1.091   5.420  1.3101 -0.8358 -0.1487
   62MOL   H13722219   2.314   0.919   5.361 -0.2878 -0.7780  0.2759
   62MOL   H13822220   2.409   0.917   5.514 -0.7026 -1.1276 -0.9702
   62MOL   H13922221   2.236   1.138   5.389 -1.7216 -0.4209  0.3353
   62MOL   H14022222   2.356   1.185   5.501  2.1220 -1.7193  1.2860
   62MOL   H14122223   2.125   1.001   5.546 -0.5684  0.2472 -0.4272
   62MOL   H14222224   2.245   1.023   5.671  0.6031  3.0529  1.7948
   62MOL   H14322225   2.164   1.265   5.692 -1.3685 -1.6159  1.8863
   62MOL   H14422226   2.038   1.158   5.727  0.2399  0.3889  0.9062
   62MOL   H14522227   2.038   1.237   5.574 -0.9098  0.1623  0.1862
   62MOL   C14622228   2.496   1.055   5.217 -0.4354  0.0056 -0.4240
   62MOL   C14722229   2.626   1.131   5.159 -0.6901  0.2607  0.2255
   62MOL   C14822230   2.607   1.275   5.119 -0.2515 -0.5317 -0.8603
   62MOL   C14922231   2.543   1.361   5.228 -0.4306  0.8253  0.1451
   62MOL   C15022232   2.490   1.493   5.177  1.0951  0.4836 -0.3867
   62MOL   C15122233   2.363   1.488   5.081  0.1889  0.2678  0.1353
   62MOL   H15222234   2.464   0.966   5.163 -0.0525 -0.9067  0.8358
   62MOL   H15322235   2.415   1.128   5.212  0.5146  1.0330 -1.0340
   62MOL   H15422236   2.698   1.135   5.241  1.4129  1.6090 -1.6226
   62MOL   H15522237   2.537   1.270   5.035  0.9320  1.3915 -1.9933
   62MOL   H15622238   2.697   1.325   5.084 -1.0477  3.6908  2.7233
   62MOL   H15722239   2.460   1.317   5.282  0.5131  0.9457  1.6946
   62MOL   H15822240   2.626   1.365   5.298 -0.6095  3.9279  0.2434
   62MOL   H15922241   2.567   1.543   5.119  0.0421  0.5606 -1.7615
   62MOL   H16022242   2.467   1.561   5.259  0.0944  1.2942 -1.3208
   62MOL   H16122243   2.267   1.464   5.128  0.7936 -0.9137  0.7985
   62MOL   H16222244   2.345   1.582   5.030  1.6349  0.5955  0.2086
   62MOL   H16322245   2.388   1.410   5.009  1.4659  1.5173 -0.7980
   62MOL   C16422246   2.679   1.045   5.039 -0.2790  0.0813  0.1388
   62MOL   C16522247   2.811   1.093   4.970 -0.1399  0.0632 -0.6330
   62MOL   C16622248   2.936   1.050   5.058  0.4134 -0.0996 -0.1442
   62MOL   C16722249   3.061   1.138   5.038 -0.6065 -0.2208 -0.0863
   62MOL   C16822250   3.071   1.257   5.126 -0.3450  0.5116  0.2361
   62MOL   C16922251   3.177   1.360   5.085  0.3711  0.4848  0.1469
   62MOL   H17022252   2.688   0.942   5.073 -0.4192 -0.1659 -0.5638
   62MOL   H17122253   2.596   1.055   4.969 -0.8031  0.2451  0.7843
   62MOL   H17222254   2.816   1.202   4.966 -0.2094  0.0694 -0.5492
   62MOL   H17322255   2.951   0.943   5.044  0.9114  0.2223 -2.2049
   62MOL   H17422256   2.912   1.040   5.164 -0.4642  1.8886 -0.1418
   62MOL   H17522257   3.062   1.175   4.935  0.0047  1.0009  0.3458
   62MOL   H17622258   3.143   1.068   5.055  1.4613  1.7025 -1.7270
   62MOL   H17722259   3.090   1.228   5.229 -1.3447 -1.4562 -0.1058
   62MOL   H17822260   2.971   1.299   5.126  0.1837  1.9430 -2.9907
   62MOL   H17922261   3.134   1.455   5.116  0.5770  0.4801  0.4390
   62MOL   H18022262   3.206   1.351   4.980 -1.6701 -2.7177 -0.2362
   62MOL   H18122263   3.271   1.356   5.140  1.9234  1.3963 -2.3628
   62MOL   C18222264   2.834   1.051   4.825  0.2091 -0.3621 -1.2231
   62MOL   C18322265   2.723   1.091   4.718 -0.5858  0.4972 -0.8408
   62MOL   C18422266   2.769   1.044   4.573  0.0298 -0.5469 -0.2670
   62MOL   C18522267   2.843   0.905   4.573 -0.1325  0.2508 -0.1147
   62MOL   C18622268   2.864   0.857   4.427 -0.1638 -0.1528  0.4025
   62MOL   C18722269   2.939   0.955   4.342  0.1385 -0.0426 -0.2361
   62MOL   H18822270   2.924   1.098   4.787 -0.9250  1.5373 -1.6874
   62MOL   H18922271   2.850   0.944   4.823 -0.5545 -0.5191 -0.0183
   62MOL   H19022272   2.630   1.040   4.743 -1.3372  1.0442 -2.4465
   62MOL   H19122273   2.679   1.044   4.512 -1.5334  2.0434  1.9190
   62MOL   H19222274   2.842   1.111   4.529 -1.1075  1.1779  0.4425
   62MOL   H19322275   2.788   0.832   4.633 -0.1065 -0.7342 -1.2644
   62MOL   H19422276   2.943   0.913   4.617  0.7667  0.7860 -2.2396
   62MOL   H19522277   2.762   0.837   4.396 -0.4332  1.1471  0.4341
   62MOL   H19622278   2.920   0.763   4.422 -0.0556 -0.1014  0.6557
   62MOL   H19722279   2.865   1.024   4.302  2.1194  3.6008  2.0396
   62MOL   H19822280   2.978   0.907   4.252 -0.6724  1.3052 -1.3228
   62MOL   H19922281   3.013   1.016   4.393 -1.8528 -1.2583  4.4169
   62MOL   C20022282   2.705   1.246   4.714 -0.5059  0.2147  0.2698
   62MOL   C20122283   2.587   1.309   4.638  0.5215 -0.1754  0.0143
   62MOL   C20222284   2.448   1.226   4.657  0.7162  0.4802  0.5355
   62MOL   C20322285   2.328   1.273   4.576  0.1406 -0.2525  0.1558
   62MOL   C20422286   2.350   1.323   4.433 -0.5604 -0.3144 -0.7913
   62MOL   C20522287   2.374   1.200   4.341 -0.0547  0.1828 -0.0061
   62MOL   H20622288   2.794   1.291   4.669 -0.0147  0.0171  1.0324
   62MOL   H20722289   2.687   1.283   4.815  0.1506  0.6970  0.2164
   62MOL   H20822290   2.619   1.306   4.534  0.7542  2.6197 -0.0235
   62MOL   H20922291   2.413   1.219   4.760 -0.6362 -2.1045 -0.0696
   62MOL   H21022292   2.466   1.121   4.633 -1.8347 -0.2244  1.5355
   62MOL   H21122293   2.291   1.365   4.622  0.1588  0.0020 -0.3361
   62MOL   H21222294   2.251   1.196   4.581 -0.6179  0.2897 -2.4220
   62MOL   H21322295   2.443   1.379   4.438 -0.6428 -0.3503  1.8533
   62MOL   H21422296   2.269   1.390   4.407  0.5441  1.0871 -0.6941
   62MOL   H21522297   2.442   1.129   4.389  1.0438  0.6408 -0.8870
   62MOL   H21622298   2.295   1.130   4.314 -0.6842  0.8420  0.1155
   62MOL   H21722299   2.427   1.228   4.251  0.9372 -0.9346  0.2252
   62MOL   C21822300   2.568   1.459   4.681  0.4695  0.3005 -0.6338
   62MOL   C21922301   2.693   1.547   4.674 -0.9405 -0.6044  0.2226
   62MOL   C22022302   2.760   1.566   4.817  0.2856 -0.9675 -0.3093
   62MOL   C22122303   2.903   1.615   4.798 -0.1195  0.0780  0.4368
   62MOL   C22222304   2.987   1.621   4.929  0.1929 -0.5644  0.7236
   62MOL   C22322305   3.132   1.664   4.910  0.3975  0.1643 -0.3964
   62MOL   H22422306   2.496   1.509   4.616  0.7096  1.8376  0.2409
   62MOL   H22522307   2.523   1.471   4.780 -1.0640  1.7134 -1.4739
   62MOL   H22622308   2.761   1.488   4.612  0.4582  1.6328 -0.4257
   62MOL   H22722309   2.767   1.476   4.878  1.4225  0.7959  2.2953
   62MOL   H22822310   2.704   1.629   4.887 -1.2255 -1.6409 -0.8987
   62MOL   H22922311   2.903   1.709   4.744  0.4218 -0.8954 -1.2836
   62MOL   H23022312   2.950   1.538   4.737 -0.5908 -1.5497  2.0774
   62MOL   H23122313   2.937   1.698   4.988  0.7559  1.8256 -1.7732
   62MOL   H23222314   2.977   1.523   4.973  0.3029  0.6971  3.6601
   62MOL   H23322315   3.184   1.582   4.860 -0.7385 -0.1353 -1.1247
   62MOL   H23422316   3.172   1.685   5.009 -0.5030 -1.5535  0.3494
   62MOL   H23522317   3.129   1.757   4.854  0.8789  0.9517  0.8696
   62MOL   C23622318   2.670   1.680   4.593  0.6949 -0.2049 -0.0864
   62MOL   C23722319   2.643   1.664   4.432 -0.0697  0.1487  0.0548
   62MOL   C23822320   2.766   1.591   4.363  0.4501 -0.6765 -0.6543
   62MOL   C23922321   2.738   1.561   4.215 -0.2565 -0.3788  0.2753
   62MOL   C24022322   2.839   1.474   4.144  0.0934  0.3218 -0.1842
   62MOL   C24122323   2.801   1.437   3.994  0.1027  0.8358 -0.4237
   62MOL   H24222324   2.583   1.726   4.641  1.0817 -1.1101  1.5065
   62MOL   H24322325   2.745   1.755   4.618  0.7493 -0.6565  1.1053
   62MOL   H24422326   2.553   1.603   4.434 -0.1377  0.2870  2.4373
   62MOL   H24522327   2.849   1.660   4.373 -2.0354  2.3707 -0.5379
   62MOL   H24622328   2.789   1.498   4.416 -1.1517 -0.0262  1.2524
   62MOL   H24722329   2.735   1.661   4.170  0.9458 -0.9298 -1.0945
   62MOL   H24822330   2.641   1.514   4.206 -0.7573  0.8233 -0.8223
   62MOL   H24922331   2.937   1.520   4.135  0.0891 -0.0078 -2.2796
   62MOL   H25022332   2.849   1.394   4.217 -3.3323 -0.1882 -0.1673
   62MOL   H25122333   2.879   1.370   3.959  0.7892  1.5923 -0.3744
   62MOL   H25222334   2.703   1.393   3.978  0.0681 -0.4052  2.8305
   62MOL   H25322335   2.813   1.522   3.926 -0.4021 -0.3901 -2.0629
   62MOL   C25422336   2.604   1.806   4.374 -0.3443 -0.4775 -1.1077
   62MOL   C25522337   2.452   1.840   4.361 -0.5201  0.4053 -0.7073
   62MOL   C25622338   2.371   1.848   4.488  0.0232 -0.3220  0.3050
   62MOL   C25722339   2.418   1.937   4.601  0.3058  1.1981  0.4448
   62MOL   C25822340   2.343   1.928   4.734 -0.1541  0.4799  0.3852
   62MOL   C25922341   2.364   1.798   4.810 -0.1947  0.0241 -0.3945
   62MOL   H26022342   2.642   1.826   4.274 -1.2878 -0.5601 -1.4838
   62MOL   H26122343   2.664   1.880   4.427  1.9283 -2.0236 -1.4723
   62MOL   H26222344   2.443   1.939   4.315 -2.0888  0.2996 -0.6649
   62MOL   H26322345   2.265   1.857   4.466 -0.6116 -4.5423  1.1482
   62MOL   H26422346   2.378   1.744   4.521 -1.0853 -0.3626  0.4303
   62MOL   H26522347   2.523   1.916   4.620  0.4897 -0.0618 -1.9194
   62MOL   H26622348   2.416   2.042   4.571  2.2975  1.0661 -0.2084
   62MOL   H26722349   2.237   1.927   4.708 -0.0053 -1.2779 -0.2632
   62MOL   H26822350   2.373   2.009   4.800  0.1193  0.5133  0.2222
   62MOL   H26922351   2.293   1.785   4.891 -0.0124  2.0708  0.1184
   62MOL   H27022352   2.462   1.798   4.860 -0.9361  0.8339  1.0963
   62MOL   H27122353   2.347   1.705   4.756 -0.2423 -1.3281  1.8580
   62MOL   C27222354   2.387   1.734   4.261 -0.7285 -0.1668  0.0132
   62MOL   C27322355   2.262   1.783   4.189 -0.1839  0.3828 -0.4396
   62MOL   C27422356   2.173   1.672   4.137 -0.1835  0.3354  0.0161
   62MOL   C27522357   2.091   1.599   4.243  0.0639 -0.6289  0.0371
   62MOL   C27622358   2.041   1.460   4.199 -0.5349 -0.2584 -0.2469
   62MOL   C27722359   1.973   1.377   4.304 -0.0469 -0.3600  0.8094
   62MOL   H27822360   2.463   1.702   4.190 -0.3840 -0.9615  0.7224
   62MOL   H27922361   2.359   1.639   4.307 -2.4235  0.2091 -0.1818
   62MOL   H28022362   2.197   1.837   4.257 -1.1618 -0.0271 -1.0162
   62MOL   H28122363   2.243   1.593   4.109 -2.5227 -1.5115 -0.7761
   62MOL   H28222364   2.122   1.692   4.043  0.0545 -2.3202 -0.6968
   62MOL   H28322365   2.011   1.663   4.282  0.2113  0.0345 -0.7406
   62MOL   H28422366   2.145   1.582   4.336  0.5952  1.0385  0.0413
   62MOL   H28522367   1.969   1.478   4.119 -0.6487  0.5712  0.0349
   62MOL   H28622368   2.122   1.407   4.150  0.3586  1.5960 -0.8502
   62MOL   H28722369   1.908   1.437   4.367 -0.1569  1.3096 -0.8449
   62MOL   H28822370   1.927   1.288   4.262  3.0394 -0.5309 -2.4775
   62MOL   H28922371   2.040   1.331   4.376  1.4920  2.5684  1.3526
   62MOL   C29022372   2.316   1.879   4.076 -0.8004 -0.2371  0.2870
   62MOL   C29122373   2.235   2.006   4.048  0.6229 -0.8285  0.9613
   62MOL   C29222374   2.246   2.105   4.170  0.1106 -0.3307  0.3098
   62MOL   C29322375   2.138   2.215   4.177 -0.0786  0.1495  0.1766
   62MOL   C29422376   2.139   2.290   4.313  0.2321  0.0130 -0.2513
   62MOL   C29522377   1.997   2.358   4.331  0.0562 -0.3129 -1.0655
   62MOL   H29622378   2.314   1.812   3.990 -0.2520  0.1829 -0.0611
   62MOL   H29722379   2.422   1.900   4.092 -0.5511  0.3283 -1.8764
   62MOL   H29822380   2.134   1.966   4.036  0.1090  0.7741 -0.2142
   62MOL   H29922381   2.344   2.153   4.169  0.1838 -0.4070  2.0173
   62MOL   H30022382   2.241   2.051   4.265 -2.0903 -2.9236 -1.2301
   62MOL   H30122383   2.162   2.299   4.113 -1.9883  1.2768  0.8992
   62MOL   H30222384   2.041   2.167   4.163 -0.8400  1.0433  2.2606
   62MOL   H30322385   2.225   2.357   4.314  2.2342 -2.3048 -4.2110
   62MOL   H30422386   2.163   2.226   4.398 -1.9974 -0.8640 -0.2488
   62MOL   H30522387   1.990   2.438   4.258  0.1138  2.8533  2.2736
   62MOL   H30622388   1.990   2.415   4.423 -0.5513 -0.0467 -1.2726
   62MOL   H30722389   1.905   2.302   4.316  2.2389 -3.8615 -1.8606
   62MOL   C30822390   2.266   2.086   3.912  0.7347  0.3667  0.7112
   62MOL   C30922391   2.167   2.052   3.796 -0.7528  0.3209 -0.0296
   62MOL   C31022392   2.153   1.901   3.763  0.4371 -0.0637  0.1116
   62MOL   C31122393   2.282   1.838   3.709  0.6518 -0.2432  0.6435
   62MOL   C31222394   2.286   1.682   3.718 -0.2725  0.1887 -0.1891
   62MOL   C31322395   2.422   1.624   3.671  0.4458 -0.9862  0.5811
   62MOL   H31422396   2.266   2.192   3.939  0.1628  0.7063 -0.5893
   62MOL   H31522397   2.372   2.074   3.891  0.5202  1.2373 -0.9173
   62MOL   H31622398   2.068   2.079   3.832 -0.9136 -0.4780  0.1298
   62MOL   H31722399   2.091   1.891   3.674  1.8222  2.8946 -1.2505
   62MOL   H31822400   2.123   1.845   3.852  1.6436  1.8786  1.7925
   62MOL   H31922401   2.365   1.875   3.769  1.4299 -1.5821  0.4139
   62MOL   H32022402   2.307   1.872   3.609 -2.2834 -3.1143 -1.1611
   62MOL   H32122403   2.267   1.651   3.821 -1.6197 -2.9272 -1.3091
   62MOL   H32222404   2.210   1.646   3.649 -0.8349  0.2438  0.3943
   62MOL   H32322405   2.514   1.651   3.723 -0.3088  1.2312  0.8344
   62MOL   H32422406   2.456   1.659   3.573  0.0020  1.0967  1.1324
   62MOL   H32522407   2.408   1.518   3.655  0.9060 -1.1150  1.0219
   62MOL   C32622408   2.186   2.148   3.680  0.3376 -0.3938  0.4515
   62MOL   C32722409   2.114   2.131   3.554  1.2523 -0.0510  0.4355
   62MOL   C32822410   1.966   2.161   3.565  0.1377 -0.4631  0.3163
   62MOL   C32922411   1.864   2.068   3.627 -0.2333  0.1184  0.3194
   62MOL   C33022412   1.726   2.117   3.610  0.2007 -0.3676  0.2399
   62MOL   C33122413   1.625   2.025   3.676  0.1937 -0.6163 -0.4714
   62MOL   H33222414   2.293   2.140   3.662 -0.0148 -0.2661 -1.8306
   62MOL   H33322415   2.186   2.248   3.722 -1.9790 -0.7908  1.5135
   62MOL   H33422416   2.113   2.029   3.518  2.1163  0.5537 -1.3902
   62MOL   H33522417   1.955   2.259   3.611  1.3176  0.3389 -1.0518
   62MOL   H33622418   1.932   2.175   3.462  0.4617 -1.7865  0.0159
   62MOL   H33722419   1.885   2.068   3.734 -2.9851  1.6493  0.9150
   62MOL   H33822420   1.872   1.975   3.571  2.8643 -0.0371  0.9692
   62MOL   H33922421   1.717   2.223   3.635  0.2612 -0.3771  0.2998
   62MOL   H34022422   1.701   2.110   3.504 -0.2341  0.7373  0.2623
   62MOL   H34122423   1.592   1.941   3.614  0.3652 -1.9130  1.1561
   62MOL   H34222424   1.537   2.082   3.708 -0.8882 -2.1345 -0.6487
   62MOL   H34322425   1.670   1.975   3.762  0.1946  0.8921  0.4153
   62MOL   C34422426   2.178   2.225   3.444  0.8751 -0.0504 -0.2108
   62MOL   C34522427   2.320   2.186   3.398  0.1074 -0.0633  0.7470
   62MOL   C34622428   2.366   2.290   3.280 -0.3380 -0.0293 -0.4150
   62MOL   C34722429   2.497   2.257   3.200 -0.4496 -0.0380  0.4905
   62MOL   C34822430   2.612   2.191   3.276  0.0276 -0.5497 -0.0554
   62MOL   C34922431   2.665   2.290   3.384 -0.1856  0.9225  1.0122
   62MOL   H35022432   2.117   2.226   3.353  1.2926  1.0084 -0.4884
   62MOL   H35122433   2.178   2.333   3.461 -1.4028  0.0562 -0.7716
   62MOL   H35222434   2.320   2.083   3.363 -0.2147 -0.0967  0.8384
   62MOL   H35322435   2.282   2.305   3.212 -0.6226 -0.2578 -0.1191
   62MOL   H35422436   2.388   2.388   3.323 -2.3100  1.6179 -2.9780
   62MOL   H35522437   2.471   2.189   3.119 -1.9721  0.8454  0.2304
   62MOL   H35622438   2.523   2.349   3.147  0.1477  0.1462  1.0956
   62MOL   H35722439   2.561   2.103   3.318 -1.8342  0.7483  0.4909
   62MOL   H35822440   2.693   2.141   3.224  0.1428 -1.8497  1.3266
   62MOL   H35922441   2.726   2.369   3.339 -0.0237 -0.6524 -1.6298
   62MOL   H36022442   2.590   2.340   3.446 -1.8520  1.0243 -1.0249
   62MOL   H36122443   2.727   2.241   3.459  0.1791 -2.2469 -1.2932
   62MOL   H36222444   2.391   2.184   3.480  2.1776 -1.7163 -1.0565
   63MOL     C122445   2.513   3.049   3.176  0.4983 -0.7887  0.5176
   63MOL     C222446   2.375   2.979   3.154 -0.5849  0.5665  0.1076
   63MOL     C322447   2.318   2.912   3.282  0.3678 -0.7235  0.1895
   63MOL     C422448   2.404   2.810   3.358  0.0597 -0.8605 -0.3389
   63MOL     C522449   2.323   2.746   3.471 -0.4076  0.3108 -0.6127
   63MOL     C622450   2.407   2.666   3.572  0.5237  0.8788  0.0520
   63MOL     H722451   2.530   3.118   3.093 -0.7857  0.6788  1.4564
   63MOL     H822452   2.527   3.102   3.270  0.0931 -0.7971  0.5830
   63MOL     H922453   2.308   3.062   3.136 -0.1171  0.4341 -2.4223
   63MOL    H1022454   2.221   2.866   3.262 -0.2288 -0.0769  1.5335
   63MOL    H1122455   2.290   2.991   3.352  2.1121 -0.1453  0.2504
   63MOL    H1222456   2.493   2.864   3.389 -0.4054 -0.9196  1.1618
   63MOL    H1322457   2.442   2.743   3.280  0.8218 -0.4447 -0.3302
   63MOL    H1422458   2.264   2.817   3.529 -1.8715 -1.5104  0.1674
   63MOL    H1522459   2.253   2.677   3.426 -2.0854  1.9385 -0.5866
   63MOL    H1622460   2.343   2.636   3.655  2.1303  1.5927  1.5797
   63MOL    H1722461   2.494   2.715   3.616 -0.2697  0.9605  1.5770
   63MOL    H1822462   2.454   2.576   3.532 -0.5849 -0.1268  0.9545
   63MOL    H1922463   2.587   2.969   3.173 -0.0278 -1.2864  0.7264
   63MOL    C2022464   2.371   2.885   3.030  0.2514  0.4222  0.5554
   63MOL    C2122465   2.367   2.963   2.897 -0.5679 -0.1334  0.0960
   63MOL    C2222466   2.461   2.904   2.786  0.2327 -0.3321 -0.1983
   63MOL    C2322467   2.465   2.987   2.654  0.2440  0.1228 -0.3493
   63MOL    C2422468   2.530   2.907   2.548 -0.1999 -0.1203  0.3552
   63MOL    C2522469   2.507   2.985   2.417  0.2784 -0.2291 -0.1680
   63MOL    H2622470   2.282   2.822   3.037  1.4251 -1.1754  1.3790
   63MOL    H2722471   2.448   2.808   3.037 -1.3349 -1.1058  1.9068
   63MOL    H2822472   2.410   3.061   2.913  0.1599 -0.1696 -1.5484
   63MOL    H2922473   2.424   2.802   2.775 -0.8849  0.0928 -0.5246
   63MOL    H3022474   2.563   2.901   2.824  0.8870  0.2211 -1.8385
   63MOL    H3122475   2.516   3.077   2.688  0.0654 -0.0388  0.3593
   63MOL    H3222476   2.367   3.018   2.618 -0.5994 -3.9250 -1.7887
   63MOL    H3322477   2.635   2.901   2.576 -0.0077  1.2804 -0.0118
   63MOL    H3422478   2.482   2.810   2.539  0.0986 -0.3989  1.7205
   63MOL    H3522479   2.404   3.008   2.390 -0.2481 -1.1439  1.0281
   63MOL    H3622480   2.550   3.085   2.427 -2.3850  1.1652 -2.1643
   63MOL    H3722481   2.563   2.942   2.334  1.9169  0.5861  0.4850
   63MOL    C3822482   2.223   2.994   2.846  0.2605 -0.2827 -0.3530
   63MOL    C3922483   2.142   2.896   2.758  0.1383 -0.2127 -0.2556
   63MOL    C4022484   2.105   2.760   2.834  0.8268 -0.1954 -0.8635
   63MOL    C4122485   2.016   2.772   2.961  0.9429  0.3486 -0.1215
   63MOL    C4222486   1.979   2.640   3.023 -0.2179 -0.2575  0.2050
   63MOL    C4322487   2.100   2.561   3.072  0.1301  0.1903 -0.0294
   63MOL    H4422488   2.231   3.097   2.811 -0.5732  0.9648  2.9599
   63MOL    H4522489   2.162   3.006   2.936  2.4473  0.8318  1.0327
   63MOL    H4622490   2.204   2.861   2.675 -2.6184 -1.4684 -1.8328
   63MOL    H4722491   2.055   2.694   2.764 -0.7507 -1.4227  1.3665
   63MOL    H4822492   2.196   2.706   2.863  0.6782 -1.0458 -1.9353
   63MOL    H4922493   2.066   2.845   3.024 -1.1892  1.5314  0.2520
   63MOL    H5022494   1.930   2.825   2.920  1.3836  1.5740  0.5082
   63MOL    H5122495   1.911   2.654   3.106 -0.7173 -1.5556  0.0285
   63MOL    H5222496   1.926   2.583   2.946 -0.5820  1.0538 -0.5232
   63MOL    H5322497   2.077   2.459   3.100  1.7529 -0.4757 -1.0380
   63MOL    H5422498   2.154   2.608   3.154 -0.7255  4.1996 -1.6521
   63MOL    H5522499   2.183   2.548   3.003  0.0856  0.4831 -0.1405
   63MOL    C5622500   2.032   2.978   2.699 -0.0960 -0.0612 -0.0817
   63MOL    C5722501   1.941   2.907   2.590 -0.5938  0.3318 -0.5434
   63MOL    C5822502   2.023   2.903   2.459 -0.2433  0.7940  0.5938
   63MOL    C5922503   2.023   2.754   2.405  0.0688  0.3345 -0.3239
   63MOL    C6022504   2.101   2.737   2.265  0.2313  0.1892 -0.3243
   63MOL    C6122505   2.238   2.679   2.293  0.2266  0.7423 -0.5829
   63MOL    H6222506   1.975   3.009   2.787  3.5659  0.3243  2.2932
   63MOL    H6322507   2.063   3.075   2.661  0.9127 -0.5621 -0.5496
   63MOL    H6422508   1.925   2.804   2.621 -0.3668  0.5209  0.1959
   63MOL    H6522509   1.985   2.975   2.387  1.4890  1.4286  0.2840
   63MOL    H6622510   2.125   2.935   2.477 -0.7448  0.7413  3.7638
   63MOL    H6722511   1.919   2.734   2.378  0.0972  0.7579 -0.7427
   63MOL    H6822512   2.049   2.681   2.482 -1.1483  2.1160  1.8372
   63MOL    H6922513   2.040   2.671   2.204 -0.6003 -0.3709  1.0990
   63MOL    H7022514   2.116   2.835   2.218 -1.9576 -0.0308 -1.5097
   63MOL    H7122515   2.285   2.690   2.196  2.5292  1.3645  0.5714
   63MOL    H7222516   2.300   2.738   2.360  0.0232 -1.5465  1.7162
   63MOL    H7322517   2.236   2.571   2.310 -1.9102  0.5443 -1.9525
   63MOL    C7422518   1.800   2.964   2.569 -0.4303 -0.5010 -0.1298
   63MOL    C7522519   1.690   2.940   2.672  0.1230  0.7858 -0.7620
   63MOL    C7622520   1.621   3.075   2.710  0.2699 -1.2343 -0.4159
   63MOL    C7722521   1.709   3.181   2.784 -0.0342 -0.1632 -0.2259
   63MOL    C7822522   1.639   3.310   2.823  0.0584  1.1831 -1.1585
   63MOL    C7922523   1.736   3.397   2.901 -0.4205  0.2976  0.2836
   63MOL    H8022524   1.806   3.072   2.557 -0.0022 -0.3589  1.2945
   63MOL    H8122525   1.763   2.947   2.468 -1.2100  0.3406  0.0139
   63MOL    H8222526   1.727   2.902   2.767 -0.1780  0.3508 -0.8136
   63MOL    H8322527   1.584   3.138   2.629 -0.8179 -0.3787  0.7189
   63MOL    H8422528   1.543   3.059   2.785  0.1219  3.1381  0.4807
   63MOL    H8522529   1.743   3.122   2.870  0.2864  0.1249 -0.1548
   63MOL    H8622530   1.788   3.227   2.724  1.3214 -0.6711  1.1313
   63MOL    H8722531   1.556   3.294   2.892 -1.0560  0.2095 -2.7064
   63MOL    H8822532   1.594   3.362   2.739 -0.3391  2.2695 -0.2904
   63MOL    H8922533   1.768   3.346   2.992 -0.8348  1.2072  0.9426
   63MOL    H9022534   1.826   3.419   2.842  1.8932 -2.4748  2.6167
   63MOL    H9122535   1.686   3.487   2.935 -0.8470  0.2526 -0.2218
   63MOL    C9222536   1.590   2.829   2.622  0.6172  0.3117  0.5058
   63MOL    C9322537   1.642   2.681   2.622  0.3542  0.1992  0.0934
   63MOL    C9422538   1.666   2.620   2.757 -0.0813 -0.4013 -0.6783
   63MOL    C9522539   1.744   2.486   2.751 -0.2080  0.2388  0.1006
   63MOL    C9622540   1.725   2.410   2.890 -0.2753 -0.1425  0.5371
   63MOL    C9722541   1.581   2.349   2.903  0.2887 -0.3019 -0.2096
   63MOL    H9822542   1.508   2.832   2.694 -0.9515  0.6383 -1.2574
   63MOL    H9922543   1.554   2.863   2.525  1.6847 -0.5890 -0.2231
   63MOL   H10022544   1.742   2.690   2.581 -0.0338 -3.6080 -1.9042
   63MOL   H10122545   1.570   2.589   2.800  0.3235 -0.4480  0.2138
   63MOL   H10222546   1.706   2.685   2.835 -1.8926  0.3324 -0.3257
   63MOL   H10322547   1.702   2.429   2.668  0.5560 -0.1086 -0.0524
   63MOL   H10422548   1.851   2.503   2.738  0.0505 -1.0799  0.5038
   63MOL   H10522549   1.795   2.326   2.893 -0.0856  0.0227  0.7353
   63MOL   H10622550   1.760   2.459   2.981  3.3173 -2.1360  0.3476
   63MOL   H10722551   1.575   2.271   2.980 -0.6407 -1.1762 -1.1525
   63MOL   H10822552   1.508   2.424   2.932  0.3762  0.1787 -1.2195
   63MOL   H10922553   1.566   2.297   2.809 -1.1970 -1.8641  0.8623
   63MOL   C11022554   1.552   2.596   2.530  0.2933  0.4002  0.5005
   63MOL   C11122555   1.612   2.567   2.393  0.3665  0.3265  0.6401
   63MOL   C11222556   1.593   2.692   2.294 -0.6697  0.5523 -0.3366
   63MOL   C11322557   1.666   2.697   2.155 -0.0761  0.4138  0.2402
   63MOL   C11422558   1.654   2.837   2.093  0.2972 -0.6821  0.0930
   63MOL   C11522559   1.755   2.947   2.127 -1.0441 -0.0125 -0.1637
   63MOL   H11622560   1.531   2.499   2.575 -0.9739  0.7074  0.5891
   63MOL   H11722561   1.450   2.634   2.525 -0.8445 -2.4523  0.7220
   63MOL   H11822562   1.717   2.551   2.417  0.9048  3.2512  0.4731
   63MOL   H11922563   1.609   2.785   2.348 -1.6786  0.7008 -0.2756
   63MOL   H12022564   1.485   2.694   2.277 -0.4550 -1.6159 -2.0960
   63MOL   H12122565   1.630   2.621   2.086 -0.3207  0.9124 -0.1906
   63MOL   H12222566   1.766   2.657   2.167 -0.1326 -1.1734 -3.8413
   63MOL   H12322567   1.554   2.877   2.110  0.1609  0.0084 -2.1868
   63MOL   H12422568   1.654   2.816   1.986  0.0737  2.0974 -0.4955
   63MOL   H12522569   1.724   3.019   2.202 -1.1412 -0.1655 -0.0563
   63MOL   H12622570   1.849   2.904   2.161  0.2959  0.2214 -3.3396
   63MOL   H12722571   1.779   2.999   2.034 -1.4435 -1.2454 -0.9702
   63MOL   C12822572   1.556   2.435   2.334  0.4854 -0.1556 -0.1217
   63MOL   C12922573   1.588   2.298   2.394  0.2113 -0.3714 -0.7131
   63MOL   C13022574   1.727   2.257   2.334 -0.2001  0.1552 -0.4211
   63MOL   C13122575   1.792   2.143   2.411  0.1698 -0.1543  0.0387
   63MOL   C13222576   1.924   2.097   2.348 -0.1759  0.0190 -0.0796
   63MOL   C13322577   1.955   1.956   2.394 -0.1962  0.5609 -0.1715
   63MOL   H13422578   1.586   2.435   2.230  2.3543 -1.3713  0.3871
   63MOL   H13522579   1.448   2.445   2.328  0.5558  0.9510  0.3552
   63MOL   H13622580   1.591   2.303   2.503 -1.6287  1.6708 -0.7187
   63MOL   H13722581   1.714   2.236   2.228 -1.4041  0.7344 -0.3923
   63MOL   H13822582   1.805   2.333   2.339  1.1376 -1.2116  0.0209
   63MOL   H13922583   1.723   2.059   2.412 -1.3298  1.0627  0.3937
   63MOL   H14022584   1.805   2.169   2.516  0.7750  0.0271 -0.0789
   63MOL   H14122585   1.926   2.103   2.240  1.5720 -1.6515 -0.1589
   63MOL   H14222586   2.010   2.162   2.361  0.6460 -0.9451 -0.6264
   63MOL   H14322587   1.959   1.948   2.503 -0.0229 -0.5438 -0.2560
   63MOL   H14422588   2.050   1.929   2.349  0.4430  1.1627  0.7828
   63MOL   H14522589   1.883   1.884   2.356  1.5480 -2.8093  2.6693
   63MOL   C14622590   1.475   2.201   2.351  0.2956 -0.8181 -0.6640
   63MOL   C14722591   1.362   2.184   2.462  0.4977  0.1276  0.6437
   63MOL   C14822592   1.421   2.100   2.579 -0.2068 -0.9470 -0.0889
   63MOL   C14922593   1.325   2.085   2.701 -0.2046  0.5706 -0.6322
   63MOL   C15022594   1.392   2.034   2.826 -0.1992  0.1872 -0.4310
   63MOL   C15122595   1.281   1.999   2.925  1.1721 -0.2509 -0.0247
   63MOL   H15222596   1.428   2.236   2.259 -0.7580  2.2171  0.9386
   63MOL   H15322597   1.514   2.101   2.335 -0.6243 -1.3416  0.2721
   63MOL   H15422598   1.322   2.279   2.498  2.4175  0.8511  0.9278
   63MOL   H15522599   1.507   2.149   2.624 -0.4243  1.4493 -2.1643
   63MOL   H15622600   1.462   2.005   2.545 -0.9297 -0.7854 -1.4856
   63MOL   H15722601   1.283   2.184   2.714 -0.2667  0.4786 -0.1194
   63MOL   H15822602   1.240   2.022   2.672  1.1178 -1.4312 -0.2868
   63MOL   H15922603   1.448   2.119   2.865  0.6872 -1.2446  1.4625
   63MOL   H16022604   1.447   1.944   2.799 -1.3066  0.0377 -2.3191
   63MOL   H16122605   1.328   1.951   3.011  1.2945 -2.0951 -1.0867
   63MOL   H16222606   1.222   2.087   2.952 -0.3300 -0.9770 -0.8846
   63MOL   H16322607   1.196   1.941   2.890  0.7917  0.3568 -0.1108
   63MOL   C16422608   1.255   2.110   2.382  0.0414 -0.3389  0.3431
   63MOL   C16522609   1.134   2.198   2.343 -0.1624 -0.3768 -0.4294
   63MOL   C16622610   1.164   2.333   2.269  0.5921  0.1192 -0.3602
   63MOL   C16722611   1.200   2.323   2.123 -0.3583  0.1725  0.7154
   63MOL   C16822612   1.233   2.449   2.043  0.6718 -0.2680  0.3732
   63MOL   C16922613   1.233   2.432   1.890 -0.3475  0.4525  1.0136
   63MOL   H17022614   1.294   2.050   2.300  1.6528 -1.7250  2.0629
   63MOL   H17122615   1.214   2.029   2.442 -1.8528 -0.3949 -0.9801
   63MOL   H17222616   1.095   2.228   2.440 -2.2684 -1.2948 -0.9463
   63MOL   H17322617   1.244   2.383   2.325  1.5408 -1.2343 -0.4775
   63MOL   H17422618   1.076   2.397   2.274  1.2642  1.0449 -0.1707
   63MOL   H17522619   1.117   2.276   2.070  1.7240 -1.3929 -1.2678
   63MOL   H17622620   1.278   2.249   2.106  1.4341  1.7070  2.0763
   63MOL   H17722621   1.334   2.473   2.075  1.1376 -2.3019  0.5403
   63MOL   H17822622   1.160   2.526   2.070 -2.3115 -3.2218  1.1047
   63MOL   H17922623   1.284   2.518   1.846  0.2480 -1.0497 -1.2825
   63MOL   H18022624   1.132   2.428   1.850 -0.7317  0.2593  1.9761
   63MOL   H18122625   1.281   2.339   1.859 -0.8459  0.8150 -0.8676
   63MOL   C18222626   1.030   2.098   2.284  0.1610  0.0810 -0.0180
   63MOL   C18322627   0.889   2.152   2.234 -0.5353 -0.4019 -0.3901
   63MOL   C18422628   0.796   2.161   2.354 -0.6002 -0.4442  0.5286
   63MOL   C18522629   0.673   2.249   2.338  0.1267 -0.7355 -0.0517
   63MOL   C18622630   0.583   2.238   2.460  0.2957 -0.3306  0.6971
   63MOL   C18722631   0.455   2.317   2.450  0.0798  0.3402  0.0300
   63MOL   H18822632   1.072   2.056   2.193 -2.1482 -1.3455 -0.4925
   63MOL   H18922633   1.018   2.020   2.360 -0.3089 -1.2155 -1.3838
   63MOL   H19022634   0.903   2.256   2.207  0.3379 -0.5407 -0.4947
   63MOL   H19122635   0.775   2.057   2.380 -0.1950 -0.7702 -0.4170
   63MOL   H19222636   0.843   2.194   2.446 -0.1867 -0.1762  0.2275
   63MOL   H19322637   0.623   2.231   2.243 -1.3553  0.9714  0.3674
   63MOL   H19422638   0.692   2.356   2.330  2.4608 -1.3194 -2.9317
   63MOL   H19522639   0.634   2.283   2.546 -0.7921  1.7966  0.2690
   63MOL   H19622640   0.563   2.133   2.479 -0.5062  0.1218  2.4679
   63MOL   H19722641   0.478   2.423   2.442  1.4097 -0.0131 -1.1215
   63MOL   H19822642   0.392   2.296   2.537  1.1906  0.0187  0.7548
   63MOL   H19922643   0.404   2.283   2.359  0.6494 -0.0852 -0.1305
   63MOL   C20022644   0.826   2.070   2.112  0.5135 -0.1630 -0.1924
   63MOL   C20122645   0.750   1.936   2.135 -0.7460 -0.1618 -0.8626
   63MOL   C20222646   0.682   1.889   2.005  0.0550  0.0701  0.4461
   63MOL   C20322647   0.591   1.990   1.932  0.1220  0.1900 -0.0626
   63MOL   C20422648   0.493   1.920   1.841  0.3206  0.4665  0.4240
   63MOL   C20522649   0.376   1.853   1.913  0.4624 -0.5668 -0.9643
   63MOL   H20622650   0.897   2.053   2.031  0.1714  0.4279 -0.6198
   63MOL   H20722651   0.752   2.134   2.064  1.9126  2.2381  0.8038
   63MOL   H20822652   0.669   1.961   2.204  0.3474  1.6288 -0.1928
   63MOL   H20922653   0.612   1.807   2.024  2.1314 -2.0823 -0.8035
   63MOL   H21022654   0.764   1.857   1.940 -0.5046 -0.1307 -0.1677
   63MOL   H21122655   0.654   2.064   1.884 -0.3745  0.0328 -0.9720
   63MOL   H21222656   0.531   2.047   2.002 -0.4823  0.4831 -0.8114
   63MOL   H21322657   0.555   1.847   1.789 -0.4830 -0.1378  0.3111
   63MOL   H21422658   0.455   1.990   1.766 -2.3966  0.7066  1.9703
   63MOL   H21522659   0.303   1.927   1.948  0.4697 -1.6302  1.3578
   63MOL   H21622660   0.313   1.793   1.847 -0.5352 -0.7750  0.1596
   63MOL   H21722661   0.413   1.787   1.991 -1.0259 -0.7414 -0.3927
   63MOL   C21822662   0.827   1.825   2.203  0.0770 -0.0060 -0.5310
   63MOL   C21922663   0.750   1.701   2.258 -0.3775  0.5481 -0.0866
   63MOL   C22022664   0.710   1.739   2.406  0.3962 -0.2106 -0.5333
   63MOL   C22122665   0.611   1.655   2.491 -0.5192  0.6005  0.3030
   63MOL   C22222666   0.593   1.712   2.633 -0.1231  0.2905 -0.4281
   63MOL   C22322667   0.498   1.634   2.710  0.6755  0.3994  0.4454
   63MOL   H22422668   0.893   1.791   2.123 -0.5701 -0.5000 -0.8580
   63MOL   H22522669   0.897   1.853   2.282  0.2927 -2.8449  0.3166
   63MOL   H22622670   0.662   1.679   2.197 -1.5243 -0.4591  1.8621
   63MOL   H22722671   0.668   1.840   2.400  1.0649  0.1826  1.0799
   63MOL   H22822672   0.801   1.759   2.464  1.6020 -0.1018 -2.4143
   63MOL   H22922673   0.662   1.559   2.506 -0.0161  0.9377  0.7703
   63MOL   H23022674   0.520   1.651   2.431 -1.0222  0.3546  1.0722
   63MOL   H23122675   0.676   1.707   2.703 -2.4152  3.2622  2.6293
   63MOL   H23222676   0.570   1.818   2.622 -1.9687  0.2483  2.6985
   63MOL   H23322677   0.393   1.652   2.686  0.6946 -0.0119  0.0566
   63MOL   H23422678   0.522   1.645   2.816  2.4294 -0.0348  0.1126
   63MOL   H23522679   0.520   1.529   2.691 -1.2388  0.0167  0.2394
   63MOL   C23622680   0.840   1.573   2.256  0.1988  0.6101 -0.1149
   63MOL   C23722681   0.891   1.515   2.114 -0.0725 -0.6686 -0.0193
   63MOL   C23822682   0.831   1.383   2.073 -0.4541 -0.3281  0.6879
   63MOL   C23922683   0.681   1.388   2.048  0.5090  0.3281  0.2824
   63MOL   C24022684   0.638   1.410   1.900  0.0901  0.3155 -0.0500
   63MOL   C24122685   0.491   1.449   1.888 -0.4217 -0.0433 -0.1708
   63MOL   H24222686   0.930   1.583   2.317  1.7727  0.8279 -2.4279
   63MOL   H24322687   0.788   1.496   2.313 -1.6212  1.2929 -0.8433
   63MOL   H24422688   0.861   1.584   2.035  3.9227 -0.7403 -1.7078
   63MOL   H24522689   0.887   1.353   1.985  0.3157 -1.5680  1.5732
   63MOL   H24622690   0.866   1.313   2.149  1.8681  2.2387  2.0593
   63MOL   H24722691   0.629   1.458   2.113  0.2709  1.1142 -0.7420
   63MOL   H24822692   0.641   1.292   2.082  0.9764 -0.0064 -0.0866
   63MOL   H24922693   0.690   1.493   1.852  1.9300 -1.6572 -1.5536
   63MOL   H25022694   0.657   1.321   1.840  0.5998  0.4514 -0.0921
   63MOL   H25122695   0.467   1.465   1.783 -0.3996 -0.8047 -0.2980
   63MOL   H25222696   0.433   1.363   1.923 -0.3582  0.2747  0.7302
   63MOL   H25322697   0.467   1.537   1.949  0.6679  0.6313 -0.7043
   63MOL   C25422698   1.040   1.513   2.098 -0.1245 -0.1953 -0.8350
   63MOL   C25522699   1.105   1.528   1.959  0.1163  0.8330 -0.4433
   63MOL   C25622700   1.256   1.496   1.961  0.0259  0.7410  0.6050
   63MOL   C25722701   1.309   1.368   2.031 -0.1876  0.6550 -0.1007
   63MOL   C25822702   1.456   1.331   1.994  0.0679 -0.0554  0.0673
   63MOL   C25922703   1.495   1.191   2.030 -0.1810  0.3789  0.0294
   63MOL   H26022704   1.088   1.431   2.152 -0.4433  0.6742  0.7934
   63MOL   H26122705   1.078   1.596   2.157 -1.6799  1.1752 -1.7246
   63MOL   H26222706   1.057   1.446   1.906  1.2818 -0.6719  0.7676
   63MOL   H26322707   1.289   1.486   1.858 -0.6697 -0.9085  0.5432
   63MOL   H26422708   1.315   1.578   2.004  1.4600 -0.6713  1.4093
   63MOL   H26522709   1.288   1.371   2.138  0.6155 -2.1890  0.1805
   63MOL   H26622710   1.251   1.284   1.991  1.9085 -0.8387 -0.0853
   63MOL   H26722711   1.529   1.393   2.046 -0.0211 -0.3990  0.6066
   63MOL   H26822712   1.458   1.341   1.885 -1.2276 -1.1503 -0.0636
   63MOL   H26922713   1.580   1.153   1.973 -0.6829  2.4689 -2.1963
   63MOL   H27022714   1.409   1.126   2.013  0.2090 -0.2487  0.4373
   63MOL   H27122715   1.523   1.196   2.135 -0.7004  1.2665  0.1385
   63MOL   C27222716   1.092   1.670   1.906  0.2323  0.2711 -0.6158
   63MOL   C27322717   1.134   1.688   1.758  0.0349 -0.3934 -0.7106
   63MOL   C27422718   1.143   1.837   1.725  0.2900 -0.5517 -0.1856
   63MOL   C27522719   1.007   1.910   1.726  1.2929 -1.2400  0.0513
   63MOL   C27622720   1.020   2.062   1.697  0.0357 -0.5975 -0.1387
   63MOL   C27722721   0.889   2.118   1.637 -0.0998  0.3214 -0.0277
   63MOL   H27822722   0.989   1.704   1.916  0.3890  0.4377  0.4838
   63MOL   H27922723   1.145   1.741   1.969  1.1501 -0.8991 -0.0539
   63MOL   H28022724   1.237   1.654   1.756 -0.0798 -0.7423 -0.7714
   63MOL   H28122725   1.203   1.837   1.633  2.4417  1.1639  1.1747
   63MOL   H28222726   1.204   1.881   1.804  1.5002 -3.5091  0.5609
   63MOL   H28322727   0.955   1.886   1.819  0.6617  2.1335  0.6451
   63MOL   H28422728   0.952   1.860   1.646 -0.1713  1.1435 -0.4823
   63MOL   H28522729   1.047   2.116   1.788 -0.6591 -0.5923  0.0685
   63MOL   H28622730   1.104   2.088   1.632  0.9132 -1.6745  0.5390
   63MOL   H28722731   0.859   2.064   1.547  2.8664 -0.8613 -0.3601
   63MOL   H28822732   0.814   2.121   1.715  0.4702 -1.3161  0.6097
   63MOL   H28922733   0.925   2.218   1.611 -0.3290  0.0078 -1.5891
   63MOL   C29022734   1.050   1.598   1.663 -0.2316 -0.3988  0.6687
   63MOL   C29122735   1.111   1.579   1.527  0.5380  0.4823 -0.1582
   63MOL   C29222736   1.221   1.469   1.526  0.4665 -0.4412 -0.1025
   63MOL   C29322737   1.327   1.484   1.414 -1.4875 -0.1433  0.3117
   63MOL   C29422738   1.435   1.380   1.431 -0.6140 -0.2569 -0.4228
   63MOL   C29522739   1.558   1.400   1.338 -0.0662 -0.1489 -0.0142
   63MOL   H29622740   0.949   1.633   1.641  0.0084 -1.1892 -1.8166
   63MOL   H29722741   1.033   1.501   1.711 -1.1383 -1.7143 -2.1813
   63MOL   H29822742   1.165   1.670   1.503 -1.8879  2.1034  0.2753
   63MOL   H29922743   1.176   1.370   1.521 -0.8759  0.2217 -2.0065
   63MOL   H30022744   1.272   1.478   1.621 -2.0866  2.3777  1.0895
   63MOL   H30122745   1.283   1.476   1.315 -2.1789  0.6764  0.5427
   63MOL   H30222746   1.357   1.589   1.412  0.3751 -0.5936  2.4169
   63MOL   H30322747   1.396   1.281   1.406 -1.1850  0.0216 -0.6435
   63MOL   H30422748   1.469   1.389   1.534 -2.4850  2.0423  0.0373
   63MOL   H30522749   1.542   1.375   1.233  3.7925  1.0601 -0.9651
   63MOL   H30622750   1.638   1.330   1.364  0.2656  0.2201 -0.0359
   63MOL   H30722751   1.595   1.502   1.350  0.3935 -0.2930 -0.2209
   63MOL   C30822752   1.009   1.554   1.411  0.9225 -0.3926 -0.1269
   63MOL   C30922753   0.923   1.682   1.371 -0.1033  0.5680 -0.0324
   63MOL   C31022754   0.775   1.654   1.409 -0.3820  0.6162  0.6696
   63MOL   C31122755   0.681   1.772   1.402  0.0371  0.5942  0.0469
   63MOL   C31222756   0.546   1.733   1.475 -0.3080 -0.0263  0.6525
   63MOL   C31322757   0.436   1.840   1.465 -0.1216  0.1667  0.3484
   63MOL   H31422758   1.053   1.514   1.320  0.4328  0.1444 -0.5997
   63MOL   H31522759   0.942   1.475   1.447  0.4020 -0.0735 -0.3903
   63MOL   H31622760   0.947   1.777   1.417  1.5701  0.6112 -0.9572
   63MOL   H31722761   0.778   1.619   1.512  3.2483 -0.6728  0.2009
   63MOL   H31822762   0.742   1.578   1.339  0.2432  0.8094  0.1575
   63MOL   H31922763   0.664   1.804   1.299 -1.1740 -1.1578 -0.3191
   63MOL   H32022764   0.726   1.849   1.465  1.1023 -1.0575  1.3619
   63MOL   H32122765   0.510   1.642   1.427 -0.2098 -0.2151  0.9357
   63MOL   H32222766   0.567   1.704   1.577 -1.9933 -0.7178  0.8214
   63MOL   H32322767   0.469   1.926   1.523 -0.9589 -1.1069  2.7835
   63MOL   H32422768   0.353   1.786   1.511  0.2234 -1.1353 -0.5389
   63MOL   H32522769   0.414   1.852   1.359 -2.7558  0.0340  0.8564
   63MOL   C32622770   0.945   1.729   1.220  0.5737  0.0104  0.2513
   63MOL   C32722771   1.084   1.767   1.182  0.8829 -0.6444 -0.2987
   63MOL   C32822772   1.097   1.781   1.028  0.5439 -0.0972  0.0134
   63MOL   C32922773   1.237   1.800   0.981 -0.9882  0.5124 -0.5464
   63MOL   C33022774   1.243   1.822   0.829  0.3364 -1.0934 -0.1173
   63MOL   C33122775   1.382   1.835   0.769 -0.1774 -0.1216  0.3795
   63MOL   H33222776   0.862   1.796   1.197 -0.5540 -1.0704  1.1060
   63MOL   H33322777   0.913   1.649   1.154 -0.5996 -0.5486  1.4650
   63MOL   H33422778   1.167   1.701   1.207  1.4215 -0.4961 -1.6396
   63MOL   H33522779   1.053   1.697   0.974 -0.9247  1.1949 -0.8411
   63MOL   H33622780   1.021   1.853   0.999  3.0869  1.4955 -3.0707
   63MOL   H33722781   1.301   1.716   1.007 -0.4812  1.6944  2.1407
   63MOL   H33822782   1.278   1.896   1.012  1.2155  0.1474 -2.1509
   63MOL   H33922783   1.200   1.733   0.781 -0.2006 -0.5604 -0.6374
   63MOL   H34022784   1.188   1.909   0.793  1.5909 -0.2952 -0.1007
   63MOL   H34122785   1.440   1.905   0.830 -1.7867  1.5562  0.0120
   63MOL   H34222786   1.387   1.861   0.663  4.2056 -1.0301  0.2490
   63MOL   H34322787   1.439   1.742   0.775  3.8771  2.0627 -1.5132
   63MOL   C34422788   1.125   1.904   1.248 -0.0796 -0.1607  0.0085
   63MOL   C34522789   1.037   2.026   1.210 -0.2070  0.5449  0.6864
   63MOL   C34622790   1.112   2.165   1.222 -0.1145  0.2209  1.0222
   63MOL   C34722791   1.137   2.217   1.369  0.7708  0.3216 -0.2289
   63MOL   C34822792   1.257   2.311   1.371 -0.6388  0.2798  0.1393
   63MOL   C34922793   1.300   2.368   1.512  0.3460  0.4721 -0.1507
   63MOL   H35022794   1.110   1.890   1.355 -0.4153 -0.1038 -0.0306
   63MOL   H35122795   1.230   1.930   1.232  0.0325 -1.4989 -1.5507
   63MOL   H35222796   0.949   2.030   1.273 -0.6259 -0.0392  0.1415
   63MOL   H35322797   1.199   2.163   1.158 -0.9655 -1.6393 -0.1211
   63MOL   H35422798   1.041   2.220   1.160 -0.6336 -0.8133  0.6725
   63MOL   H35522799   1.037   2.246   1.400  0.4285  0.2331 -1.2448
   63MOL   H35622800   1.171   2.134   1.430  0.0166 -0.2768 -0.6159
   63MOL   H35722801   1.337   2.247   1.334 -0.1480  0.8570  0.1929
   63MOL   H35822802   1.250   2.386   1.292 -1.3838  2.1706  1.9552
   63MOL   H35922803   1.405   2.400   1.509  0.1920  0.9119 -1.0126
   63MOL   H36022804   1.238   2.452   1.542  2.6548  2.7036 -1.3879
   63MOL   H36122805   1.298   2.294   1.592  1.2350  0.1569 -0.4116
   63MOL   H36222806   1.001   2.023   1.107 -2.0741 -0.7547  1.3617
   64MOL     C122807   7.126   6.605   3.440 -0.3019  0.1764 -0.2817
   64MOL     C222808   7.260   6.673   3.412 -0.3837  1.0777 -0.0720
   64MOL     C322809   7.376   6.645   3.512  0.1156 -0.0835  0.0767
   64MOL     C422810   7.401   6.501   3.544  0.0078  0.3453 -0.2975
   64MOL     C522811   7.525   6.464   3.630  0.9649  0.0292 -0.1816
   64MOL     C622812   7.656   6.490   3.555 -0.5102 -0.7035  0.4526
   64MOL     H722813   7.055   6.602   3.357 -2.2751  0.8581  1.3527
   64MOL     H822814   7.151   6.499   3.444  2.1359  0.7857  1.9660
   64MOL     H922815   7.304   6.634   3.320  0.1967 -0.7461  0.9537
   64MOL    H1022816   7.363   6.700   3.606 -1.0674  1.5717 -1.0382
   64MOL    H1122817   7.467   6.693   3.475 -0.2534 -1.4390 -2.6228
   64MOL    H1222818   7.404   6.442   3.453  1.0164 -1.5534  0.9436
   64MOL    H1322819   7.312   6.469   3.598  0.4854  1.3265  1.1215
   64MOL    H1422820   7.524   6.527   3.719  2.4941 -0.5390  0.2497
   64MOL    H1522821   7.513   6.363   3.669  0.6000  0.3639  0.5884
   64MOL    H1622822   0.010   6.442   3.611 -0.9604 -1.2766  0.6145
   64MOL    H1722823   7.678   6.591   3.521  0.5775 -1.4941 -1.2591
   64MOL    H1822824   7.644   6.436   3.461 -0.6237 -0.0885  0.1185
   64MOL    H1922825   7.071   6.641   3.527  1.2357 -1.7453  1.5232
   64MOL    C2022826   7.240   6.821   3.386 -0.0819  0.4304  0.5530
   64MOL    C2122827   7.351   6.893   3.306 -0.5621 -0.3551 -0.2363
   64MOL    C2222828   7.326   6.885   3.149 -0.5598  0.2896  0.0079
   64MOL    C2322829   7.450   6.901   3.064 -0.6098 -0.3870  0.0195
   64MOL    C2422830   7.427   6.883   2.909 -0.4602 -0.3224 -0.1918
   64MOL    C2522831   7.557   6.901   2.827  0.0081  0.1646  0.4904
   64MOL    H2622832   7.235   6.868   3.485 -0.9671  1.3834  0.0654
   64MOL    H2722833   7.148   6.832   3.329 -2.8817 -3.6319  3.9996
   64MOL    H2822834   7.447   6.851   3.335 -0.5255  0.4909  0.9320
   64MOL    H2922835   7.237   6.941   3.119 -1.5492 -1.8768 -1.2685
   64MOL    H3022836   7.299   6.783   3.122  0.6690  0.6195 -2.6258
   64MOL    H3122837   7.524   6.827   3.094 -0.3177  0.0699  0.4407
   64MOL    H3222838   7.497   6.999   3.075 -2.7095  0.7670 -1.0013
   64MOL    H3322839   7.389   6.785   2.882  0.1426 -0.6553  0.1527
   64MOL    H3422840   7.358   6.959   2.872 -0.8703 -1.3745 -1.6115
   64MOL    H3522841   7.608   6.994   2.853  2.3487 -1.9667  3.9557
   64MOL    H3622842   7.632   6.825   2.847 -1.3218 -1.1859  0.4313
   64MOL    H3722843   7.541   6.896   2.719  0.5213 -0.8727  0.4559
   64MOL    C3822844   7.353   7.051   3.336 -0.2001  0.3351 -0.9628
   64MOL    C3922845   7.410   7.097   3.482 -0.0218 -1.3632 -0.0890
   64MOL    C4022846   7.541   7.027   3.515  0.1546  0.6271  0.0313
   64MOL    C4122847   7.593   7.056   3.659 -0.1223 -0.4316 -0.1971
   64MOL    C4222848   0.019   7.060   3.668  0.6957  0.2883  0.0625
   64MOL    C4322849   0.060   7.087   3.812 -0.2487 -0.5166 -0.3954
   64MOL    H4422850   7.254   7.096   3.328 -0.5494 -0.1926  0.1808
   64MOL    H4522851   7.405   7.096   3.251 -1.8892 -0.6223 -2.5428
   64MOL    H4622852   7.335   7.070   3.557  0.4680 -0.8758  0.5854
   64MOL    H4722853   7.528   6.919   3.504 -3.7283  0.9529  0.4566
   64MOL    H4822854   7.622   7.056   3.449  0.7997  1.3695  1.1331
   64MOL    H4922855   7.562   7.152   3.700 -0.3602 -0.7688  0.4293
   64MOL    H5022856   7.549   6.980   3.724 -1.2740 -0.2566 -0.7503
   64MOL    H5122857   0.057   6.959   3.655 -0.2262 -0.0225 -0.2255
   64MOL    H5222858   0.077   7.129   3.606  3.2142 -0.1137  1.8793
   64MOL    H5322859   0.011   7.021   3.883 -4.0805 -0.0026 -2.4736
   64MOL    H5422860   0.035   7.191   3.833 -0.9025 -0.6310 -0.6109
   64MOL    H5522861   0.168   7.080   3.825  0.3847  2.5407 -3.2917
   64MOL    C5622862   7.435   7.248   3.484  0.5553 -0.3870 -0.4045
   64MOL    C5722863   7.330   7.345   3.420 -0.2091  0.0702 -0.4560
   64MOL    C5822864   7.368   7.498   3.416  0.1537 -0.2550  0.1759
   64MOL    C5922865   7.501   7.545   3.352 -0.6208  0.5685  0.7058
   64MOL    C6022866   7.540   7.690   3.380 -0.6144 -0.1394  0.6689
   64MOL    C6122867   7.676   0.000   3.318 -0.4207  0.2346 -0.6011
   64MOL    H6222868   7.432   7.278   3.589 -1.4211  1.8844 -1.0592
   64MOL    H6322869   7.534   7.275   3.446  1.2862 -0.1144  1.5949
   64MOL    H6422870   7.326   7.313   3.316 -1.9392  0.7704 -0.6189
   64MOL    H6522871   7.291   7.551   3.361  0.4006  0.7402  0.7851
   64MOL    H6622872   7.357   7.537   3.518 -1.7007  1.1023 -0.5153
   64MOL    H6722873   7.511   7.513   3.248 -0.7712  1.9466  0.2512
   64MOL    H6822874   7.581   7.490   3.401 -0.7621 -1.8141 -1.6265
   64MOL    H6922875   7.468   0.039   3.348 -0.0099 -0.6156 -1.9171
   64MOL    H7022876   7.544   7.707   3.488  0.0568  2.7886  0.2119
   64MOL    H7122877   0.016   7.652   3.358 -1.4724 -0.0111  0.7205
   64MOL    H7222878   7.674   0.002   3.209  0.7762 -0.7250 -0.6515
   64MOL    H7322879   7.707   0.095   3.361 -0.1475 -0.0688 -0.1280
   64MOL    C7422880   7.195   7.328   3.489  0.8207  0.0273  0.0071
   64MOL    C7522881   7.080   7.411   3.431 -0.1909 -0.7362 -0.1744
   64MOL    C7622882   7.063   7.404   3.284 -0.3755  0.2199 -0.2537
   64MOL    C7722883   7.005   7.274   3.227  0.4024  0.3332  0.1497
   64MOL    C7822884   7.007   7.265   3.076 -0.6755  0.3161 -0.0261
   64MOL    C7922885   7.139   7.227   3.010  0.1911 -0.0565  0.4723
   64MOL    H8022886   7.155   7.227   3.493  0.2075  0.2803  0.2945
   64MOL    H8122887   7.202   7.351   3.595  3.4993  1.4427 -0.4261
   64MOL    H8222888   7.113   7.512   3.458  0.9234 -0.9410 -0.7377
   64MOL    H8322889   6.986   7.478   3.260 -1.1840  0.2372  2.1719
   64MOL    H8422890   7.154   7.427   3.230  0.0010 -0.0210  0.2696
   64MOL    H8522891   7.046   7.190   3.283  1.8109 -0.2952 -1.7792
   64MOL    H8622892   6.902   7.273   3.262  0.6269 -0.5111  0.8027
   64MOL    H8722893   6.956   7.349   3.028  1.0628  1.3093 -0.1598
   64MOL    H8822894   6.936   7.184   3.057  0.6513 -0.8020 -0.2851
   64MOL    H8922895   7.187   7.142   3.060  0.2291 -0.5583 -0.4132
   64MOL    H9022896   7.142   7.197   2.906  1.4083 -0.6924  0.6774
   64MOL    H9122897   7.209   7.309   3.025 -1.1504  0.9090  1.6623
   64MOL    C9222898   6.950   7.382   3.518 -0.3373 -0.7337 -0.2251
   64MOL    C9322899   6.832   7.488   3.496  0.3285 -0.4346  0.1955
   64MOL    C9422900   6.703   7.437   3.562 -0.2323 -0.2300  0.5865
   64MOL    C9522901   6.626   7.340   3.479 -0.0600 -0.3970  0.1984
   64MOL    C9622902   6.480   7.325   3.531 -1.0397 -0.0277 -0.1398
   64MOL    C9722903   6.386   7.444   3.512 -0.2782 -0.2137  0.1303
   64MOL    H9822904   6.918   7.286   3.479  2.5563 -1.5409 -0.7290
   64MOL    H9922905   6.981   7.375   3.622  0.8798 -1.3766 -0.6238
   64MOL   H10022906   6.802   7.491   3.391  0.3588 -0.9395  0.1717
   64MOL   H10122907   6.649   7.520   3.608  0.1495  1.1045 -1.3016
   64MOL   H10222908   6.724   7.373   3.648  2.4570 -0.4308 -0.1501
   64MOL   H10322909   6.618   7.378   3.377  0.6746 -1.2501 -0.1797
   64MOL   H10422910   6.667   7.240   3.469  1.5960  0.4101 -1.4216
   64MOL   H10522911   6.444   7.235   3.482  1.7106 -1.3358  0.1809
   64MOL   H10622912   6.469   7.308   3.638  0.3908  0.3539  0.0813
   64MOL   H10722913   6.414   7.539   3.558 -3.2259 -0.7182  3.1444
   64MOL   H10822914   6.391   7.457   3.404 -0.3224 -0.8774  0.0475
   64MOL   H10922915   6.288   7.413   3.547 -0.9755  1.8312  0.0417
   64MOL   C11022916   6.861   7.635   3.533  0.7089 -0.0552 -0.2326
   64MOL   C11122917   6.765   0.023   3.484  0.1544  0.2348 -0.1265
   64MOL   C11222918   6.774   0.032   3.329 -0.4794 -0.0967 -0.1185
   64MOL   C11322919   6.624   0.035   3.279  0.6590  0.2715  0.0946
   64MOL   C11422920   6.613   0.041   3.125  0.0343  0.0756  0.2764
   64MOL   C11522921   6.481   0.048   3.064 -0.1305 -0.0150  0.8427
   64MOL   H11622922   6.861   7.639   3.642 -0.0721  1.4208 -0.2707
   64MOL   H11722923   6.963   7.665   3.511  1.0357 -0.1560  1.0756
   64MOL   H11822924   6.664   0.014   3.524  0.5657 -0.5866  0.7681
   64MOL   H11922925   6.832   7.679   3.283 -0.4097  0.6048 -1.2670
   64MOL   H12022926   6.821   0.127   3.305 -2.0259  1.3045  2.1802
   64MOL   H12122927   6.574   0.122   3.320 -1.4535 -1.3565  1.0912
   64MOL   H12222928   6.571   7.669   3.299  3.5027 -1.7054 -1.2541
   64MOL   H12322929   6.663   7.681   3.081  0.0335  0.9245 -1.4352
   64MOL   H12422930   6.669   0.125   3.085 -3.5878  0.7215 -3.9170
   64MOL   H12522931   6.438   0.146   3.086 -1.9378 -0.7296  0.6284
   64MOL   H12622932   6.500   0.052   2.957  1.2299 -0.5990  1.0525
   64MOL   H12722933   6.405   7.700   3.088  0.1016 -0.4940  0.1014
   64MOL   C12822934   6.812   0.156   3.546 -0.7748 -0.2784  0.2462
   64MOL   C12922935   6.734   0.285   3.513  0.1609  0.2721  0.0771
   64MOL   C13022936   6.806   0.408   3.566  0.4494  0.3289 -0.2061
   64MOL   C13122937   6.798   0.440   3.714 -0.3391  0.3911  0.3567
   64MOL   C13222938   6.865   0.571   3.769  0.7977  0.2540  0.2358
   64MOL   C13322939   6.848   0.610   3.916 -0.1297 -0.4488 -0.5010
   64MOL   H13422940   6.919   0.172   3.530 -1.0509 -0.7226 -2.2108
   64MOL   H13522941   6.800   0.147   3.654 -1.5469 -0.2869  0.1594
   64MOL   H13622942   6.740   0.292   3.404  0.1923  1.9185  0.1673
   64MOL   H13722943   6.909   0.416   3.530  0.9476  3.3467  1.7126
   64MOL   H13822944   6.761   0.491   3.511 -1.3015 -0.7309 -0.4104
   64MOL   H13922945   6.854   0.363   3.767  0.2122  0.0139 -0.7653
   64MOL   H14022946   6.695   0.435   3.750 -0.2138 -1.0697  0.5258
   64MOL   H14122947   6.974   0.573   3.762  0.7702  0.1525 -0.2099
   64MOL   H14222948   6.823   0.653   3.710  0.8112  0.1397  0.0674
   64MOL   H14322949   6.869   0.533   3.989 -1.1848  2.5773  3.1404
   64MOL   H14422950   6.747   0.647   3.931  0.1037 -0.0147  0.0019
   64MOL   H14522951   6.920   0.692   3.919  0.6723 -1.1745  0.5393
   64MOL   C14622952   6.587   0.301   3.546  0.0555  0.0246  0.0916
   64MOL   C14722953   6.508   0.427   3.515 -0.1124 -0.2322  0.9599
   64MOL   C14822954   6.367   0.423   3.578  0.1576 -0.2878 -0.0948
   64MOL   C14922955   6.379   0.450   3.730  0.8163  0.5690  0.0734
   64MOL   C15022956   6.239   0.470   3.782  0.0109 -0.1061 -0.5030
   64MOL   C15122957   6.250   0.483   3.927  0.3599  0.0544  0.2473
   64MOL   H15222958   6.535   0.215   3.502  1.2916 -0.5557 -0.2772
   64MOL   H15322959   6.568   0.281   3.652 -2.1714  0.0684 -0.2636
   64MOL   H15422960   6.559   0.514   3.557 -0.2417  0.3133  0.0010
   64MOL   H15522961   6.314   0.330   3.559 -1.5417  0.8665 -1.2033
   64MOL   H15622962   6.309   0.504   3.534 -1.0842 -0.8124  0.5357
   64MOL   H15722963   6.427   0.376   3.793 -0.9117 -0.8255 -0.2143
   64MOL   H15822964   6.431   0.544   3.752  0.8406 -0.0062  2.6058
   64MOL   H15922965   6.175   0.383   3.765  1.2361 -0.9487 -0.8679
   64MOL   H16022966   6.196   0.552   3.724  1.4770  1.3874  0.4729
   64MOL   H16122967   6.277   0.398   3.991  0.7577  1.3629  1.8422
   64MOL   H16222968   6.310   0.566   3.964  1.6233  0.3656 -2.4011
   64MOL   H16322969   6.146   0.501   3.954  0.3009  2.4415 -1.4524
   64MOL   C16422970   6.502   0.444   3.355 -0.5605 -0.0551  0.2307
   64MOL   C16522971   6.434   0.565   3.293 -0.0624 -0.4165  0.2678
   64MOL   C16622972   6.458   0.703   3.367  0.5063  1.6306  0.2800
   64MOL   C16722973   6.606   0.747   3.368  0.1737  0.5940  0.5999
   64MOL   C16822974   6.652   0.831   3.483  0.7021  0.3875 -0.3946
   64MOL   C16922975   6.802   0.852   3.486 -0.5734  0.7585  0.3202
   64MOL   H17022976   6.600   0.443   3.308 -0.6964 -0.7709 -0.0413
   64MOL   H17122977   6.447   0.356   3.320 -2.4888  0.9497  0.6246
   64MOL   H17222978   6.326   0.551   3.297 -0.1019 -0.0290  0.6101
   64MOL   H17322979   6.431   0.704   3.473 -0.9648  0.2958 -0.0613
   64MOL   H17422980   6.397   0.774   3.311  2.6906  2.3079 -1.3138
   64MOL   H17522981   6.622   0.814   3.284  0.8358  1.3491  1.3241
   64MOL   H17622982   6.665   0.656   3.362 -0.6500  0.0682  0.2253
   64MOL   H17722983   6.616   0.783   3.574 -2.9239  2.7712 -0.4798
   64MOL   H17822984   6.604   0.929   3.485  0.5114  0.2917 -0.2962
   64MOL   H17922985   6.867   0.764   3.483  0.6206  1.6412 -0.4347
   64MOL   H18022986   6.821   0.908   3.577 -1.6896  0.8242  0.5120
   64MOL   H18122987   6.836   0.916   3.404 -1.5134 -1.0231 -1.5110
   64MOL   C18222988   6.460   0.590   3.139 -0.4397 -0.2653 -0.2512
   64MOL   C18322989   6.389   0.497   3.045 -0.8933 -0.1542 -0.1909
   64MOL   C18422990   6.473   0.468   2.911 -1.0443  0.4212  0.0974
   64MOL   C18522991   6.588   0.375   2.931 -0.5243  0.8659  0.1932
   64MOL   C18622992   6.639   0.322   2.795  0.1487 -0.0915 -0.6339
   64MOL   C18722993   6.763   0.233   2.797 -0.1843 -0.0351 -0.4370
   64MOL   H18822994   6.436   0.692   3.108 -1.6352 -0.4363  0.0764
   64MOL   H18922995   6.565   0.582   3.113 -0.3068  0.2468  0.1218
   64MOL   H19022996   6.392   0.399   3.094 -0.2773 -0.0055  0.0658
   64MOL   H19122997   6.402   0.424   2.840 -1.0884  0.9935 -0.2154
   64MOL   H19222998   6.501   0.567   2.876  2.4809 -0.4689  0.2712
   64MOL   H19322999   6.586   0.290   2.998 -0.0836  0.3705 -0.4208
   64MOL   H19423000   6.671   0.432   2.972  1.4149 -1.0315 -1.0075
   64MOL   H19523001   6.647   0.407   2.727 -1.2788  0.6847  0.1579
   64MOL   H19623002   6.562   0.255   2.755 -2.1823  0.8130  2.1695
   64MOL   H19723003   6.835   0.276   2.867 -1.1461  4.4579 -2.0033
   64MOL   H19823004   6.797   0.224   2.694  0.6000 -0.0099 -0.1782
   64MOL   H19923005   6.726   0.135   2.827  2.0912 -1.5201 -2.2898
   64MOL   C20023006   6.241   0.534   3.023  0.0992 -0.7059  0.4893
   64MOL   C20123007   6.145   0.416   2.981 -0.6435  0.4562 -0.5790
   64MOL   C20223008   6.046   0.372   3.096  0.6275  0.3797  0.7017
   64MOL   C20323009   6.117   0.320   3.220 -0.1031  0.0968 -0.2764
   64MOL   C20423010   6.158   0.171   3.218  0.5957 -0.2906 -0.5883
   64MOL   C20523011   6.238   0.131   3.351 -0.3183 -0.0160  0.3371
   64MOL   H20623012   6.245   0.613   2.948  0.0647  0.1548  1.3729
   64MOL   H20723013   6.195   0.587   3.107 -0.7285  2.2513 -1.7225
   64MOL   H20823014   6.208   0.330   2.959 -2.7379 -1.1526 -0.3964
   64MOL   H20923015   5.987   0.288   3.058 -0.0534  0.5798  1.3009
   64MOL   H21023016   5.981   0.457   3.114  0.3238  0.5178 -0.9818
   64MOL   H21123017   6.054   0.331   3.308  1.0587  0.4567  0.5359
   64MOL   H21223018   6.205   0.382   3.237  0.0160 -0.2307  0.3211
   64MOL   H21323019   6.209   0.149   3.124 -0.4477  0.7845 -1.4302
   64MOL   H21423020   6.064   0.117   3.212 -0.1630  0.4314  3.1980
   64MOL   H21523021   6.195   0.187   3.434 -0.8188  0.4266 -0.2200
   64MOL   H21623022   6.219   0.028   3.381  0.2291  0.4195  2.2245
   64MOL   H21723023   6.346   0.146   3.342 -0.1090 -0.8717  1.2472
   64MOL   C21823024   6.062   0.442   2.856 -0.4351 -0.6556 -0.2569
   64MOL   C21923025   6.122   0.405   2.715  0.3141  0.4783 -1.3937
   64MOL   C22023026   6.176   0.532   2.640  0.7773  0.5325 -0.3616
   64MOL   C22123027   6.072   0.630   2.591  0.8727  0.7962 -0.8919
   64MOL   C22223028   6.129   0.739   2.507  0.3133  0.0773  0.3847
   64MOL   C22323029   6.038   0.857   2.480  0.0686  0.6405 -0.4129
   64MOL   H22423030   5.963   0.396   2.861 -2.1874  3.0341  1.0411
   64MOL   H22523031   6.028   0.545   2.852 -2.8665 -1.4414 -0.9745
   64MOL   H22623032   6.215   0.350   2.723 -0.7116 -0.9224  2.2204
   64MOL   H22723033   6.235   0.492   2.557 -0.9889 -0.6282 -1.0898
   64MOL   H22823034   6.256   0.577   2.698  1.8527  1.5436 -2.5520
   64MOL   H22923035   6.024   0.658   2.685 -1.0930 -1.7184 -1.0836
   64MOL   H23023036   5.998   0.577   2.530  0.8946 -0.9156  0.5327
   64MOL   H23123037   6.220   0.774   2.555  0.7589  0.8546 -1.0076
   64MOL   H23223038   6.164   0.704   2.410 -3.0004  0.1874 -0.9177
   64MOL   H23323039   6.037   0.940   2.551 -0.9082  0.5524 -0.3271
   64MOL   H23423040   5.946   0.805   2.456  1.1795 -1.1143 -1.0261
   64MOL   H23523041   6.064   0.904   2.386  0.2948  0.4200 -0.4632
   64MOL   C23623042   6.017   0.311   2.638  1.2957 -0.4082 -0.3387
   64MOL   C23723043   5.959   0.185   2.709 -0.5038 -0.8375 -0.3862
   64MOL   C23823044   6.070   0.097   2.769 -0.2427 -0.1025  0.5686
   64MOL   C23923045   6.181   0.044   2.674  0.2449 -0.0111 -0.1417
   64MOL   C24023046   6.293   7.690   2.744  0.2740 -0.4551 -0.2384
   64MOL   C24123047   6.249   7.568   2.828 -0.0994 -0.5402  0.0834
   64MOL   H24223048   5.935   0.375   2.604  3.5029  1.9492 -1.3594
   64MOL   H24323049   6.057   0.282   2.541  0.9089 -1.0001 -0.3186
   64MOL   H24423050   5.903   0.209   2.800  2.1365 -1.0576  1.3796
   64MOL   H24523051   6.109   0.146   2.858  0.8844  0.4011 -0.1969
   64MOL   H24623052   6.033   0.011   2.824 -0.9070 -1.8613 -2.4769
   64MOL   H24723053   6.236   0.128   2.631  0.3413 -0.8776 -1.7602
   64MOL   H24823054   6.136   7.727   2.586  0.8060 -1.4811  0.2904
   64MOL   H24923055   6.352   7.650   2.662 -0.6932 -3.3249  0.4224
   64MOL   H25023056   6.364   0.019   2.806  0.6362  0.9297 -1.8674
   64MOL   H25123057   6.189   7.495   2.773 -2.5018  0.3303  1.4625
   64MOL   H25223058   6.334   7.517   2.873 -0.3025 -0.3387  0.6986
   64MOL   H25323059   6.186   7.603   2.909 -1.2223 -0.5699 -0.7587
   64MOL   C25423060   5.858   0.108   2.622 -0.3049  0.7761 -0.1131
   64MOL   C25523061   5.725   0.163   2.577  0.0906 -0.0926 -0.2583
   64MOL   C25623062   5.626   0.202   2.697 -0.3440  0.3760 -0.2425
   64MOL   C25723063   5.498   0.277   2.650  0.2037  0.2356 -0.1891
   64MOL   C25823064   5.428   0.343   2.778 -1.1260 -0.0171 -0.3732
   64MOL   C25923065   5.341   0.464   2.753  0.1119 -0.0307 -0.5913
   64MOL   H26023066   5.819   0.022   2.676  2.8298 -0.3329  0.4894
   64MOL   H26123067   5.906   0.063   2.535 -0.9405 -1.4838  0.6745
   64MOL   H26223068   5.745   0.263   2.540 -2.2472  0.1064 -1.0975
   64MOL   H26323069   5.597   0.114   2.755  2.0462  0.1984  0.7091
   64MOL   H26423070   5.682   0.265   2.766  1.3065 -0.7387 -0.5297
   64MOL   H26523071   5.523   0.356   2.579 -2.5524  0.7597 -0.6411
   64MOL   H26623072   5.433   0.209   2.595 -0.4557  0.6744  0.0558
   64MOL   H26723073   5.510   0.382   2.839 -2.1929  2.2945 -0.3286
   64MOL   H26823074   5.373   0.270   2.837  2.7346 -1.3400  1.7568
   64MOL   H26923075   5.272   0.431   2.676  1.5928  0.0249 -1.9925
   64MOL   H27023076   5.400   0.553   2.727  0.2796 -0.3544 -1.3254
   64MOL   H27123077   5.280   0.490   2.839  0.7235  0.2956 -0.2479
   64MOL   C27223078   5.639   0.084   2.464 -0.3397  0.1292  0.0244
   64MOL   C27323079   5.719   0.050   2.338 -0.4061  0.2359 -0.1521
   64MOL   C27423080   5.767   0.175   2.258 -0.5880  0.0546  0.9050
   64MOL   C27523081   5.900   0.155   2.179  0.8731  0.0521  0.0650
   64MOL   C27623082   5.959   0.296   2.127  0.1162  0.1395  0.5234
   64MOL   C27723083   5.928   0.331   1.981 -0.1450  0.5970  0.7907
   64MOL   H27823084   5.599   7.717   2.502  3.0953 -1.1633  0.6957
   64MOL   H27923085   5.552   0.143   2.437 -1.0031 -0.8403  0.0477
   64MOL   H28023086   5.809   7.722   2.365  1.3481  0.9682 -4.0621
   64MOL   H28123087   5.775   0.270   2.311  0.6621 -1.3376  3.2817
   64MOL   H28223088   5.686   0.200   2.189  1.1107 -1.1502 -1.5876
   64MOL   H28323089   5.880   0.092   2.092 -0.4138 -1.4303  1.3958
   64MOL   H28423090   5.976   0.107   2.240  0.8460 -0.3152 -0.1887
   64MOL   H28523091   5.920   0.380   2.183 -0.1861 -0.2313  0.8749
   64MOL   H28623092   6.065   0.311   2.150  0.7338  0.0898 -2.1326
   64MOL   H28723093   5.931   0.439   1.973  2.3757  0.4994 -0.1047
   64MOL   H28823094   5.997   0.283   1.912 -2.4657  0.5638 -1.6157
   64MOL   H28923095   5.830   0.295   1.948  0.4468  1.8498 -2.4994
   64MOL   C29023096   5.644   7.672   2.247  0.0489  0.3811 -0.0929
   64MOL   C29123097   5.516   7.719   2.169 -0.1477 -0.2442 -0.1311
   64MOL   C29223098   5.500   7.674   2.021 -0.0574  0.2558 -0.0947
   64MOL   C29323099   5.584   0.022   1.917 -0.4882 -0.5218 -0.1578
   64MOL   C29423100   5.558   7.724   1.766  0.3271 -0.5377 -0.1514
   64MOL   C29523101   5.633   0.087   1.660 -0.1079  0.0095 -0.1777
   64MOL   H29623102   5.608   7.589   2.308  1.3131 -1.0963 -1.3178
   64MOL   H29723103   5.718   7.624   2.182  0.4085  0.8939 -0.0642
   64MOL   H29823104   5.520   0.101   2.163 -0.6910 -0.2416 -0.3865
   64MOL   H29923105   5.400   7.689   1.981  0.6076  1.1915 -1.4739
   64MOL   H30023106   5.532   7.570   2.016  0.6883  0.5284 -1.2633
   64MOL   H30123107   5.554   0.124   1.938  0.1984 -0.3438 -0.0287
   64MOL   H30223108   5.690   0.012   1.939 -0.6616 -2.3666 -0.0335
   64MOL   H30323109   5.449   0.005   1.754  0.1944 -1.7012  0.2536
   64MOL   H30423110   5.579   7.618   1.752  4.3014  0.1953 -0.1131
   64MOL   H30523111   5.636   0.038   1.563 -0.4208 -1.9769  0.7900
   64MOL   H30623112   5.734   0.111   1.692  0.5842 -0.4902 -1.9252
   64MOL   H30723113   5.579   0.182   1.650  1.5910  1.1384  1.1081
   64MOL   C30823114   5.394   7.680   2.260  0.0524 -0.0630  0.3924
   64MOL   C30923115   5.269   0.042   2.230  0.1605 -0.3640 -0.0987
   64MOL   C31023116   5.290   0.175   2.314  0.1606  0.3781  0.6739
   64MOL   C31123117   5.223   0.300   2.267  0.2532  0.0239  0.2402
   64MOL   C31223118   5.230   0.413   2.368  0.7421  0.2495  0.2209
   64MOL   C31323119   5.157   0.539   2.321  0.2056 -0.3228 -0.7519
   64MOL   H31423120   5.372   7.575   2.239 -2.4800  0.5509 -0.1362
   64MOL   H31523121   5.415   7.664   2.366 -1.0948 -1.3525  0.4484
   64MOL   H31623122   5.259   0.082   2.129  1.5242 -0.0619 -0.1288
   64MOL   H31723123   5.396   0.200   2.307 -0.1037  1.2597 -0.2487
   64MOL   H31823124   5.263   0.162   2.419 -1.7189  1.2409  0.3244
   64MOL   H31923125   5.127   0.276   2.221  1.9288 -4.3451 -1.2298
   64MOL   H32023126   5.281   0.329   2.180  0.6514 -0.5063  0.3233
   64MOL   H32123127   5.170   0.370   2.448 -0.1974 -0.5875 -0.9046
   64MOL   H32223128   5.328   0.432   2.410  0.5873 -1.4205  1.3947
   64MOL   H32323129   5.050   0.520   2.324  0.1392 -0.4099 -2.7471
   64MOL   H32423130   5.206   0.575   2.230  0.6832 -1.3787 -0.9200
   64MOL   H32523131   5.170   0.617   2.395 -1.4765 -0.8952  0.1693
   64MOL   C32623132   5.137   7.696   2.268  0.2326 -0.4401 -0.0106
   64MOL   C32723133   5.090   7.574   2.185 -0.3169  0.2627  0.2104
   64MOL   C32823134   4.968   7.507   2.251 -0.3461  0.0519  0.7249
   64MOL   C32923135   4.993   7.431   2.383  0.5892 -0.6276  0.1253
   64MOL   C33023136   4.870   7.357   2.449 -0.1229  0.5398 -0.3249
   64MOL   C33123137   4.929   7.271   2.565  0.3546 -0.1404  0.3523
   64MOL   H33223138   5.057   0.042   2.280  0.9912 -0.1580  4.0893
   64MOL   H33323139   5.160   7.664   2.369  0.2423  1.8236  0.7434
   64MOL   H33423140   5.168   7.498   2.181 -1.5746 -1.0683  0.8372
   64MOL   H33523141   4.891   7.583   2.266  1.2844  1.2865  3.3054
   64MOL   H33623142   4.941   7.427   2.183 -0.0870  1.0212 -0.5433
   64MOL   H33723143   5.035   7.500   2.456 -1.0506  1.0069 -0.4469
   64MOL   H33823144   5.071   7.361   2.354  1.5220  0.5871 -0.3518
   64MOL   H33923145   4.803   7.425   2.502 -1.7359 -1.3928  0.2006
   64MOL   H34023146   4.809   7.290   2.389 -2.0954 -0.4352  2.6210
   64MOL   H34123147   4.964   7.338   2.644  1.5886 -0.4490  0.0819
   64MOL   H34223148   5.016   7.214   2.533 -1.2578 -1.9653 -0.8644
   64MOL   H34323149   4.852   7.201   2.597 -0.4275  0.9640  0.9295
   64MOL   C34423150   5.075   7.610   2.041 -0.3350 -0.2943  0.0672
   64MOL   C34523151   5.017   7.495   1.947 -0.4305  0.7455 -0.9715
   64MOL   C34623152   5.051   7.523   1.799 -0.3384 -0.7746  0.2669
   64MOL   C34723153   5.014   7.408   1.711  0.2008 -0.1292  0.5614
   64MOL   C34823154   5.062   7.416   1.567 -0.5112  0.4808  0.4278
   64MOL   C34923155   5.010   7.291   1.492  0.4028 -0.2583  0.2145
   64MOL   H35023156   5.009   7.696   2.022 -0.1229 -0.3086 -0.7479
   64MOL   H35123157   5.174   7.634   2.003  0.2215 -1.9185  0.4477
   64MOL   H35223158   4.910   7.477   1.960 -0.3744  0.7012 -0.5489
   64MOL   H35323159   5.007   7.616   1.763  2.7832  0.1991 -1.1878
   64MOL   H35423160   5.159   7.533   1.800 -0.2151 -2.0215  0.1162
   64MOL   H35523161   5.039   7.317   1.765 -0.3382 -0.1394  0.7992
   64MOL   H35623162   4.907   7.399   1.690  0.0943  2.2815 -0.1542
   64MOL   H35723163   5.039   7.510   1.517 -0.0494  2.3706  3.6443
   64MOL   H35823164   5.171   7.415   1.573 -0.3077  4.2695 -1.4464
   64MOL   H35923165   5.045   7.202   1.545  0.2608 -0.2085  0.3918
   64MOL   H36023166   4.904   7.285   1.465  0.2880 -1.8972  0.9048
   64MOL   H36123167   5.062   7.297   1.397 -3.2484 -0.7071 -1.9282
   64MOL   H36223168   5.063   7.399   1.972 -1.0384  0.7514  0.2389
   65MOL     C123169   6.884   3.252   0.215  0.5996 -0.1401  0.3214
   65MOL     C223170   7.031   3.269   0.172  0.8189 -0.1219  0.3624
   65MOL     C323171   7.036   3.322   0.032  0.5509 -0.5735  0.3166
   65MOL     C423172   6.949   3.452   0.006  0.6080 -0.5948 -0.3348
   65MOL     C523173   6.998   3.569   0.088 -0.2906 -0.1799  0.4218
   65MOL     C623174   6.901   3.687   0.065 -0.4461 -0.3318  0.1866
   65MOL     H723175   6.877   3.192   0.306  0.7990 -1.5209 -0.5661
   65MOL     H823176   6.827   3.345   0.220 -1.2735 -1.1340 -1.5475
   65MOL     H923177   7.069   3.342   0.244 -1.6355  2.5573 -0.9309
   65MOL    H1023178   7.002   3.248   7.687  1.4448 -0.4010 -0.2970
   65MOL    H1123179   7.138   3.342   7.725 -0.6089 -0.6948 -3.4980
   65MOL    H1223180   6.847   3.434   0.040  1.7073 -2.3106  2.1804
   65MOL    H1323181   6.958   3.475   7.627 -2.2457  1.9594 -0.1028
   65MOL    H1423182   7.015   3.542   0.192  1.7608 -1.1874 -0.1510
   65MOL    H1523183   7.096   3.590   0.045 -0.4669 -3.4738 -1.7317
   65MOL    H1623184   6.797   3.656   0.053  0.3342 -2.8426 -0.3765
   65MOL    H1723185   6.931   3.752   7.710 -2.0245  1.3374  0.8906
   65MOL    H1823186   6.913   3.740   0.159 -1.5653 -0.4707  0.4233
   65MOL    H1923187   6.819   3.195   0.148 -0.2504 -1.5554  2.2808
   65MOL    C2023188   7.115   3.146   0.191 -0.3885  0.2459 -0.4694
   65MOL    C2123189   7.176   3.122   0.333  0.0280 -0.1493 -1.7391
   65MOL    C2223190   7.198   2.968   0.345 -0.9025  0.4702 -0.4196
   65MOL    C2323191   7.182   2.927   0.496 -0.1029 -0.1364  0.5973
   65MOL    C2423192   7.217   2.786   0.523  0.2061 -0.4765  0.0464
   65MOL    C2523193   7.350   2.739   0.469 -0.2535 -0.0897  0.2566
   65MOL    H2623194   7.202   3.145   0.126  0.5064  0.5661  0.7134
   65MOL    H2723195   7.040   3.077   0.153  0.0779  1.1269 -3.1118
   65MOL    H2823196   7.091   3.137   0.400  1.6417 -1.9635  0.8044
   65MOL    H2923197   7.296   2.944   0.304 -0.3352 -0.6128  1.5186
   65MOL    H3023198   7.129   2.909   0.285  0.0744 -2.7989  1.5425
   65MOL    H3123199   7.082   2.951   0.532 -0.1371  2.1706 -0.9367
   65MOL    H3223200   7.233   2.990   0.569 -1.4096  2.6834 -0.8822
   65MOL    H3323201   7.230   2.770   0.630 -1.0948 -0.4651  0.2099
   65MOL    H3423202   7.134   2.723   0.491 -2.0599  2.4695 -0.0800
   65MOL    H3523203   7.427   2.808   0.501  1.6491 -2.7288  1.5984
   65MOL    H3623204   7.373   2.643   0.516  1.1048 -1.1755 -2.5507
   65MOL    H3723205   7.342   2.724   0.361  0.5690  1.7791 -0.0665
   65MOL    C3823206   7.305   3.195   0.362  0.3497 -0.4334 -0.3275
   65MOL    C3923207   7.289   3.333   0.442 -0.6064  0.0871 -0.3278
   65MOL    C4023208   7.255   3.301   0.592  0.4255 -0.9767 -0.0635
   65MOL    C4123209   7.149   3.387   0.652 -0.2749 -0.2591  0.1248
   65MOL    C4223210   7.006   3.358   0.603 -0.4100 -0.2969 -0.3082
   65MOL    C4323211   6.892   3.429   0.669 -0.7348  0.0547  0.0214
   65MOL    H4423212   7.357   3.205   0.267  1.2603 -0.7460  0.1283
   65MOL    H4523213   7.375   3.129   0.413  0.0670 -0.2916  0.2519
   65MOL    H4623214   7.211   3.386   0.387  0.2659  0.5178 -1.1688
   65MOL    H4723215   7.228   3.195   0.598  0.6256 -1.0539 -0.6017
   65MOL    H4823216   7.347   3.311   0.649 -0.8287 -0.9345  2.0434
   65MOL    H4923217   7.138   3.371   0.759  1.4381 -0.9865  0.2115
   65MOL    H5023218   7.175   3.492   0.639  0.4905 -0.3624  0.7632
   65MOL    H5123219   7.006   3.404   0.504  0.3712  1.6334  0.5518
   65MOL    H5223220   6.988   3.253   0.583  0.6424 -0.1079 -2.3603
   65MOL    H5323221   6.898   3.406   0.775 -1.9954 -1.2774 -0.1840
   65MOL    H5423222   6.794   3.401   0.630 -0.6475 -1.8482  1.1077
   65MOL    H5523223   6.907   3.536   0.652 -0.3699 -0.5771 -3.9987
   65MOL    C5623224   7.418   3.423   0.427  0.0079 -0.3165  0.6749
   65MOL    C5723225   7.429   3.506   0.304  0.6273  0.0710  0.4595
   65MOL    C5823226   7.318   3.616   0.293 -0.2419  0.4985  0.0246
   65MOL    C5923227   7.349   3.731   0.383  0.1233  0.0599 -0.1608
   65MOL    C6023228   7.245   3.846   0.385 -0.5094 -0.2862 -0.2858
   65MOL    C6123229   7.295   3.981   0.443  0.3289  0.3615 -0.3012
   65MOL    H6223230   7.443   3.489   0.510  0.6530 -1.0339  1.0563
   65MOL    H6323231   7.500   3.351   0.427  0.4693  0.2038  1.0218
   65MOL    H6423232   7.526   3.555   0.310  0.5800  0.4268 -1.4630
   65MOL    H6523233   7.317   3.655   0.191 -0.0736 -0.9077 -0.5328
   65MOL    H6623234   7.225   3.563   0.311  0.6240 -1.1654 -0.2633
   65MOL    H6723235   7.448   3.764   0.350  0.7667 -0.0179  1.6168
   65MOL    H6823236   7.368   3.701   0.487 -0.9319 -1.4651 -0.3875
   65MOL    H6923237   7.208   3.872   0.286  0.7364  0.5460 -0.5455
   65MOL    H7023238   7.162   3.814   0.447  0.0217  0.1459  0.6616
   65MOL    H7123239   7.372   4.034   0.386 -1.4376  1.7913 -1.4157
   65MOL    H7223240   7.206   4.042   0.459  1.0976  1.4602 -0.1697
   65MOL    H7323241   7.343   3.969   0.540 -0.7785 -1.0800  0.0787
   65MOL    C7423242   7.424   3.422   0.168 -0.2022  0.4582  0.5000
   65MOL    C7523243   7.467   3.498   0.039 -0.1795 -0.1357 -0.5666
   65MOL    C7623244   7.612   3.537   0.043  0.0486  0.0449 -0.4933
   65MOL    C7723245   7.629   3.693   0.070 -1.2670 -0.8939 -0.5488
   65MOL    C7823246   0.035   3.768   0.046 -0.0714  0.3072 -0.8485
   65MOL    C7923247   0.065   3.815   7.629 -1.2345 -0.4721  0.4767
   65MOL    H8023248   7.495   3.340   0.172 -1.6446 -0.8346  0.0327
   65MOL    H8123249   7.328   3.373   0.152 -0.2532 -0.1392  2.4834
   65MOL    H8223250   7.409   3.587   0.015  2.7809  1.9521 -0.2165
   65MOL    H8323251   7.674   3.467   0.099  2.2428  1.1081 -1.5370
   65MOL    H8423252   7.652   3.530   7.669 -0.5940 -0.4777 -0.7131
   65MOL    H8523253   7.548   3.751   0.027 -1.0582  1.6960  2.3875
   65MOL    H8623254   7.616   3.713   0.176  1.1441  1.9079 -0.6803
   65MOL    H8723255   0.117   3.701   0.069 -1.3575 -0.5123  1.5480
   65MOL    H8823256   0.036   3.858   0.107 -2.4055 -0.2087 -0.0029
   65MOL    H8923257   7.722   3.888   7.589  0.7740 -0.7394 -3.8176
   65MOL    H9023258   0.158   3.871   7.626 -0.5256 -1.6452  0.1591
   65MOL    H9123259   0.072   3.734   7.556 -0.1961 -2.6002  2.8380
   65MOL    C9223260   7.444   3.406   7.648 -0.0141  0.0175  0.0965
   65MOL    C9323261   7.431   3.489   7.514 -0.2993  0.3254  0.7164
   65MOL    C9423262   7.463   3.403   7.394  0.0118  0.1234  0.0963
   65MOL    C9523263   7.593   3.443   7.318 -0.3545  0.8626  0.0546
   65MOL    C9623264   7.603   3.372   7.184 -0.9996  0.3818  0.2548
   65MOL    C9723265   0.006   3.408   7.109 -0.2841  0.7444 -0.2355
   65MOL    H9823266   7.524   3.332   7.642  1.3324  1.3446  1.4243
   65MOL    H9923267   7.358   3.342   7.668  0.1539  1.0273  4.4506
   65MOL   H10023268   7.494   3.578   7.513 -2.9445  2.2883  2.0500
   65MOL   H10123269   7.383   3.408   7.321  1.1580  0.2356 -1.1559
   65MOL   H10223270   7.465   3.296   7.417 -1.0861  0.3629  1.3777
   65MOL   H10323271   7.596   3.549   7.295 -0.5127  1.0163  0.7312
   65MOL   H10423272   7.678   3.419   7.381  1.4602  1.5379 -2.0810
   65MOL   H10523273   7.597   3.263   7.184 -0.5919  0.3527  1.0341
   65MOL   H10623274   7.519   3.412   7.129 -1.2114 -0.1984  0.1501
   65MOL   H10723275   0.001   3.511   7.071 -0.2487  0.9835  0.4026
   65MOL   H10823276   0.088   3.405   7.181 -1.3541  0.4505  0.9869
   65MOL   H10923277   0.030   3.340   7.028  0.4977 -0.0379  0.6529
   65MOL   C11023278   7.285   3.538   7.514 -0.1054  0.6164  0.6396
   65MOL   C11123279   7.271   3.674   7.429  0.0008  0.3141 -0.0174
   65MOL   C11223280   7.335   3.798   7.496  0.5550 -1.1107 -1.0189
   65MOL   C11323281   7.252   3.866   7.609  0.9549 -0.0587  0.0889
   65MOL   C11423282   7.297   4.004   7.662  0.2240 -0.5291  0.2753
   65MOL   C11523283   7.420   4.004   0.016  1.1642 -0.9758 -0.5039
   65MOL   H11623284   7.227   3.458   7.469  0.4847  0.8817 -0.6041
   65MOL   H11723285   7.247   3.548   7.616 -0.9334 -1.2896  0.5335
   65MOL   H11823286   7.320   3.650   7.335  0.9370 -2.0859  1.0381
   65MOL   H11923287   7.372   3.879   7.433 -1.8848  1.1305  0.3031
   65MOL   H12023288   7.433   3.769   7.534  1.4187 -0.4331 -2.6731
   65MOL   H12123289   7.231   3.789   7.684  0.0319 -0.5724 -0.6894
   65MOL   H12223290   7.152   3.882   7.567  1.3818 -0.9795 -1.2932
   65MOL   H12323291   7.217   4.047   7.722  0.6956  1.3831 -0.4144
   65MOL   H12423292   7.299   4.073   7.577  3.0034  0.8801  1.4235
   65MOL   H12523293   7.498   3.951   7.690  0.5131 -0.1561 -2.3091
   65MOL   H12623294   7.449   4.106   0.042  0.8767 -1.1818  0.7028
   65MOL   H12723295   7.408   3.955   0.113  1.9992  0.6981  0.4879
   65MOL   C12823296   7.130   3.692   7.378  0.1001 -0.3923  0.1530
   65MOL   C12923297   7.111   3.800   7.265  0.0154 -0.0014 -0.2394
   65MOL   C13023298   6.962   3.843   7.255 -0.0224  0.0803  0.1029
   65MOL   C13123299   6.899   3.917   7.368  0.1737  0.2188  0.1966
   65MOL   C13223300   6.753   3.958   7.353 -0.5938 -0.3690 -0.3324
   65MOL   C13323301   6.709   4.068   7.454 -0.1122  0.8470 -0.1554
   65MOL   H13423302   7.071   3.727   7.463  0.4859 -0.2273  0.3559
   65MOL   H13523303   7.075   3.600   7.357 -0.6529 -0.5498  2.6702
   65MOL   H13623304   7.163   3.889   7.300 -0.2119  1.0893 -2.6348
   65MOL   H13723305   6.957   3.907   7.167  2.7347  0.2361  0.0166
   65MOL   H13823306   6.900   3.758   7.227 -1.7924  1.7843 -1.3349
   65MOL   H13923307   6.961   4.007   7.376  1.7910 -0.7271 -1.2367
   65MOL   H14023308   6.905   3.862   7.461 -0.2115 -0.1169  0.0223
   65MOL   H14123309   6.740   3.999   7.253 -2.4003 -1.9806 -0.7873
   65MOL   H14223310   6.680   3.877   7.352  0.1819 -1.0694 -0.4339
   65MOL   H14323311   6.602   4.082   7.444 -0.3144  0.7689  1.6715
   65MOL   H14423312   6.742   4.170   7.437 -0.6760  1.0834  0.1474
   65MOL   H14523313   6.730   4.045   7.559 -0.0160 -0.4297 -0.4432
   65MOL   C14623314   7.174   3.753   7.127 -0.1871  0.1725  0.3313
   65MOL   C14723315   7.265   3.848   7.052  0.4761 -0.0693 -0.2959
   65MOL   C14823316   7.393   3.877   7.127  0.1217  0.0400  0.0880
   65MOL   C14923317   7.506   3.926   7.044 -0.3745  0.0897  0.5275
   65MOL   C15023318   7.632   3.929   7.129  0.2167 -0.4696 -0.5262
   65MOL   C15123319   7.642   4.015   7.250  0.3216 -0.1285 -0.6781
   65MOL   H15223320   7.233   3.664   7.148  0.8731  0.3531 -1.7172
   65MOL   H15323321   7.094   3.729   7.057  2.0441 -0.9272 -1.9452
   65MOL   H15423322   7.285   3.791   6.962  0.7568  2.4046 -1.8611
   65MOL   H15523323   7.432   3.798   7.191  2.0228  0.7297 -0.1855
   65MOL   H15623324   7.368   3.958   7.196 -1.0698  0.9228 -1.3468
   65MOL   H15723325   7.519   3.858   6.960  2.8310  0.9321  0.3030
   65MOL   H15823326   7.491   4.026   7.002 -3.3108 -1.7716 -3.1569
   65MOL   H15923327   7.715   3.946   7.060 -0.4033  1.3662 -0.8376
   65MOL   H16023328   7.650   3.825   7.155  2.2616 -0.2265 -0.8566
   65MOL   H16123329   0.014   4.004   7.293  0.1294 -0.9807 -0.4379
   65MOL   H16223330   7.608   4.118   7.248 -1.3227 -0.6066  0.7043
   65MOL   H16323331   7.578   3.974   7.328  0.7335  1.0872  0.3172
   65MOL   C16423332   7.199   3.968   6.993  0.6208  0.9666  0.0313
   65MOL   C16523333   7.118   3.967   6.855  0.3168 -0.8581 -0.8712
   65MOL   C16623334   7.007   4.069   6.850 -0.2731 -0.1302 -0.4736
   65MOL   C16723335   6.892   4.042   6.942 -0.1320  0.3584 -0.2986
   65MOL   C16823336   6.751   4.077   6.894 -0.3264 -0.6214 -0.7045
   65MOL   C16923337   6.649   4.112   7.008  0.1835  0.2658 -1.0941
   65MOL   H17023338   7.124   3.993   7.068 -0.2706 -1.8619  0.1469
   65MOL   H17123339   7.263   4.055   6.983  0.0064  1.1642 -2.6602
   65MOL   H17223340   7.071   3.869   6.859  0.0528 -0.6987  0.2326
   65MOL   H17323341   6.970   4.058   6.748 -1.6334 -3.0823  0.2638
   65MOL   H17423342   7.042   4.170   6.870  0.6061 -1.0164  2.8054
   65MOL   H17523343   6.907   4.093   7.036  0.1261 -0.5117  0.1419
   65MOL   H17623344   6.893   3.938   6.976 -0.7294  0.4641  0.0475
   65MOL   H17723345   6.718   4.000   6.825  0.6694 -0.1226 -1.7611
   65MOL   H17823346   6.762   4.159   6.823  0.9300 -0.9864 -0.9516
   65MOL   H17923347   6.695   4.184   7.077 -2.5155 -0.8402  2.0384
   65MOL   H18023348   6.618   4.024   7.066  0.2661  0.0366 -1.4022
   65MOL   H18123349   6.556   4.150   6.965 -1.0981 -0.6693  0.7499
   65MOL   C18223350   7.209   3.978   6.733  0.1710  0.3589 -0.0845
   65MOL   C18323351   7.179   3.870   6.627 -0.3902 -0.1487  0.2070
   65MOL   C18423352   7.264   3.743   6.642  0.8910 -0.3689 -0.0448
   65MOL   C18523353   7.415   3.767   6.627  0.6907  0.2005 -0.2473
   65MOL   C18623354   7.491   3.645   6.670 -0.8193 -0.2183  0.6321
   65MOL   C18723355   7.644   3.656   6.646 -0.5556 -0.3923  0.0405
   65MOL   H18823356   7.188   4.078   6.694  1.1954  1.6401  2.5360
   65MOL   H18923357   7.313   4.002   6.756 -0.0425  1.2535 -0.0396
   65MOL   H19023358   7.077   3.837   6.646 -0.2905  0.0523  1.1200
   65MOL   H19123359   7.248   3.684   6.732  2.6008  1.9972  1.8638
   65MOL   H19223360   7.234   3.679   6.558 -1.7422 -1.1644  1.4598
   65MOL   H19323361   7.442   3.845   6.698 -1.1267 -0.0906  0.7777
   65MOL   H19423362   7.453   3.802   6.531  1.5185  1.1033  0.3970
   65MOL   H19523363   7.444   3.558   6.623 -0.1779 -0.4967  0.5012
   65MOL   H19623364   7.475   3.637   6.778 -1.4368 -0.3293  0.5365
   65MOL   H19723365   7.659   3.689   6.543  1.2397  1.5860  0.9001
   65MOL   H19823366   7.695   3.562   6.665  1.8105  0.6493 -1.0088
   65MOL   H19923367   7.679   3.732   6.715  0.9037  1.4741 -2.6786
   65MOL   C20023368   7.188   3.933   6.487 -0.9358  0.0487 -0.3398
   65MOL   C20123369   7.147   3.851   6.359 -0.2919  0.3003 -0.1025
   65MOL   C20223370   7.011   3.787   6.379  0.4685  0.3121  0.2121
   65MOL   C20323371   6.891   3.884   6.403  0.4936  0.3099  0.0556
   65MOL   C20423372   6.749   3.831   6.369  0.3356  1.2455 -0.1278
   65MOL   C20523373   6.643   3.931   6.384  0.0566  0.2592  0.2021
   65MOL   H20623374   7.290   3.969   6.477 -0.0557 -1.8508  1.4912
   65MOL   H20723375   7.125   4.022   6.493  0.2048  0.8506 -0.1561
   65MOL   H20823376   7.222   3.772   6.353 -0.5373  0.1463 -1.5521
   65MOL   H20923377   7.016   3.714   6.459 -0.5593 -0.4140 -0.3680
   65MOL   H21023378   6.995   3.730   6.287  1.2222  2.0073 -0.9977
   65MOL   H21123379   6.899   3.978   6.348 -2.0031  0.6728  0.2394
   65MOL   H21223380   6.904   3.914   6.507 -0.4305 -1.5597  0.7426
   65MOL   H21323381   6.729   3.753   6.442  1.5679  0.6242 -0.4441
   65MOL   H21423382   6.742   3.782   6.272 -1.0914  0.4566  0.3581
   65MOL   H21523383   6.663   4.020   6.326  1.3595  0.2796  0.6862
   65MOL   H21623384   6.545   3.902   6.345 -0.0750 -0.1663  0.8478
   65MOL   H21723385   6.641   3.953   6.491 -0.2865  2.1187 -0.1813
   65MOL   C21823386   7.163   3.930   6.230  0.3851  0.1904  0.0254
   65MOL   C21923387   7.303   4.005   6.207  1.1148 -0.1780  0.3569
   65MOL   C22023388   7.303   4.094   6.079 -0.2392 -0.2434  0.3788
   65MOL   C22123389   7.247   4.233   6.111  0.0836 -0.1088  0.5135
   65MOL   C22223390   7.237   4.323   5.994 -0.5233 -1.2507 -0.0385
   65MOL   C22323391   7.138   4.435   6.018  0.1043 -0.5555  0.9107
   65MOL   H22423392   7.152   3.860   6.147 -1.5358 -0.5932  0.9130
   65MOL   H22523393   7.086   4.007   6.229  0.6904  0.5225  0.9214
   65MOL   H22623394   7.316   4.071   6.293  1.4368 -3.0867  2.5956
   65MOL   H22723395   7.242   4.060   5.995  0.7622 -0.3734 -0.3030
   65MOL   H22823396   7.403   4.110   6.039 -0.9232  1.4523 -0.6882
   65MOL   H22923397   7.319   4.271   6.184 -0.2010  1.3387  0.0566
   65MOL   H23023398   7.153   4.227   6.165  0.4878  0.0954  1.2397
   65MOL   H23123399   7.334   4.369   5.977 -1.7354  1.0883 -0.7799
   65MOL   H23223400   7.215   4.289   5.893 -0.3074 -0.3766 -0.3768
   65MOL   H23323401   7.160   4.499   6.104  0.0041 -0.6979  1.0432
   65MOL   H23423402   7.033   4.404   6.023  0.4639 -2.2406 -1.3111
   65MOL   H23523403   7.141   4.507   5.937  1.2227 -0.4580  1.0362
   65MOL   C23623404   7.420   3.905   6.205 -0.4385 -0.4474  0.6434
   65MOL   C23723405   7.558   3.973   6.212 -0.3100 -0.1980  0.1075
   65MOL   C23823406   7.668   3.886   6.155  0.5733  0.8548  0.2976
   65MOL   C23923407   7.656   3.822   6.017  0.1924 -0.3611 -0.0744
   65MOL   C24023408   7.662   3.919   5.904 -0.1089  0.3130  0.4992
   65MOL   C24123409   7.653   3.855   5.765  0.0017 -0.7264  0.2173
   65MOL   H24223410   7.410   3.831   6.284 -0.2123 -1.0935  0.0793
   65MOL   H24323411   7.404   3.859   6.107 -0.8302  1.3966 -0.1712
   65MOL   H24423412   7.574   4.056   6.143 -0.5021 -0.9724 -0.8852
   65MOL   H24523413   0.037   3.937   6.159  0.4329  1.0935  0.6349
   65MOL   H24623414   7.667   3.808   6.231 -1.9779 -2.1632 -2.6721
   65MOL   H24723415   7.579   3.745   6.005 -0.5005  0.7147 -3.0914
   65MOL   H24823416   0.029   3.780   6.004 -0.2761 -0.7939 -2.4785
   65MOL   H24923417   7.576   3.986   5.912 -0.4573  0.1920 -1.8733
   65MOL   H25023418   0.020   3.986   5.914 -1.0438  1.3639  1.5102
   65MOL   H25123419   7.626   3.938   5.700 -1.0416 -1.3056 -0.1060
   65MOL   H25223420   0.023   3.815   5.740  0.0225 -1.4144  1.3462
   65MOL   H25323421   7.570   3.784   5.765 -0.1659 -0.5471 -1.4792
   65MOL   C25423422   7.589   4.027   6.355  0.3729 -0.9651 -0.0564
   65MOL   C25523423   7.714   4.112   6.385  0.4649  0.3762  0.1294
   65MOL   C25623424   7.724   4.135   6.548 -0.1425 -0.0334  0.4000
   65MOL   C25723425   0.027   4.011   6.638  0.3090  0.2277 -0.1116
   65MOL   C25823426   0.010   4.026   6.787 -0.3828 -0.3464  0.2521
   65MOL   C25923427   0.091   4.135   6.854 -0.3658 -0.3310 -0.0828
   65MOL   H26023428   7.594   3.946   6.427  2.0574 -0.8513 -0.0379
   65MOL   H26123429   7.503   4.084   6.389  0.0222 -1.9042  0.6524
   65MOL   H26223430   0.074   4.057   6.350  1.0013  1.0735  0.3505
   65MOL   H26323431   0.061   4.216   6.582 -2.0612  0.8780  1.9378
   65MOL   H26423432   7.628   4.172   6.584 -2.0126 -3.1426 -1.1102
   65MOL   H26523433   7.692   3.926   6.611  1.2167 -0.3404 -0.4515
   65MOL   H26623434   0.128   3.973   6.620  1.1118  2.7706 -1.1076
   65MOL   H26723435   0.040   3.934   6.837  0.3196  0.3708  1.1568
   65MOL   H26823436   7.630   4.037   6.806 -0.4129 -1.5560  0.8579
   65MOL   H26923437   0.196   4.134   6.826 -0.8796 -0.5299 -2.0471
   65MOL   H27023438   0.085   4.132   6.963  0.8498  1.4530  0.0692
   65MOL   H27123439   0.063   4.237   6.829 -2.8869 -1.1291 -0.5863
   65MOL   C27223440   7.717   4.244   6.312  0.5057 -0.1141 -0.4547
   65MOL   C27323441   0.118   4.335   6.322 -0.2266 -0.2345  0.4537
   65MOL   C27423442   0.080   4.480   6.297  0.2925 -0.4946  0.6455
   65MOL   C27523443   0.104   4.592   6.402 -0.2322 -0.1270 -0.1113
   65MOL   C27623444   0.119   4.733   6.333 -0.6261 -0.1093  0.1999
   65MOL   C27723445   0.081   4.855   6.412 -0.5090 -0.5953 -0.2588
   65MOL   H27823446   7.670   4.241   6.213  2.9200 -0.7287 -1.6212
   65MOL   H27923447   7.640   4.299   6.366  0.0374 -0.5955 -0.6272
   65MOL   H28023448   0.148   4.344   6.426 -0.6563  0.0082  0.5599
   65MOL   H28123449   7.703   4.491   6.266  1.5247  2.0292 -2.9057
   65MOL   H28223450   0.126   4.515   6.205 -0.3088 -1.0743  0.1222
   65MOL   H28323451   0.183   4.574   6.475  0.7914  0.9480 -0.9162
   65MOL   H28423452   0.008   4.604   6.451 -1.1630 -0.3691 -1.8430
   65MOL   H28523453   0.222   4.751   6.305 -0.5538 -0.9299 -0.0846
   65MOL   H28623454   0.068   4.748   6.238  0.1704  2.3961  0.1529
   65MOL   H28723455   0.120   4.842   6.513  0.9111  1.3220 -0.5390
   65MOL   H28823456   0.126   4.944   6.367 -1.6015  0.8804  1.4668
   65MOL   H28923457   7.700   4.866   6.425 -0.0789  1.7892  1.5696
   65MOL   C29023458   0.227   4.272   6.226  0.2886 -0.0408  0.8305
   65MOL   C29123459   0.363   4.343   6.210 -0.0695 -0.9394  0.6606
   65MOL   C29223460   0.465   4.311   6.322  0.1594  0.7405 -0.1526
   65MOL   C29323461   0.436   4.379   6.454  0.4847 -0.6023 -0.0406
   65MOL   C29423462   0.562   4.415   6.530  0.2003  0.1031 -0.5007
   65MOL   C29523463   0.541   4.477   6.672 -0.9955  0.7283  0.5975
   65MOL   H29623464   0.177   4.254   6.131 -0.5360 -0.5982  1.3489
   65MOL   H29723465   0.250   4.170   6.256  3.6040  0.0978 -1.1364
   65MOL   H29823466   0.341   4.449   6.207 -0.9748 -1.1192  0.7736
   65MOL   H29923467   0.571   4.319   6.297  0.1617 -1.3600 -0.8839
   65MOL   H30023468   0.459   4.204   6.339  1.1414  0.5823 -0.7737
   65MOL   H30123469   0.362   4.457   6.437  0.8642  0.6885  3.8636
   65MOL   H30223470   0.389   4.301   6.514 -1.4138  1.2540  0.9752
   65MOL   H30323471   0.610   4.497   6.476  0.8229  1.3336  1.8448
   65MOL   H30423472   0.646   4.346   6.539  1.0174  0.6803 -3.2210
   65MOL   H30523473   0.485   4.570   6.665  0.8237  1.6892 -2.0678
   65MOL   H30623474   0.633   4.510   6.721  1.7296 -3.5895 -1.2412
   65MOL   H30723475   0.478   4.416   6.737 -1.1139  0.3832  0.1639
   65MOL   C30823476   0.425   4.303   6.073 -0.0121  0.6297 -0.1143
   65MOL   C30923477   0.359   4.362   5.946  0.0718 -0.5061 -0.5806
   65MOL   C31023478   0.407   4.280   5.817  1.0117  0.5204 -0.1852
   65MOL   C31123479   0.325   4.302   5.680  0.3294 -0.4506 -0.0838
   65MOL   C31223480   0.316   4.176   5.592  0.5040 -0.1655  0.3565
   65MOL   C31323481   0.237   4.058   5.653  0.2692 -0.3685  0.4192
   65MOL   H31423482   0.534   4.311   6.073  0.0686 -0.5107  0.3034
   65MOL   H31523483   0.413   4.195   6.070 -1.6029  0.7436  1.5631
   65MOL   H31623484   0.250   4.355   5.953 -0.0771  1.2161 -0.9247
   65MOL   H31723485   0.397   4.173   5.839  1.6641 -0.2655 -3.4329
   65MOL   H31823486   0.514   4.290   5.802  1.0370 -1.4370 -1.5304
   65MOL   H31923487   0.373   4.382   5.623 -1.6806  1.2311  0.5415
   65MOL   H32023488   0.225   4.336   5.703  2.0512  1.6207  4.9512
   65MOL   H32123489   0.261   4.201   5.501 -1.7577 -0.5599  1.5765
   65MOL   H32223490   0.418   4.149   5.564  0.7648  3.0296 -2.1041
   65MOL   H32323491   0.140   4.102   5.677 -0.0468 -0.4383 -0.7051
   65MOL   H32423492   0.289   4.031   5.745  1.0933 -1.0259 -0.2213
   65MOL   H32523493   0.221   3.973   5.587  0.9535  2.8509 -4.1430
   65MOL   C32623494   0.396   4.507   5.930  0.3615 -0.3028  0.5111
   65MOL   C32723495   0.286   4.600   5.860  0.2664  0.0556 -0.3069
   65MOL   C32823496   0.157   4.609   5.946  0.1487  0.2880 -0.0331
   65MOL   C32923497   0.037   4.667   5.871 -0.6652 -1.1254 -0.1038
   65MOL   C33023498   7.640   4.660   5.966  0.6535 -0.2048 -0.2729
   65MOL   C33123499   7.520   4.715   5.892 -0.2308 -0.7084  0.0376
   65MOL   H33223500   0.496   4.512   5.886  0.4541 -0.7723  0.6674
   65MOL   H33323501   0.422   4.556   6.024  2.1537  0.1380 -0.1927
   65MOL   H33423502   0.259   4.547   5.769  0.7726  0.5443 -0.7478
   65MOL   H33523503   0.130   4.507   5.974  2.6396 -0.7404 -1.1934
   65MOL   H33623504   0.174   4.670   6.035 -0.9061  1.5167 -0.6485
   65MOL   H33723505   0.022   4.627   5.771  3.4215 -0.6222 -0.9888
   65MOL   H33823506   0.047   4.775   5.855 -1.5599 -0.5995  2.6014
   65MOL   H33923507   7.629   4.554   5.989  0.7264  0.0374  0.8965
   65MOL   H34023508   7.660   4.716   6.057 -0.3375 -0.4196  0.0752
   65MOL   H34123509   7.431   4.727   5.954 -1.1500 -1.5974 -1.0939
   65MOL   H34223510   7.478   4.655   5.811 -1.2851 -0.5274  0.4359
   65MOL   H34323511   7.533   4.814   5.848 -1.9913  1.1345  3.3647
   65MOL   C34423512   0.337   4.735   5.827  0.2278 -0.0966  0.2784
   65MOL   C34523513   0.459   4.758   5.736  0.6579 -0.1918  0.6357
   65MOL   C34623514   0.429   4.741   5.584 -0.0957 -0.1456 -0.5321
   65MOL   C34723515   0.355   4.864   5.529  0.2066  0.2174  0.2598
   65MOL   C34823516   0.329   4.836   5.381  0.7956 -0.7649 -0.1600
   65MOL   C34923517   0.446   4.867   5.283 -0.4863 -0.7345 -0.0244
   65MOL   H35023518   0.260   4.806   5.797  0.7054 -0.0100 -0.7588
   65MOL   H35123519   0.366   4.779   5.923  0.3290 -0.6572  0.5085
   65MOL   H35223520   0.532   4.680   5.758  0.0167 -1.2914 -1.0056
   65MOL   H35323521   0.528   4.753   5.540 -0.3456  1.7721 -0.5989
   65MOL   H35423522   0.379   4.647   5.560  0.6774 -0.4187 -1.0896
   65MOL   H35523523   0.258   4.875   5.577  0.9282 -1.2206  2.1687
   65MOL   H35623524   0.411   4.958   5.533 -1.0594  0.9521  1.1266
   65MOL   H35723525   0.298   4.732   5.382 -1.2730 -0.1766  0.3476
   65MOL   H35823526   0.238   4.887   5.349 -0.9259 -2.1883  2.2381
   65MOL   H35923527   0.471   4.973   5.285 -0.1459 -0.8228  0.8249
   65MOL   H36023528   0.530   4.808   5.322  1.6014  1.1005 -1.5957
   65MOL   H36123529   0.414   4.841   5.182  0.6711 -1.6676 -0.1703
   65MOL   H36223530   0.497   4.855   5.765  2.6864 -0.7547 -0.0638
   66MOL     C123531   5.211   1.762   3.378  0.5074 -0.1209  0.5849
   66MOL     C223532   5.292   1.878   3.427  0.2972  0.5852  0.1632
   66MOL     C323533   5.241   2.015   3.365 -0.5304 -0.0801  0.6991
   66MOL     C423534   5.230   2.133   3.468  0.4143 -0.1902 -0.0014
   66MOL     C523535   5.169   2.270   3.423  0.8014 -0.5827 -0.0613
   66MOL     C623536   5.183   2.390   3.517  0.4413 -0.2042  0.1556
   66MOL     H723537   5.104   1.759   3.400  0.3996 -2.2286 -0.1782
   66MOL     H823538   5.206   1.746   3.270 -1.4902  0.0361  0.6187
   66MOL     H923539   5.260   1.887   3.531  0.8879  2.9959  0.1754
   66MOL    H1023540   5.144   1.992   3.321  0.4480 -2.7494 -0.1754
   66MOL    H1123541   5.301   2.046   3.280 -0.0318 -0.1689  1.0170
   66MOL    H1223542   5.332   2.156   3.498  0.7205  0.1710 -1.3023
   66MOL    H1323543   5.182   2.110   3.564 -2.0970 -2.2727 -1.6802
   66MOL    H1423544   5.222   2.297   3.332  2.1140 -1.1161  0.5248
   66MOL    H1523545   5.070   2.239   3.390 -0.3987  1.9240  1.0687
   66MOL    H1623546   5.137   2.375   3.615 -0.1378 -2.7262 -0.4693
   66MOL    H1723547   5.134   2.469   3.460  0.9568  0.0145  0.0149
   66MOL    H1823548   5.287   2.414   3.537  0.3538 -0.5438  1.0496
   66MOL    H1923549   5.239   1.668   3.425 -2.6385 -0.9364  0.9765
   66MOL    C2023550   5.443   1.847   3.407 -1.2700  1.0323 -0.2767
   66MOL    C2123551   5.490   1.744   3.511 -0.0012  0.2856 -0.1853
   66MOL    C2223552   5.634   1.697   3.473 -0.9100 -0.3612 -0.2492
   66MOL    C2323553   5.643   1.592   3.373  0.0859  0.3076 -0.0245
   66MOL    C2423554   5.787   1.551   3.326 -0.0129  0.0918 -0.5419
   66MOL    C2523555   5.794   1.429   3.233 -0.4757 -0.0589 -0.4538
   66MOL    H2623556   5.498   1.938   3.428  1.6007 -1.1124  1.8679
   66MOL    H2723557   5.462   1.817   3.304  2.1073 -1.7808  1.0703
   66MOL    H2823558   5.420   1.660   3.511  0.1892  0.1170  0.9954
   66MOL    H2923559   5.696   1.666   3.557 -0.2350  0.8347 -0.2792
   66MOL    H3023560   5.692   1.767   3.412 -1.2256 -2.0722 -2.5818
   66MOL    H3123561   5.583   1.608   3.284 -0.4942  0.1932  0.3359
   66MOL    H3223562   5.596   1.503   3.416  1.0087  0.8639  2.2082
   66MOL    H3323563   5.818   1.640   3.272 -1.1205  0.3229 -0.8184
   66MOL    H3423564   5.863   1.547   3.404 -0.4350 -1.6439 -0.1907
   66MOL    H3523565   5.784   1.335   3.287 -1.4791  0.6117  0.5467
   66MOL    H3623566   5.706   1.428   3.169 -1.3382 -0.3250  0.7339
   66MOL    H3723567   5.874   1.430   3.158  1.3069 -2.1275  1.3437
   66MOL    C3823568   5.501   1.804   3.653  0.5632  0.1601  0.0056
   66MOL    C3923569   5.474   1.698   3.772 -0.5488  0.4026  0.0497
   66MOL    C4023570   5.519   1.746   3.907  0.2457 -0.1758 -0.6016
   66MOL    C4123571   5.674   1.745   3.920 -0.4717  0.0733 -0.1653
   66MOL    C4223572   5.723   1.791   4.057  0.8710 -0.4026 -0.1784
   66MOL    C4323573   5.683   1.929   4.104  0.1178  0.1595 -1.1327
   66MOL    H4423574   5.434   1.890   3.660 -0.3969 -0.6532  0.7807
   66MOL    H4523575   5.602   1.843   3.668  0.3369 -0.1270  2.3672
   66MOL    H4623576   5.518   1.603   3.743 -1.2494 -0.3868  1.5222
   66MOL    H4723577   5.482   1.847   3.924  1.5225  0.8517 -3.4334
   66MOL    H4823578   5.479   1.689   3.990  0.4747  0.3458 -0.1290
   66MOL    H4923579   5.724   1.650   3.901  0.9770  0.6602  0.6550
   66MOL    H5023580   5.712   1.816   3.847  0.2644  0.1365  0.2788
   66MOL    H5123581   5.683   1.725   4.134  0.1559 -1.3989 -1.3845
   66MOL    H5223582   5.831   1.786   4.069  0.9120  2.2306  0.8598
   66MOL    H5323583   5.576   1.949   4.095  0.5940  2.6688 -1.7859
   66MOL    H5423584   5.742   2.001   4.046 -0.9191  1.5531 -0.5036
   66MOL    H5523585   5.702   1.948   4.209 -0.7604  0.3197 -0.9931
   66MOL    C5623586   5.327   1.670   3.781  0.4285  0.4340 -0.0749
   66MOL    C5723587   5.287   1.528   3.827  0.5123  1.2684  0.2400
   66MOL    C5823588   5.241   1.435   3.717  0.1574  0.2056  0.8289
   66MOL    C5923589   5.355   1.390   3.614 -0.0418  0.4057  0.0307
   66MOL    C6023590   5.274   1.342   3.489  0.3364 -0.0783  0.0777
   66MOL    C6123591   5.365   1.291   3.369 -0.5360  0.3993 -0.2297
   66MOL    H6223592   5.271   1.745   3.838  0.0331 -0.8020  1.1771
   66MOL    H6323593   5.293   1.669   3.677  1.7212  0.2751 -0.4967
   66MOL    H6423594   5.375   1.480   3.872 -1.1324 -1.6233  0.5487
   66MOL    H6523595   5.183   1.349   3.752 -1.1519 -0.6725 -3.2269
   66MOL    H6623596   5.166   1.494   3.666 -1.2455 -1.5037  0.8629
   66MOL    H6723597   5.401   1.301   3.657 -1.8506  0.4971  2.1814
   66MOL    H6823598   5.428   1.470   3.598 -1.7177  2.0833  0.6449
   66MOL    H6923599   5.204   1.268   3.527  0.7696  0.5726  2.2437
   66MOL    H7023600   5.221   1.425   3.444  1.5766 -0.7728 -2.7812
   66MOL    H7123601   5.423   1.208   3.409 -2.0302  0.3028  1.8557
   66MOL    H7223602   5.313   1.244   3.285 -0.6230 -0.1630  0.1357
   66MOL    H7323603   5.418   1.376   3.327  0.0216 -1.2253 -2.8802
   66MOL    C7423604   5.169   1.533   3.936 -0.1071 -0.2137 -0.1478
   66MOL    C7523605   5.144   1.407   4.023 -0.1219  0.4597  0.0669
   66MOL    C7623606   5.269   1.359   4.107 -0.2368  0.4995  0.1917
   66MOL    C7723607   5.321   1.444   4.216 -0.3403 -0.0236 -0.1839
   66MOL    C7823608   5.446   1.389   4.291 -0.0393 -0.7000  0.3366
   66MOL    C7923609   5.571   1.394   4.204  0.8534 -0.2535  0.1064
   66MOL    H8023610   5.171   1.623   3.997 -0.2969 -0.0864 -0.3301
   66MOL    H8123611   5.072   1.549   3.890 -0.9802  1.1424  2.1353
   66MOL    H8223612   5.129   1.328   3.950 -0.0919 -0.3143  0.8893
   66MOL    H8323613   5.235   1.261   4.141  1.9181 -0.9361 -1.6178
   66MOL    H8423614   5.350   1.333   4.039  0.6780  0.0420  1.4518
   66MOL    H8523615   5.338   1.541   4.170 -2.0359  0.4608  0.1624
   66MOL    H8623616   5.237   1.465   4.283 -1.2346 -0.1423 -1.2626
   66MOL    H8723617   5.421   1.293   4.337  0.1138 -0.0888  1.7453
   66MOL    H8823618   5.477   1.460   4.369  0.9123 -0.2462 -0.4506
   66MOL    H8923619   5.598   1.496   4.175 -1.2129  0.1205 -0.5522
   66MOL    H9023620   5.649   1.346   4.264  2.6592  2.1559 -0.2153
   66MOL    H9123621   5.559   1.335   4.114 -1.6324  1.2570 -0.5874
   66MOL    C9223622   5.015   1.424   4.117  0.4766 -0.3227 -0.5823
   66MOL    C9323623   4.876   1.383   4.073 -0.0898 -0.1823  0.3227
   66MOL    C9423624   4.812   1.465   3.962 -0.2618  0.3371 -0.4442
   66MOL    C9523625   4.658   1.462   3.975  0.3741 -0.1366 -0.3635
   66MOL    C9623626   4.603   1.547   4.092  0.3104  0.1836 -0.0533
   66MOL    C9723627   4.460   1.578   4.060  0.2843  0.1837 -0.1033
   66MOL    H9823628   5.047   1.382   4.213  2.7652  3.6148  0.4717
   66MOL    H9923629   5.016   1.532   4.134  2.0801 -0.3368 -0.5124
   66MOL   H10023630   4.812   1.411   4.157 -0.6877  1.3326 -0.6109
   66MOL   H10123631   4.848   1.429   3.866  1.4452  0.0049  0.2865
   66MOL   H10223632   4.841   1.570   3.966  0.7245  0.0683 -0.2553
   66MOL   H10323633   4.619   1.503   3.882 -0.9991 -1.3459 -0.3385
   66MOL   H10423634   4.623   1.360   3.988  0.9276 -0.2042  0.6808
   66MOL   H10523635   4.613   1.497   4.188 -3.0810  1.2768  0.9238
   66MOL   H10623636   4.659   1.640   4.100 -0.5951  0.7340 -0.0906
   66MOL   H10723637   4.439   1.622   3.962 -1.7537 -1.6093 -0.5233
   66MOL   H10823638   4.392   1.493   4.065  1.2767 -0.5305  1.6553
   66MOL   H10923639   4.424   1.643   4.140 -1.4081  0.4765 -1.0807
   66MOL   C11023640   4.860   1.235   4.058 -0.8399  0.0042  0.3178
   66MOL   C11123641   4.843   1.137   4.174  0.7173  0.2322  0.1846
   66MOL   C11223642   4.867   0.990   4.123 -0.4012  0.3647 -0.5146
   66MOL   C11323643   4.745   0.923   4.054 -0.7432 -0.6722 -0.2806
   66MOL   C11423644   4.766   0.773   4.035  0.3893  1.0584 -0.6322
   66MOL   C11523645   4.728   0.693   4.159 -0.2398 -1.0282 -0.6876
   66MOL   H11623646   4.778   1.202   3.994 -1.2255 -0.6814  1.1637
   66MOL   H11723647   4.948   1.208   4.001  1.3048  0.7831  3.1547
   66MOL   H11823648   4.940   1.158   4.219  1.4597  0.2778 -1.4094
   66MOL   H11923649   4.888   0.931   4.212  0.4367 -1.5377 -1.9546
   66MOL   H12023650   4.954   0.985   4.058 -0.0110 -0.2565  0.0479
   66MOL   H12123651   4.716   0.959   3.955 -3.1305  1.5504  1.1876
   66MOL   H12223652   4.653   0.942   4.109 -1.1778  0.5049 -1.3799
   66MOL   H12323653   4.862   0.740   3.996  0.3888  1.3017 -0.8418
   66MOL   H12423654   4.694   0.737   3.962 -1.4269 -1.4606  2.2650
   66MOL   H12523655   4.739   0.587   4.140 -0.4747 -1.2209  0.2498
   66MOL   H12623656   4.801   0.708   4.238  0.0081 -2.1813 -0.6928
   66MOL   H12723657   4.628   0.722   4.191  0.2732 -0.5871  0.5533
   66MOL   C12823658   4.719   1.136   4.269 -0.6328 -0.8593  0.5907
   66MOL   C12923659   4.708   1.243   4.376  0.2734 -0.8191  0.1968
   66MOL   C13023660   4.838   1.259   4.454 -0.0348  0.2595 -0.3117
   66MOL   C13123661   4.900   1.133   4.506 -0.4014  0.4450 -0.2126
   66MOL   C13223662   5.052   1.140   4.556  0.4303 -0.0780 -0.7251
   66MOL   C13323663   5.148   1.174   4.436 -0.6612  0.0596 -0.7901
   66MOL   H13423664   4.716   1.041   4.321 -1.2598  0.3199  2.7544
   66MOL   H13523665   4.637   1.153   4.199  0.1894 -0.9926 -0.4324
   66MOL   H13623666   4.688   1.342   4.336  1.6188 -0.6049  0.0281
   66MOL   H13723667   4.915   1.305   4.390 -0.8063  0.0667 -1.3971
   66MOL   H13823668   4.816   1.332   4.531 -0.2146  0.5095 -0.5983
   66MOL   H13923669   4.919   1.060   4.427 -0.5061  0.2455 -0.0548
   66MOL   H14023670   4.845   1.089   4.589  0.4132  0.9427  0.5975
   66MOL   H14123671   5.057   1.221   4.629 -2.6867  0.4759 -1.0191
   66MOL   H14223672   5.072   1.042   4.598  2.0140  0.2168 -0.7582
   66MOL   H14323673   5.139   1.104   4.353 -2.0787 -0.0519 -0.5497
   66MOL   H14423674   5.241   1.144   4.485 -2.0217 -0.6572  1.4628
   66MOL   H14523675   5.156   1.275   4.398 -0.3944 -0.0759 -1.0982
   66MOL   C14623676   4.595   1.208   4.474  0.2093 -0.1288  0.2926
   66MOL   C14723677   4.526   1.334   4.536 -0.3477  1.5565 -0.0381
   66MOL   C14823678   4.464   1.306   4.671  0.6197  0.7043 -0.6296
   66MOL   C14923679   4.558   1.290   4.792  0.2988  0.6200  0.1219
   66MOL   C15023680   4.619   1.418   4.847 -0.3992  0.4812  0.3646
   66MOL   C15123681   4.721   1.395   4.961 -0.0333 -1.0416  0.7550
   66MOL   H15223682   4.522   1.145   4.424 -0.6119  0.8415  0.2502
   66MOL   H15323683   4.636   1.138   4.547  0.3733 -1.7985 -1.3798
   66MOL   H15423684   4.600   1.412   4.553  0.7748  0.6510 -0.7070
   66MOL   H15523685   4.399   1.219   4.658  1.9563 -0.6750  1.6726
   66MOL   H15623686   4.392   1.380   4.705 -1.3268 -2.6584  2.9284
   66MOL   H15723687   4.500   1.241   4.871 -0.0996 -1.1448 -1.2534
   66MOL   H15823688   4.637   1.222   4.761  1.0447  1.7526 -0.4931
   66MOL   H15923689   4.535   1.476   4.885  0.3338  0.5524  1.8996
   66MOL   H16023690   4.657   1.481   4.767 -1.0556  1.4634  0.8248
   66MOL   H16123691   4.756   1.490   5.002  0.6838 -0.7370 -0.5440
   66MOL   H16223692   4.667   1.350   5.045 -0.1723  0.4959  1.4977
   66MOL   H16323693   4.806   1.334   4.930  0.5302  0.6409 -1.0768
   66MOL   C16423694   4.413   1.384   4.449 -0.0767  0.1449 -0.3487
   66MOL   C16523695   4.361   1.531   4.474 -0.8729  0.2664 -0.1594
   66MOL   C16623696   4.468   1.641   4.474  0.0630  0.3735 -1.3025
   66MOL   C16723697   4.427   1.767   4.537  0.4791  0.4785 -0.1843
   66MOL   C16823698   4.540   1.849   4.601 -0.1786  1.1185 -0.5136
   66MOL   C16923699   4.634   1.927   4.510  0.4532 -0.6992  0.1745
   66MOL   H17023700   4.454   1.386   4.348 -2.7419  0.5008 -1.4519
   66MOL   H17123701   4.335   1.308   4.450  0.3053 -0.2926 -1.7828
   66MOL   H17223702   4.311   1.536   4.571  1.1643  1.3384  0.8602
   66MOL   H17323703   4.488   1.662   4.369 -0.4259  1.3201 -1.2070
   66MOL   H17423704   4.569   1.608   4.499 -0.6849 -1.3407 -0.4149
   66MOL   H17523705   4.356   1.747   4.617  0.6040  1.4568  0.1779
   66MOL   H17623706   4.380   1.829   4.461 -1.5890 -0.1272  0.5693
   66MOL   H17723707   4.610   1.786   4.656 -0.1926  0.5758 -1.1128
   66MOL   H17823708   4.500   1.914   4.679 -0.9920  0.1425 -0.1053
   66MOL   H17923709   4.662   1.862   4.427 -0.4636 -1.2820  0.3105
   66MOL   H18023710   4.724   1.951   4.567  0.3637  0.3973 -0.1276
   66MOL   H18123711   4.584   2.017   4.475  0.1904 -0.9771 -0.1713
   66MOL   C18223712   4.259   1.557   4.366  0.6271 -0.1420  0.3020
   66MOL   C18323713   4.116   1.513   4.402  0.0148 -0.3349  0.0751
   66MOL   C18423714   4.047   1.481   4.270  0.0339  0.1651 -0.3456
   66MOL   C18523715   4.088   1.348   4.216 -0.7099  0.0883 -0.0570
   66MOL   C18623716   3.996   1.287   4.098 -0.2611 -0.3266 -0.8958
   66MOL   C18723717   3.992   1.362   3.971 -0.1008  0.0285  0.6123
   66MOL   H18823718   4.244   1.665   4.357  0.0846  0.1101  3.6075
   66MOL   H18923719   4.289   1.508   4.274 -2.2333 -0.9015 -0.2641
   66MOL   H19023720   4.116   1.421   4.461 -2.8830 -0.6202 -0.2945
   66MOL   H19123721   3.938   1.473   4.275  0.0931  0.0148  1.1554
   66MOL   H19223722   4.067   1.561   4.199 -0.1411  1.8356  1.4358
   66MOL   H19323723   4.095   1.275   4.296 -1.7464  2.6332  2.4352
   66MOL   H19423724   4.186   1.364   4.172  0.0656 -1.5077  1.0783
   66MOL   H19523725   3.896   1.281   4.140  0.2437  1.7117  0.7147
   66MOL   H19623726   4.036   1.188   4.077  1.7805  0.4838 -0.9921
   66MOL   H19723727   4.087   1.411   3.951  0.7915 -1.4990  0.9928
   66MOL   H19823728   3.911   1.434   3.972 -1.8749 -1.9087  1.0350
   66MOL   H19923729   3.979   1.296   3.885  0.4732  1.0367 -0.2644
   66MOL   C20023730   4.040   1.618   4.489 -0.2268  0.1832  0.1276
   66MOL   C20123731   3.916   1.560   4.564 -0.6340 -0.4780  0.6206
   66MOL   C20223732   3.941   1.548   4.714 -0.8818 -0.0998 -0.3180
   66MOL   C20323733   4.077   1.486   4.753 -0.0887 -0.5336  0.0050
   66MOL   C20423734   4.085   1.467   4.903  0.0359  0.1065  0.3023
   66MOL   C20523735   4.222   1.404   4.951  0.1497  0.6244  0.0349
   66MOL   H20623736   4.019   1.682   4.403  0.9952 -1.7727 -1.6597
   66MOL   H20723737   4.105   1.681   4.549  0.2826 -1.1631  1.0001
   66MOL   H20823738   3.903   1.456   4.534  1.2258  0.0269 -2.1484
   66MOL   H20923739   3.866   1.486   4.762 -1.3385  1.3327  0.8470
   66MOL   H21023740   3.933   1.649   4.755 -1.1860 -1.2032  2.4789
   66MOL   H21123741   4.161   1.551   4.728  0.6395 -0.5319  2.3499
   66MOL   H21223742   4.092   1.390   4.703  1.8166 -0.1885 -0.1431
   66MOL   H21323743   4.001   1.407   4.937  0.7348 -0.9886  0.1163
   66MOL   H21423744   4.073   1.559   4.961 -0.4338 -0.9308  1.8697
   66MOL   H21523745   4.230   1.307   4.902  3.1381  0.3207  1.0300
   66MOL   H21623746   4.301   1.472   4.918 -0.9364  1.5959 -0.6086
   66MOL   H21723747   4.225   1.407   5.060  1.3118  0.7350  0.0067
   66MOL   C21823748   3.790   1.651   4.530  0.1335 -0.3666 -0.6760
   66MOL   C21923749   3.653   1.595   4.572 -0.6505  0.6652 -0.2654
   66MOL   C22023750   3.614   1.475   4.475 -0.2108  0.0280 -0.0176
   66MOL   C22123751   3.621   1.505   4.325 -0.3442 -0.0256 -0.0905
   66MOL   C22223752   3.583   1.384   4.249  0.6614 -0.3181 -0.0122
   66MOL   C22323753   3.577   1.421   4.099  0.3971 -0.3505 -0.6393
   66MOL   H22423754   3.803   1.747   4.579  0.0179 -1.3052  1.2448
   66MOL   H22523755   3.806   1.667   4.423  2.6036 -0.3768 -0.3444
   66MOL   H22623756   3.675   1.550   4.669 -0.3121  1.1860 -0.0975
   66MOL   H22723757   3.516   1.439   4.505 -0.1533 -0.5010 -0.4716
   66MOL   H22823758   3.681   1.390   4.489  0.5411  0.5221 -0.5374
   66MOL   H22923759   3.725   1.525   4.299 -0.1686 -1.5726 -0.5984
   66MOL   H23023760   3.556   1.592   4.312  1.4059  1.5043  1.1474
   66MOL   H23123761   3.659   1.306   4.257  3.3899  2.3969  1.7802
   66MOL   H23223762   3.487   1.351   4.288  0.2162  0.3087 -0.5653
   66MOL   H23323763   3.507   1.502   4.076  1.0090  0.3939  0.0834
   66MOL   H23423764   3.568   1.325   4.050  0.6451 -0.1644 -1.0470
   66MOL   H23523765   3.669   1.466   4.064 -0.8961 -0.2396 -4.0574
   66MOL   C23623766   3.538   1.692   4.574 -0.4222  0.1385 -0.4739
   66MOL   C23723767   3.550   1.830   4.652 -0.2435 -0.2670  0.5015
   66MOL   C23823768   3.588   1.814   4.801  0.0706  0.5252  0.0535
   66MOL   C23923769   3.633   1.941   4.882  0.7157 -0.0808 -0.4608
   66MOL   C24023770   3.755   1.926   4.966 -0.3346  0.1394 -0.3941
   66MOL   C24123771   3.752   1.798   5.059 -0.5454  0.1332  0.5286
   66MOL   H24223772   3.519   1.716   4.470 -1.2172 -2.1404 -0.8697
   66MOL   H24323773   3.448   1.636   4.600  0.3490 -0.4102  1.1168
   66MOL   H24423774   3.624   1.893   4.604  0.8489 -1.7636  0.2110
   66MOL   H24523775   3.498   1.775   4.848 -0.9901  0.5119 -1.9240
   66MOL   H24623776   3.668   1.742   4.815  1.1397  2.3001  3.8463
   66MOL   H24723777   3.552   1.980   4.944  2.6246 -0.1833  2.1654
   66MOL   H24823778   3.661   2.020   4.813  0.0217  0.9958  0.4626
   66MOL   H24923779   3.846   1.916   4.907  0.8219 -3.2852  1.7773
   66MOL   H25023780   3.773   2.011   5.032  1.3829 -1.2899  1.0513
   66MOL   H25123781   3.756   1.705   5.003  1.0496  0.3671  0.2174
   66MOL   H25223782   3.823   1.802   5.141 -2.8059 -0.4278  2.5518
   66MOL   H25323783   3.660   1.787   5.116 -0.0925 -0.3760  1.1696
   66MOL   C25423784   3.413   1.905   4.639 -0.0163 -0.6944  0.0159
   66MOL   C25523785   3.377   1.964   4.495  0.2838  0.1563  0.3986
   66MOL   C25623786   3.471   2.084   4.461  0.3709 -0.2116 -0.1452
   66MOL   C25723787   3.441   2.160   4.333  0.8177 -0.4025  0.2623
   66MOL   C25823788   3.563   2.248   4.286  0.2234 -0.0655  0.1199
   66MOL   C25923789   3.523   2.334   4.164  0.0648 -0.2183  0.4041
   66MOL   H26023790   3.402   1.983   4.714  0.0892 -0.5026 -0.1693
   66MOL   H26123791   3.332   1.841   4.674 -0.4408 -0.8764 -1.2928
   66MOL   H26223792   3.394   1.890   4.417 -0.1850  0.1678  0.2861
   66MOL   H26323793   3.464   2.163   4.536  1.5962  0.1599 -0.4090
   66MOL   H26423794   3.574   2.050   4.469 -0.6781 -3.8219 -1.0165
   66MOL   H26523795   3.418   2.086   4.256  0.6730 -0.5438  0.4417
   66MOL   H26623796   3.352   2.220   4.348  1.0041 -0.2603  0.8115
   66MOL   H26723797   3.640   2.175   4.259  0.3108  0.3703 -0.8422
   66MOL   H26823798   3.594   2.324   4.359  2.3963  0.0588 -0.8866
   66MOL   H26923799   3.453   2.281   4.100 -0.6079 -1.0751  1.8380
   66MOL   H27023800   3.597   2.348   4.085  0.0973  0.9110  0.6191
   66MOL   H27123801   3.489   2.430   4.203  0.5573 -0.2048  0.8007
   66MOL   C27223802   3.232   2.018   4.494 -0.0299 -0.7320 -0.0067
   66MOL   C27323803   3.122   1.921   4.527 -0.7487  0.1751 -0.0178
   66MOL   C27423804   3.141   1.782   4.458 -0.5820  0.3602  0.2055
   66MOL   C27523805   3.146   1.785   4.301 -1.0480 -0.3238 -0.1457
   66MOL   C27623806   3.220   1.672   4.243  0.9040  0.7599  0.3054
   66MOL   C27723807   3.218   1.673   4.089 -0.2265  0.4654 -0.4719
   66MOL   H27823808   3.216   2.094   4.571 -1.6851 -0.2419 -0.8245
   66MOL   H27923809   3.221   2.067   4.397  1.4295  1.6528  0.9801
   66MOL   H28023810   3.124   1.901   4.634 -0.1755 -0.7209 -0.1903
   66MOL   H28123811   3.062   1.712   4.485 -1.3731  1.1348 -0.0987
   66MOL   H28223812   3.231   1.745   4.509 -1.6182 -3.1961 -0.4157
   66MOL   H28323813   3.190   1.880   4.273  0.2467 -1.3890 -1.8573
   66MOL   H28423814   3.041   1.785   4.271 -0.9912  0.6802 -0.3505
   66MOL   H28523815   3.321   1.675   4.283  1.1677 -1.5226 -0.1045
   66MOL   H28623816   3.202   1.569   4.274 -0.2031  0.4224 -1.4176
   66MOL   H28723817   3.270   1.585   4.052  0.9542  0.8720  0.2184
   66MOL   H28823818   3.115   1.673   4.053 -0.4251  0.5009  0.0955
   66MOL   H28923819   3.265   1.763   4.049 -0.1463  0.9554  0.7111
   66MOL   C29023820   2.978   1.975   4.499  1.0227 -0.6825 -0.3307
   66MOL   C29123821   2.935   2.096   4.583  0.3101 -0.3271  0.6963
   66MOL   C29223822   2.792   2.152   4.543 -0.0780 -0.0811  0.1041
   66MOL   C29323823   2.779   2.171   4.392  0.0958 -0.9638  0.4546
   66MOL   C29423824   2.657   2.247   4.354 -0.3450  0.1820 -0.7815
   66MOL   C29523825   2.634   2.282   4.203 -0.1944  0.3646 -0.2182
   66MOL   H29623826   2.910   1.894   4.525 -3.1448  3.1510  1.3566
   66MOL   H29723827   2.972   1.994   4.392  1.3039 -0.4735 -0.3076
   66MOL   H29823828   3.010   2.170   4.556  1.0356 -1.5020 -0.5843
   66MOL   H29923829   2.782   2.251   4.587  0.0873  0.4625 -1.0675
   66MOL   H30023830   2.712   2.089   4.582  0.1177  0.4081  1.3272
   66MOL   H30123831   2.865   2.223   4.350 -1.0311  0.2619 -0.3455
   66MOL   H30223832   2.792   2.074   4.344  0.8563 -0.4806 -0.3348
   66MOL   H30323833   2.672   2.337   4.414 -0.6357  0.1040 -0.5892
   66MOL   H30423834   2.573   2.198   4.403  0.7877 -0.8188  0.1833
   66MOL   H30523835   2.536   2.329   4.192 -0.7454 -0.1449  2.1640
   66MOL   H30623836   2.652   2.193   4.142  3.0521  0.2545  0.8276
   66MOL   H30723837   2.707   2.352   4.164 -0.0235  0.6624  0.6177
   66MOL   C30823838   2.938   2.069   4.742 -0.7828 -0.4334 -0.3850
   66MOL   C30923839   2.862   2.164   4.841 -0.4734 -1.0037  0.2571
   66MOL   C31023840   2.919   2.308   4.820 -0.1127 -0.5297 -1.1074
   66MOL   C31123841   2.833   2.418   4.880  0.4147  0.1582  0.1605
   66MOL   C31223842   2.690   2.428   4.818 -0.3031  0.3341 -0.0163
   66MOL   C31323843   2.610   2.546   4.866  0.3228  0.3070 -0.0580
   66MOL   H31423844   2.929   1.962   4.761 -1.9061 -0.0451  1.4360
   66MOL   H31523845   3.043   2.077   4.771 -1.3209 -1.9082  2.1798
   66MOL   H31623846   2.755   2.168   4.821 -0.2312  0.6670 -0.7575
   66MOL   H31723847   2.948   2.330   4.718  1.5767  0.3264 -0.4683
   66MOL   H31823848   3.010   2.327   4.878  0.7474 -1.0468 -2.2741
   66MOL   H31923849   2.899   2.503   4.867  0.4797 -0.2983 -2.8273
   66MOL   H32023850   2.836   2.408   4.988  0.2002 -0.9682  0.0733
   66MOL   H32123851   2.705   2.440   4.711 -1.0550  0.5017 -0.1101
   66MOL   H32223852   2.627   2.343   4.848  0.0933  1.0465  3.0538
   66MOL   H32323853   2.643   2.641   4.824  0.0486  0.0852 -0.7865
   66MOL   H32423854   2.602   2.538   4.974  1.0340  2.0795  0.1490
   66MOL   H32523855   2.504   2.540   4.839 -0.1607  1.9481  1.3855
   66MOL   C32623856   2.866   2.116   4.988 -0.4245 -0.0564 -0.1084
   66MOL   C32723857   2.786   1.982   5.022 -0.2514 -0.9724  0.3340
   66MOL   C32823858   2.828   1.920   5.163  0.0568  0.6668  0.0135
   66MOL   C32923859   2.746   1.803   5.224 -1.0085 -0.3752  0.8453
   66MOL   C33023860   2.808   1.740   5.344  0.0477 -0.2209 -0.5499
   66MOL   C33123861   2.747   1.611   5.386 -0.5818  0.4822 -0.4371
   66MOL   H33223862   2.833   2.186   5.066 -0.2092 -2.1992  1.9514
   66MOL   H33323863   2.972   2.112   5.012 -0.5484  0.9737  0.6464
   66MOL   H33423864   2.802   1.906   4.945 -2.0671 -1.4104  0.3650
   66MOL   H33523865   2.931   1.887   5.151 -0.4467 -0.1251 -2.3837
   66MOL   H33623866   2.847   2.005   5.229  1.3168 -0.7503  1.5353
   66MOL   H33723867   2.747   1.728   5.145 -0.3809 -0.7181  1.1712
   66MOL   H33823868   2.642   1.826   5.248 -0.5413 -0.6790  3.2668
   66MOL   H33923869   2.910   1.716   5.314 -0.2897 -0.4205 -1.5731
   66MOL   H34023870   2.804   1.811   5.426  0.7266  1.6608 -2.1029
   66MOL   H34123871   2.783   1.573   5.482 -1.7677 -2.3967 -1.0718
   66MOL   H34223872   2.780   1.539   5.312 -1.9363 -0.5415 -0.0724
   66MOL   H34323873   2.638   1.614   5.392 -0.4307  3.2020  2.0379
   66MOL   C34423874   2.633   1.987   5.019 -0.3252  0.3380 -0.4034
   66MOL   C34523875   2.565   2.071   5.127  0.2158 -0.3481 -0.1171
   66MOL   C34623876   2.414   2.072   5.125  0.6175 -0.7564 -0.1299
   66MOL   C34723877   2.344   1.946   5.166 -0.0360 -0.1896 -0.0680
   66MOL   C34823878   2.192   1.949   5.174 -0.2960 -0.1117 -0.1294
   66MOL   C34923879   2.129   1.825   5.233 -0.0067 -0.2692  0.3849
   66MOL   H35023880   2.602   2.014   4.917 -0.7139 -1.8360 -0.8870
   66MOL   H35123881   2.598   1.885   5.032  0.6351  0.1282  0.5690
   66MOL   H35223882   2.588   2.174   5.098 -0.9467 -1.0610 -3.8804
   66MOL   H35323883   2.369   2.149   5.188  0.1355  0.5353 -2.0112
   66MOL   H35423884   2.382   2.095   5.024  0.3069  1.3850  0.4206
   66MOL   H35523885   2.381   1.863   5.106 -0.7130 -0.6476  0.1399
   66MOL   H35623886   2.379   1.939   5.269  0.2190  1.0867 -0.0594
   66MOL   H35723887   2.163   2.035   5.235 -2.2094 -0.7100 -0.1755
   66MOL   H35823888   2.160   1.960   5.071 -2.3892 -1.0868  0.3994
   66MOL   H35923889   2.106   1.756   5.152 -0.5833  3.9604 -3.2409
   66MOL   H36023890   2.185   1.779   5.315  0.9703 -0.6317 -0.4829
   66MOL   H36123891   2.028   1.836   5.275 -0.9085 -0.4605 -1.6849
   66MOL   H36223892   2.616   2.073   5.223  0.9246 -0.0473 -0.4970
   67MOL     C123893   7.082   2.429   7.158 -0.0559 -0.3808 -0.3474
   67MOL     C223894   6.946   2.467   7.205  0.2710  0.5827  0.0000
   67MOL     C323895   6.936   2.627   7.191 -0.3999 -0.2519  0.6541
   67MOL     C423896   6.802   2.694   7.217  0.1835 -0.1748  0.1832
   67MOL     C523897   6.821   2.842   7.195 -0.3269 -0.0446 -0.0537
   67MOL     C623898   6.691   2.927   7.202 -0.1948 -0.3361 -0.5312
   67MOL     H723899   7.157   2.446   7.236  0.6543 -0.4861 -1.0005
   67MOL     H823900   7.086   2.323   7.134  1.3320  0.1360 -2.5358
   67MOL     H923901   6.874   2.429   7.132  0.5836 -0.1291  0.0600
   67MOL    H1023902   6.979   2.652   7.095 -0.1440 -0.4105  0.7273
   67MOL    H1123903   7.002   2.681   7.260  1.6046 -0.0898 -1.3496
   67MOL    H1223904   6.764   2.666   7.316 -1.6843 -1.1605 -0.7919
   67MOL    H1323905   6.730   2.653   7.146 -0.0522  1.2253 -0.4016
   67MOL    H1423906   6.879   2.878   7.280 -0.8602  1.3865 -0.2852
   67MOL    H1523907   6.866   2.864   7.098  1.4659 -0.0393  0.7601
   67MOL    H1623908   6.701   3.034   7.189 -2.5756  0.0069  0.3097
   67MOL    H1723909   6.646   2.919   7.301  2.8045 -2.7216  0.7445
   67MOL    H1823910   6.617   2.889   7.131 -0.4156  0.6812 -0.8440
   67MOL    H1923911   7.122   2.489   7.077  0.9689  0.9997  1.1275
   67MOL    C2023912   6.911   2.417   7.353 -0.4429 -0.0210 -0.5493
   67MOL    C2123913   6.899   2.262   7.375 -0.1261  0.4058  0.3119
   67MOL    C2223914   6.887   2.238   7.523  0.1857 -0.3429  0.3485
   67MOL    C2323915   7.012   2.267   7.605  0.3898  0.0451 -0.2886
   67MOL    C2423916   7.008   2.197   0.020 -0.1112 -0.0449 -0.1929
   67MOL    C2523917   7.109   2.260   0.128 -0.1128  0.2920  0.5657
   67MOL    H2623918   6.822   2.466   7.393 -0.8636 -1.5864  0.4834
   67MOL    H2723919   6.995   2.449   7.415 -0.2108  0.5436 -1.1537
   67MOL    H2823920   6.985   2.210   7.334 -1.4029 -2.1412  0.8050
   67MOL    H2923921   6.856   2.137   7.551  2.6115 -0.4164  3.1107
   67MOL    H3023922   6.806   2.290   7.574  0.4228 -1.4273  1.8729
   67MOL    H3123923   7.032   2.373   7.615  0.8760  0.0986 -1.6847
   67MOL    H3223924   7.103   2.229   7.558 -0.5391 -0.9527 -1.3366
   67MOL    H3323925   6.908   2.215   0.058  0.0478  1.0353 -0.2693
   67MOL    H3423926   7.016   2.089   0.002  1.4218 -0.0666  0.4822
   67MOL    H3523927   7.101   2.368   0.119  0.4670  0.3080  0.2250
   67MOL    H3623928   7.070   2.233   0.226 -1.2632 -1.2524 -0.2693
   67MOL    H3723929   7.211   2.225   0.116 -0.0089  1.2053 -1.3702
   67MOL    C3823930   6.777   2.205   7.299  0.2377  0.5610  0.1424
   67MOL    C3923931   6.751   2.057   7.300 -0.2420 -0.2645  0.5601
   67MOL    C4023932   6.605   2.004   7.289  0.0788  0.0174  0.3310
   67MOL    C4123933   6.533   2.059   7.160  0.6172  0.5081 -0.0991
   67MOL    C4223934   6.378   2.074   7.167  0.0066  0.3884 -0.1092
   67MOL    C4323935   6.299   1.944   7.186 -0.2230 -0.2292  0.0337
   67MOL    H4423936   6.778   2.229   7.192  1.4474  0.8514  0.2118
   67MOL    H4523937   6.693   2.249   7.353 -1.0997 -2.7058  0.8543
   67MOL    H4623938   6.779   2.021   7.399 -0.3941 -1.0829  0.3125
   67MOL    H4723939   6.601   1.896   7.283 -0.8555  0.1430 -1.8343
   67MOL    H4823940   6.548   2.016   7.381  1.1588 -1.9618  1.2663
   67MOL    H4923941   6.570   2.161   7.145 -2.0137  1.3588 -1.0664
   67MOL    H5023942   6.557   1.997   7.074 -1.0013 -2.6812  1.6834
   67MOL    H5123943   6.354   2.154   7.237 -0.7902 -0.4876  0.6186
   67MOL    H5223944   6.334   2.125   7.081 -0.3896 -0.1126 -0.2016
   67MOL    H5323945   6.191   1.959   7.199 -0.1726 -0.6960  1.1171
   67MOL    H5423946   6.329   1.899   7.281 -1.2438 -1.2192 -0.0988
   67MOL    H5523947   6.323   1.876   7.105  0.9660  2.6920 -2.1401
   67MOL    C5623948   6.836   1.981   7.197  0.1170  0.1761 -0.2056
   67MOL    C5723949   6.860   1.826   7.212  0.4030  0.1937  0.0493
   67MOL    C5823950   6.991   1.799   7.274 -0.9187 -0.5503  0.1608
   67MOL    C5923951   7.007   1.846   7.418 -0.1170  0.4836  0.2451
   67MOL    C6023952   6.915   1.774   7.526 -0.0183  0.1831  0.5902
   67MOL    C6123953   6.946   1.622   7.543 -0.0087 -0.2273  0.3904
   67MOL    H6223954   6.778   1.990   7.104 -2.4930 -0.9841  1.2384
   67MOL    H6323955   6.936   2.023   7.185  1.0090 -1.4170  1.4278
   67MOL    H6423956   6.787   1.775   7.274 -0.6719  1.2390 -0.3453
   67MOL    H6523957   7.025   1.697   7.259 -0.3203 -0.2562 -0.5743
   67MOL    H6623958   7.067   1.853   7.216 -0.0061 -2.5163 -0.5191
   67MOL    H6723959   6.995   1.954   7.430 -1.3209  0.4258 -0.3266
   67MOL    H6823960   7.107   1.816   7.448  0.5237  1.9098 -0.3855
   67MOL    H6923961   6.938   1.816   7.624 -2.2366 -3.3656  2.7327
   67MOL    H7023962   6.812   1.793   7.498 -0.0315  1.7583  1.6766
   67MOL    H7123963   6.909   1.586   7.640 -1.0689 -1.9534 -0.6277
   67MOL    H7223964   6.905   1.562   7.463 -2.7324  0.0570  1.5026
   67MOL    H7323965   7.054   1.608   7.547 -0.1426 -1.2505  0.4538
   67MOL    C7423966   6.834   1.764   7.068  0.4932 -0.6995  0.3350
   67MOL    C7523967   6.828   1.611   7.064 -0.3694  0.9390  0.0549
   67MOL    C7623968   6.708   1.553   7.150  0.0638 -0.0390  0.3979
   67MOL    C7723969   6.569   1.598   7.104  0.0048  0.1368 -0.1051
   67MOL    C7823970   6.465   1.540   7.207  0.5704  0.1346 -0.0837
   67MOL    C7923971   6.466   1.391   7.202  0.7329 -0.0732 -0.6798
   67MOL    H8023972   6.753   1.816   7.017  2.1065  0.4866 -1.0399
   67MOL    H8123973   6.920   1.796   7.010 -0.8594  0.1050 -1.2911
   67MOL    H8223974   6.918   1.576   7.116  0.1407  2.1985  0.0532
   67MOL    H8323975   6.725   1.445   7.144 -0.2380 -0.1503  1.5113
   67MOL    H8423976   6.720   1.568   7.257 -2.9282  1.1670  0.5871
   67MOL    H8523977   6.558   1.706   7.093  2.1036  0.2626 -1.0916
   67MOL    H8623978   6.541   1.566   7.004  0.3812 -0.4344 -0.0309
   67MOL    H8723979   6.371   1.579   7.170 -0.0474 -0.7035  0.5717
   67MOL    H8823980   6.473   1.574   7.310 -0.5168 -1.6891  0.6242
   67MOL    H8923981   6.472   1.357   7.098 -1.1626 -0.4598 -0.7003
   67MOL    H9023982   6.551   1.341   7.248  0.4175  1.7914  2.0053
   67MOL    H9123983   6.369   1.353   7.236  1.6559 -1.5144  0.3880
   67MOL    C9223984   6.828   1.547   6.926  1.0924  0.2137 -0.8328
   67MOL    C9323985   6.954   1.564   6.839  0.2062 -0.3292  0.2717
   67MOL    C9423986   7.095   1.545   6.904  0.3289 -0.3818  0.0445
   67MOL    C9523987   7.122   1.396   6.922 -0.2611 -0.9235  0.3840
   67MOL    C9623988   7.267   1.363   6.970  0.7765  0.6288 -0.0879
   67MOL    C9723989   7.291   1.214   6.981  0.5104 -0.2058 -0.3245
   67MOL    H9823990   6.794   1.443   6.933  1.9939 -0.0150  0.3854
   67MOL    H9923991   6.740   1.590   6.879 -0.3813 -0.9948  0.7405
   67MOL   H10023992   6.946   1.669   6.811 -0.4866 -1.4545 -4.2261
   67MOL   H10123993   7.103   1.603   6.995  0.0484 -2.2469  1.2805
   67MOL   H10223994   7.171   1.568   6.829  0.7561 -1.1196  0.2481
   67MOL   H10323995   7.047   1.369   6.997  0.3696 -0.5618  1.1530
   67MOL   H10423996   7.093   1.347   6.829 -1.0844 -1.6677  1.0122
   67MOL   H10523997   7.334   1.399   6.893 -0.4451  2.1371 -0.4875
   67MOL   H10623998   7.291   1.416   7.062 -0.4845  2.4266 -0.7585
   67MOL   H10723999   7.279   1.170   6.882  1.2656  0.3702 -0.6731
   67MOL   H10824000   7.390   1.203   7.025  0.6411  0.1246 -0.5338
   67MOL   H10924001   7.214   1.160   7.036  0.6205 -0.6786 -0.6303
   67MOL   C11024002   6.933   1.504   6.694  0.5710 -0.1627 -0.1039
   67MOL   C11124003   7.031   1.540   6.579  0.0585  0.0478  0.4895
   67MOL   C11224004   7.024   1.689   6.546  0.0451  1.0615  0.1890
   67MOL   C11324005   7.125   1.736   6.436  0.0440 -0.4056  0.1053
   67MOL   C11424006   7.154   1.886   6.447 -0.1108  0.5926 -0.1756
   67MOL   C11524007   7.034   1.976   6.399  0.0149  0.3575 -0.1380
   67MOL   H11624008   6.917   1.397   6.707  1.0244 -0.1827  0.2923
   67MOL   H11724009   6.834   1.538   6.664  0.8526 -0.2439 -1.1278
   67MOL   H11824010   7.133   1.519   6.613  0.3762  0.4329 -0.2271
   67MOL   H11924011   7.026   1.750   6.637 -0.5536 -0.6683  1.3954
   67MOL   H12024012   6.923   1.707   6.510 -0.1170  0.7908  0.4999
   67MOL   H12124013   7.089   1.702   6.338  1.4158  0.4365 -0.6920
   67MOL   H12224014   7.216   1.678   6.450  1.4803  1.8173  0.2077
   67MOL   H12324015   7.237   1.910   6.380  1.6427 -2.4838  0.7863
   67MOL   H12424016   7.179   1.927   6.544 -1.0490  0.7675 -0.0004
   67MOL   H12524017   7.056   2.083   6.406 -1.4771  0.7782 -1.5469
   67MOL   H12624018   7.000   1.944   6.301  0.9904 -0.2577 -0.2834
   67MOL   H12724019   6.950   1.963   6.468 -0.1197 -0.1851 -0.4027
   67MOL   C12824020   7.019   1.456   6.447  0.0349  0.3632  0.3240
   67MOL   C12924021   7.025   1.298   6.462 -0.0625  0.2959  0.3968
   67MOL   C13024022   7.179   1.265   6.502  0.2743 -0.1897  0.6934
   67MOL   C13124023   7.215   1.118   6.513  0.1121 -0.5298 -0.8416
   67MOL   C13224024   7.358   1.089   6.524  0.6159 -0.4524 -0.1573
   67MOL   C13324025   7.391   0.937   6.519  0.1079 -0.3297 -0.2549
   67MOL   H13424026   7.096   1.487   6.376  1.1472 -0.2083  1.2586
   67MOL   H13524027   6.919   1.480   6.411  0.5514 -0.4006 -1.6692
   67MOL   H13624028   6.956   1.265   6.540 -0.9085 -0.2114 -0.5562
   67MOL   H13724029   7.247   1.316   6.434 -0.8936  1.4812  0.7535
   67MOL   H13824030   7.210   1.319   6.591  1.9907  0.3597 -0.2118
   67MOL   H13924031   7.185   1.055   6.429 -1.1697 -3.9084  2.0128
   67MOL   H14024032   7.168   1.067   6.597  1.0567 -1.2104 -0.7168
   67MOL   H14124033   7.408   1.156   6.454  2.5238  0.6413  2.1780
   67MOL   H14224034   7.387   1.118   6.625  0.8370  1.4221 -0.7518
   67MOL   H14324035   7.497   0.920   6.533  0.2641  0.5931 -0.2736
   67MOL   H14424036   7.363   0.895   6.422 -0.3309  1.3414 -0.8677
   67MOL   H14524037   7.331   0.885   6.593  1.9663 -1.0350  0.7790
   67MOL   C14624038   6.977   1.221   6.338  0.3655 -1.1187  0.1042
   67MOL   C14724039   6.836   1.257   6.290 -0.6784  0.4423 -0.4421
   67MOL   C14824040   6.721   1.246   6.394 -0.2538 -0.2783  0.5857
   67MOL   C14924041   6.689   1.107   6.451  0.0292 -0.4777 -0.3150
   67MOL   C15024042   6.569   1.111   6.544  0.1896 -0.3223 -0.2270
   67MOL   C15124043   6.553   0.987   6.628  0.1722  0.4857 -0.6221
   67MOL   H15224044   7.056   1.230   6.263  0.5325  0.1611  0.4284
   67MOL   H15324045   6.974   1.115   6.363  0.5738 -1.1770 -0.1172
   67MOL   H15424046   6.832   1.362   6.262 -0.7306  1.1160  2.0005
   67MOL   H15524047   6.635   1.305   6.362  0.0429  0.2952  0.8205
   67MOL   H15624048   6.756   1.299   6.483 -0.7323  1.4110 -0.2065
   67MOL   H15724049   6.658   1.044   6.368  0.3514  1.1067 -1.6720
   67MOL   H15824050   6.770   1.061   6.506 -0.1512 -0.3876  0.0250
   67MOL   H15924051   6.475   1.137   6.496  1.1136 -0.0513 -1.9424
   67MOL   H16024052   6.583   1.200   6.605 -1.9230  0.0639 -0.2769
   67MOL   H16124053   6.635   0.973   6.698  0.4323  1.6585 -0.6799
   67MOL   H16224054   6.454   0.980   6.673  0.2055 -0.4585 -0.6772
   67MOL   H16324055   6.552   0.898   6.565  0.5341  1.7779 -2.4726
   67MOL   C16424056   6.795   1.183   6.162  0.9253 -1.0616  0.2835
   67MOL   C16524057   6.846   1.234   6.024 -0.2075 -0.0698  0.0984
   67MOL   C16624058   6.871   1.117   5.929  0.7326  0.6722 -0.1142
   67MOL   C16724059   7.002   1.041   5.957 -0.0682 -0.7377  0.3594
   67MOL   C16824060   7.023   0.929   5.860  1.0127  0.4473  0.1126
   67MOL   C16924061   7.159   0.862   5.891  0.5712 -0.7438  0.2317
   67MOL   H17024062   6.826   1.079   6.173 -0.4925 -1.6957 -1.5336
   67MOL   H17124063   6.686   1.183   6.159  0.9118 -1.2122  0.7801
   67MOL   H17224064   6.942   1.283   6.042 -0.1253 -0.5343  0.9681
   67MOL   H17324065   6.879   1.161   5.830 -1.1186  1.8483  0.2382
   67MOL   H17424066   6.787   1.048   5.927  1.1088  0.1322  1.3145
   67MOL   H17524067   6.996   1.012   6.062 -0.7210  2.5837  1.3018
   67MOL   H17624068   7.084   1.112   5.943  0.9064 -1.8663  0.2327
   67MOL   H17724069   7.028   0.963   5.756  2.7705  0.2892  0.1290
   67MOL   H17824070   6.948   0.850   5.860  1.0452  0.3460 -2.8525
   67MOL   H17924071   7.150   0.800   5.980  0.1706 -0.1706  0.5880
   67MOL   H18024072   7.232   0.943   5.893  0.3476 -0.5577  0.9253
   67MOL   H18124073   7.185   0.797   5.807 -2.6802 -0.9549 -0.6613
   67MOL   C18224074   6.742   1.331   5.967 -0.7951  0.1021 -0.8286
   67MOL   C18324075   6.812   1.443   5.883  0.1810 -0.4731  0.1568
   67MOL   C18424076   6.861   1.549   5.993 -0.7214 -0.3884  0.0057
   67MOL   C18524077   6.940   1.670   5.945 -0.0567 -0.8748 -0.4722
   67MOL   C18624078   6.970   1.779   6.053 -0.0514 -0.0452 -0.4951
   67MOL   C18724079   7.064   1.888   6.001 -0.1721  0.4338 -0.5730
   67MOL   H18824080   6.666   1.276   5.913  1.7838 -3.3545 -1.1398
   67MOL   H18924081   6.675   1.372   6.043 -2.5863 -2.2094 -1.1010
   67MOL   H19024082   6.902   1.412   5.828  0.2116  1.6477 -1.0522
   67MOL   H19124083   6.778   1.576   6.058 -1.3836 -2.2728 -0.0405
   67MOL   H19224084   6.928   1.503   6.065 -0.2717  2.2635  1.3416
   67MOL   H19324085   6.878   1.717   5.869  3.4014 -1.5458 -3.8379
   67MOL   H19424086   7.028   1.638   5.889 -0.6221 -1.1586 -1.2100
   67MOL   H19524087   7.009   1.731   6.142  0.0662  1.2430  0.1586
   67MOL   H19624088   6.873   1.825   6.073 -0.0066  0.1307 -0.6755
   67MOL   H19724089   7.068   1.967   6.076  1.0848 -1.6266  1.6309
   67MOL   H19824090   7.049   1.935   5.904  0.7165  1.0606 -0.4220
   67MOL   H19924091   7.169   1.858   6.005  0.3202  2.0187 -1.1215
   67MOL   C20024092   6.714   1.495   5.778 -0.2429 -0.1024 -0.3210
   67MOL   C20124093   6.711   1.393   5.657  0.1820  0.5302  0.2095
   67MOL   C20224094   6.574   1.402   5.580 -0.1410 -0.1307 -0.0436
   67MOL   C20324095   6.459   1.322   5.641 -1.2645 -0.3218 -0.5839
   67MOL   C20424096   6.483   1.175   5.658  0.2526 -0.4978 -0.0833
   67MOL   C20524097   6.363   1.101   5.616 -0.8087 -0.3298  0.1981
   67MOL   H20624098   6.755   1.591   5.746  1.2223 -1.0316 -1.2714
   67MOL   H20724099   6.618   1.522   5.822  0.8911  1.6311  1.1860
   67MOL   H20824100   6.725   1.291   5.694  0.5012  0.7019  0.5603
   67MOL   H20924101   6.587   1.350   5.485  0.3452  0.3940 -0.2676
   67MOL   H21024102   6.542   1.504   5.559  1.1424  0.5212  1.0878
   67MOL   H21124103   6.366   1.352   5.593 -1.9949  0.0777  1.0503
   67MOL   H21224104   6.444   1.362   5.741 -0.0152  0.1355 -0.5602
   67MOL   H21324105   6.515   1.145   5.758 -0.1011 -0.7409 -0.0385
   67MOL   H21424106   6.567   1.145   5.596  0.9594 -1.4882  1.3218
   67MOL   H21524107   6.277   1.152   5.659 -0.2316  1.4344 -0.6977
   67MOL   H21624108   6.353   1.098   5.507 -3.3651 -1.4045  0.4289
   67MOL   H21724109   6.367   0.996   5.644  0.7752  0.2852  2.3798
   67MOL   C21824110   6.827   1.414   5.563 -0.0682  0.0942 -0.1340
   67MOL   C21924111   6.893   1.287   5.506 -0.1941  0.0078  0.3158
   67MOL   C22024112   7.039   1.323   5.457  0.5142 -0.1135 -0.4263
   67MOL   C22124113   7.045   1.397   5.321  0.3114  0.5676 -0.4983
   67MOL   C22224114   7.177   1.447   5.276  0.1823  0.6942  0.2231
   67MOL   C22324115   7.159   1.540   5.155 -0.0268 -0.5885 -0.1582
   67MOL   H22424116   6.801   1.476   5.478  0.8464  1.7342  0.7629
   67MOL   H22524117   6.903   1.467   5.620 -0.1822  1.1693 -0.9732
   67MOL   H22624118   6.909   1.228   5.596  1.7828 -1.0993 -0.7399
   67MOL   H22724119   7.086   1.228   5.433  2.4527  1.4389 -3.0065
   67MOL   H22824120   7.100   1.374   5.532 -1.1590  0.2000  0.7393
   67MOL   H22924121   6.972   1.478   5.322 -0.6401 -0.2731 -1.0242
   67MOL   H23024122   7.011   1.324   5.247  0.4445  0.2197 -0.2199
   67MOL   H23124123   7.226   1.505   5.355 -2.3666  0.9960  1.6412
   67MOL   H23224124   7.248   1.367   5.257 -0.6080 -0.3780  1.7272
   67MOL   H23324125   7.111   1.635   5.179 -0.1849 -1.0134  1.2463
   67MOL   H23424126   7.096   1.490   5.081 -0.8039 -0.4213  0.3923
   67MOL   H23524127   7.254   1.573   5.112  0.0982 -0.3004  0.3349
   67MOL   C23624128   6.804   1.200   5.412  0.1271 -0.0892  0.3835
   67MOL   C23724129   6.868   1.070   5.358 -0.7063 -0.0070 -0.3329
   67MOL   C23824130   6.774   0.995   5.261  0.9260 -0.1032  0.2142
   67MOL   C23924131   6.749   1.077   5.133  0.6051  0.7710 -0.0028
   67MOL   C24024132   6.875   1.095   5.040  0.0681 -0.9359 -0.3406
   67MOL   C24124133   6.826   1.141   4.903  0.0443  0.5262  0.6352
   67MOL   H24224134   6.715   1.176   5.471  0.1169 -0.8364  0.0645
   67MOL   H24324135   6.775   1.262   5.327  1.9319  0.3930  0.0995
   67MOL   H24424136   6.955   1.106   5.304 -1.4381  0.6681 -1.0710
   67MOL   H24524137   6.804   0.892   5.240 -0.2007 -0.7666  1.7426
   67MOL   H24624138   6.682   0.975   5.316 -0.1919  0.7371 -1.3258
   67MOL   H24724139   6.698   1.172   5.146 -0.0517  0.3601  0.3990
   67MOL   H24824140   6.692   1.012   5.067  1.6013  0.1966 -0.3194
   67MOL   H24924141   6.951   1.160   5.082 -1.5939  0.5457  0.4723
   67MOL   H25024142   6.930   1.001   5.036 -1.5018 -1.9279  0.6409
   67MOL   H25124143   6.738   1.084   4.870  1.8085 -3.0449  1.8253
   67MOL   H25224144   6.788   1.243   4.898  0.5266  0.6713 -0.1486
   67MOL   H25324145   6.901   1.118   4.827  1.2675 -0.7199  2.1905
   67MOL   C25424146   6.907   0.979   5.475 -0.5237 -0.2875 -0.1099
   67MOL   C25524147   6.990   0.845   5.430  0.2428 -0.5408 -0.1014
   67MOL   C25624148   6.926   0.728   5.503  0.0011 -0.8351  0.0113
   67MOL   C25724149   6.945   0.594   5.437 -0.1190 -0.0035  1.0915
   67MOL   C25824150   6.926   0.479   5.532  1.0483 -0.5234 -0.0949
   67MOL   C25924151   6.950   0.341   5.476 -0.0317 -0.2984 -0.6458
   67MOL   H26024152   6.817   0.952   5.530 -0.4456 -0.5518 -0.1117
   67MOL   H26124153   6.982   1.025   5.540 -1.0411  0.0522  0.2518
   67MOL   H26224154   6.976   0.831   5.323  0.3898  0.6861 -0.2876
   67MOL   H26324155   6.983   0.730   5.595 -2.5062 -2.1432  1.6522
   67MOL   H26424156   6.820   0.744   5.525 -0.4307 -2.4220 -0.7828
   67MOL   H26524157   6.880   0.585   5.350 -0.0494  1.7637  0.8225
   67MOL   H26624158   7.051   0.594   5.410 -0.4673  0.3185 -0.3126
   67MOL   H26724159   6.821   0.481   5.562  0.7787 -0.8407 -1.0053
   67MOL   H26824160   6.976   0.493   5.628  0.3401 -1.2708  0.3947
   67MOL   H26924161   6.882   0.314   5.395  0.2312 -1.2472 -0.5595
   67MOL   H27024162   6.928   0.261   5.547 -1.2293  1.5728  1.1590
   67MOL   H27124163   7.050   0.326   5.433 -0.2617  0.8106 -1.5745
   67MOL   C27224164   7.145   0.853   5.450 -0.6566  0.4773 -0.4603
   67MOL   C27324165   7.231   0.952   5.370 -0.3498 -0.2270  0.1008
   67MOL   C27424166   7.217   0.947   5.211 -0.7026  0.2867 -0.1704
   67MOL   C27524167   7.281   1.077   5.152 -0.6260 -0.3556 -0.7535
   67MOL   C27624168   7.257   1.094   5.004  0.9080  1.0050  0.0648
   67MOL   C27724169   7.268   1.235   4.964  0.0772  0.2488 -0.0496
   67MOL   H27824170   7.175   0.863   5.555  1.7502 -2.3157 -0.8173
   67MOL   H27924171   7.181   0.754   5.422  0.1823  0.8389 -0.6663
   67MOL   H28024172   7.189   1.047   5.402  0.3037  0.4580 -1.0389
   67MOL   H28124173   7.115   0.925   5.178 -1.3440  1.9581  0.6578
   67MOL   H28224174   7.270   0.860   5.172 -0.1586  0.9201 -0.8692
   67MOL   H28324175   7.384   1.095   5.179 -0.5594  0.9164 -1.7963
   67MOL   H28424176   7.223   1.153   5.204  0.5848  0.6116 -0.8114
   67MOL   H28524177   7.332   1.039   4.947  0.3010  0.1892  0.0640
   67MOL   H28624178   7.156   1.061   4.979  1.4497 -0.9228  0.3395
   67MOL   H28724179   7.176   1.290   4.985 -0.6039 -1.5207  1.6675
   67MOL   H28824180   7.346   1.290   5.018  0.9679  0.0025 -1.0599
   67MOL   H28924181   7.284   1.227   4.857  0.6779 -2.4897  0.2084
   67MOL   C29024182   7.385   0.944   5.419  0.0367 -0.1076 -0.0307
   67MOL   C29124183   7.427   1.069   5.504  0.4395  0.1569 -0.3594
   67MOL   C29224184   7.341   1.108   5.623  0.5824 -0.2529 -1.0095
   67MOL   C29324185   7.366   1.240   5.695 -0.1659 -0.1871  0.1381
   67MOL   C29424186   7.277   1.274   5.806 -0.1950 -0.4592  0.1911
   67MOL   C29524187   7.290   1.413   5.865  0.1022 -0.1381  0.0931
   67MOL   H29624188   7.451   0.932   5.333  0.9482 -0.5200  0.7153
   67MOL   H29724189   7.417   0.861   5.482 -2.5915 -1.1164  0.0437
   67MOL   H29824190   7.425   1.150   5.432 -2.6576 -1.1119 -1.7788
   67MOL   H29924191   7.338   1.032   5.701 -1.3355 -0.5613 -1.3513
   67MOL   H30024192   7.237   1.108   5.590  0.2465  2.6885 -0.1421
   67MOL   H30124193   7.469   1.237   5.731  0.1922  2.4898 -0.6067
   67MOL   H30224194   7.360   1.307   5.610  1.6274 -1.5002 -1.0567
   67MOL   H30324195   7.272   1.186   5.871 -0.9212 -1.7435 -1.5584
   67MOL   H30424196   7.179   1.279   5.760 -0.0289  1.7039  0.0279
   67MOL   H30524197   7.233   1.417   5.958  0.0698 -0.3290  0.0816
   67MOL   H30624198   7.269   1.495   5.797 -0.1918  0.3510  0.7697
   67MOL   H30724199   7.393   1.423   5.898  0.8585  1.7280 -2.6228
   67MOL   C30824200   7.577   1.051   5.543  0.4517 -0.1641 -0.8008
   67MOL   C30924201   7.680   1.135   5.464  0.3090  0.2017 -0.2696
   67MOL   C31024202   0.094   1.062   5.454 -0.0583 -0.7489 -0.4755
   67MOL   C31124203   0.143   1.049   5.307  0.3254 -0.3187  0.7443
   67MOL   C31224204   0.273   0.971   5.287  1.1833 -0.1470  0.3233
   67MOL   C31324205   0.304   0.920   5.143  0.8226  0.1730 -0.7798
   67MOL   H31424206   7.592   1.057   5.651  0.1051 -0.9091 -0.7090
   67MOL   H31524207   7.607   0.946   5.541 -0.0432 -0.4047  2.1691
   67MOL   H31624208   7.639   1.147   5.364  2.3141  0.3818 -1.0921
   67MOL   H31724209   0.084   0.962   5.498 -0.9394 -0.4497  0.0046
   67MOL   H31824210   0.169   1.117   5.510 -0.6508 -0.2100 -0.2085
   67MOL   H31924211   0.149   1.149   5.264 -1.3517  0.2417  1.7875
   67MOL   H32024212   0.062   1.010   5.245  1.7629  0.6246 -1.8474
   67MOL   H32124213   0.363   1.018   5.325  1.7917 -0.4378 -0.7492
   67MOL   H32224214   0.278   0.885   5.353 -0.4215 -3.2282 -3.4107
   67MOL   H32324215   0.222   0.872   5.091  0.3242  1.1550 -0.9218
   67MOL   H32424216   0.380   0.843   5.155  0.2985 -0.1909  0.2500
   67MOL   H32524217   0.342   1.001   5.080  1.1384 -0.8844 -1.9766
   67MOL   C32624218   7.697   1.279   5.522 -0.2213 -0.2456 -0.7817
   67MOL   C32724219   0.015   1.389   5.423 -0.0928  0.0145  0.5117
   67MOL   C32824220   7.626   1.417   5.321  0.2184  0.0934 -0.2954
   67MOL   C32924221   7.686   1.448   5.180 -0.3306 -0.2793  0.1908
   67MOL   C33024222   7.582   1.462   5.064  0.2684 -0.2086  0.0211
   67MOL   C33124223   7.625   1.544   4.939 -0.7510 -0.8927  0.3907
   67MOL   H33224224   0.046   1.279   5.600  0.1178  1.9556 -1.0887
   67MOL   H33324225   7.598   1.313   5.549 -0.5713  0.6562 -3.1004
   67MOL   H33424226   0.107   1.352   5.378 -0.6331 -1.3980  0.5418
   67MOL   H33524227   7.559   1.333   5.305  0.9077 -0.2294 -1.5271
   67MOL   H33624228   7.553   1.491   5.355  1.2420 -0.0506  2.3476
   67MOL   H33724229   0.020   1.361   5.157 -1.7356 -1.3623  0.4955
   67MOL   H33824230   0.015   1.541   5.168  0.1086 -0.6455 -0.6105
   67MOL   H33924231   7.559   1.360   5.036 -0.5192 -0.1404  0.4048
   67MOL   H34024232   7.485   1.500   5.096 -1.2751 -3.8254 -0.2050
   67MOL   H34124233   7.687   1.470   4.888  1.3254  0.3133  1.1251
   67MOL   H34224234   7.680   1.636   4.956  1.0805 -1.6452 -1.2028
   67MOL   H34324235   7.543   1.561   4.869 -1.1778  0.6538  1.2545
   67MOL   C34424236   0.057   1.517   5.492  0.4064 -0.2878  0.0454
   67MOL   C34524237   7.689   1.574   5.593 -1.3855 -0.4770 -0.1663
   67MOL   C34624238   7.717   1.722   5.635 -0.5460 -0.5072 -0.0153
   67MOL   C34724239   7.620   1.771   5.738 -0.1863  0.4238 -0.3473
   67MOL   C34824240   7.480   1.804   5.683 -0.7819 -0.0483  0.0891
   67MOL   C34924241   7.382   1.827   5.800 -0.1664  0.5245 -0.9159
   67MOL   H35024242   0.160   1.518   5.528  0.0498 -0.0946  1.0973
   67MOL   H35124243   0.048   1.584   5.407 -2.0849 -1.3186 -0.5453
   67MOL   H35224244   7.683   1.515   5.685 -0.6497 -1.4570 -0.7368
   67MOL   H35324245   0.089   1.718   5.680 -0.3485  0.9116 -0.2825
   67MOL   H35424246   0.004   1.784   5.547 -0.9695  1.0356  0.9713
   67MOL   H35524247   7.614   1.695   5.816 -1.2165  0.8214 -0.0347
   67MOL   H35624248   7.675   1.857   5.776  0.0396  0.1411 -0.0332
   67MOL   H35724249   7.491   1.898   5.628  0.1334  0.0833  0.4825
   67MOL   H35824250   7.447   1.725   5.616 -2.8254 -0.5554  1.6504
   67MOL   H35924251   7.402   1.905   5.874 -1.1889 -0.4862  0.4439
   67MOL   H36024252   7.284   1.855   5.762  0.1368  1.2676 -1.1622
   67MOL   H36124253   7.369   1.731   5.851 -0.9760  1.5576  0.8586
   67MOL   H36224254   7.592   1.567   5.544 -1.2858  0.4350 -0.5021
   68MOL     C124255   5.981   5.500   3.755 -0.4599 -0.2212 -0.2833
   68MOL     C224256   5.888   5.535   3.874  0.0108 -0.5204  0.2730
   68MOL     C324257   5.822   5.672   3.849  0.3035  0.4061 -0.4091
   68MOL     C424258   5.694   5.697   3.924  0.6915  0.5093  0.1018
   68MOL     C524259   5.635   5.836   3.899 -0.2548  0.0418 -0.0582
   68MOL     C624260   5.724   5.947   3.961 -0.0571 -0.2434  0.3400
   68MOL     H724261   6.026   5.401   3.762  2.2277  0.5739 -4.4517
   68MOL     H824262   5.929   5.506   3.660 -2.7134  0.4735  0.9645
   68MOL     H924263   5.803   5.467   3.868 -0.6076  0.2740 -0.0807
   68MOL    H1024264   5.815   5.700   3.743  2.3517  1.4654 -0.2812
   68MOL    H1124265   5.896   5.746   3.880  0.3819 -0.0344  0.4428
   68MOL    H1224266   5.715   5.675   4.029  0.5488  1.0628  0.2469
   68MOL    H1324267   5.618   5.626   3.891 -0.0515  1.2617  0.1848
   68MOL    H1424268   5.619   5.859   3.794 -0.5814  0.2444  0.0355
   68MOL    H1524269   5.538   5.841   3.949 -0.7951 -1.5856 -0.9267
   68MOL    H1624270   5.809   5.978   3.900  1.1220 -1.9621  1.0828
   68MOL    H1724271   5.759   5.906   4.055  1.9703  0.6372  0.0095
   68MOL    H1824272   5.662   6.034   3.982  1.5630  1.2307 -0.8044
   68MOL    H1924273   6.054   5.581   3.747 -0.9220  0.2078 -0.1709
   68MOL    C2024274   5.971   5.523   4.006  0.4454  0.3990 -1.2464
   68MOL    C2124275   5.954   5.371   4.055 -0.3864 -0.1268 -0.2629
   68MOL    C2224276   6.074   5.341   4.148 -0.3632 -0.2525  0.5489
   68MOL    C2324277   6.215   5.331   4.082  0.1875  0.0366 -0.0695
   68MOL    C2424278   6.323   5.277   4.178  0.4762 -0.1233 -0.4846
   68MOL    C2524279   6.340   5.370   4.299 -0.4793  0.0938 -0.7684
   68MOL    H2624280   5.945   5.583   4.093 -0.3793 -1.3257 -0.2772
   68MOL    H2724281   6.077   5.533   3.982  1.0004  0.1124  1.0045
   68MOL    H2824282   5.962   5.309   3.966  0.7624  0.1688 -0.3719
   68MOL    H2924283   6.051   5.243   4.192  0.5299 -0.7496 -0.0838
   68MOL    H3024284   6.075   5.416   4.227  0.2944  0.6675 -0.3328
   68MOL    H3124285   6.241   5.429   4.041  0.0087 -0.2756 -0.9319
   68MOL    H3224286   6.194   5.266   3.997 -1.3622  1.3458 -0.7152
   68MOL    H3324287   6.289   5.184   4.223 -1.7676  1.9246  2.2502
   68MOL    H3424288   6.411   5.255   4.117  0.5716  1.4671 -0.9340
   68MOL    H3524289   6.405   5.319   4.369  0.8529  1.1058 -1.2586
   68MOL    H3624290   6.381   5.468   4.273 -0.5702  0.5837  0.9255
   68MOL    H3724291   6.245   5.399   4.344 -0.8368 -0.2193 -1.3202
   68MOL    C3824292   5.819   5.342   4.122 -0.0066 -0.1503  0.4116
   68MOL    C3924293   5.758   5.195   4.090  0.1676 -0.6611 -0.7829
   68MOL    C4024294   5.800   5.082   4.196 -0.0009 -0.5925 -0.3986
   68MOL    C4124295   5.768   5.096   4.347  0.5706 -0.1997  0.4925
   68MOL    C4224296   5.766   4.959   4.414 -0.5455  0.0676 -0.4227
   68MOL    C4324297   5.760   4.968   4.560  0.5513 -0.1954 -0.3695
   68MOL    H4424298   5.747   5.414   4.084 -0.6998 -0.7359  0.5892
   68MOL    H4524299   5.827   5.368   4.228 -1.5169  0.5372  0.3645
   68MOL    H4624300   5.805   5.178   3.993  0.7404  2.1596 -1.0528
   68MOL    H4724301   5.764   4.986   4.159 -2.1037  1.1974 -3.1688
   68MOL    H4824302   5.908   5.074   4.192 -0.0735 -2.0385  0.1133
   68MOL    H4924303   5.820   5.180   4.392 -1.4591  1.3320  0.0455
   68MOL    H5024304   5.668   5.140   4.343  1.3022  1.5403  0.7161
   68MOL    H5124305   5.683   4.905   4.368 -1.8337  3.7423 -2.6319
   68MOL    H5224306   5.852   4.895   4.393 -1.8098 -2.1051  0.8137
   68MOL    H5324307   5.863   4.990   4.585  0.1475  1.7479 -0.3616
   68MOL    H5424308   5.729   4.869   4.593  1.9253 -1.0659 -1.6104
   68MOL    H5524309   5.690   5.044   4.594  2.6243  1.2401  0.7411
   68MOL    C5624310   5.605   5.213   4.061  0.3569 -0.1519 -0.5279
   68MOL    C5724311   5.530   5.081   4.028  0.2889  0.3062  0.4992
   68MOL    C5824312   5.586   5.012   3.899  0.1782  0.4625 -0.5691
   68MOL    C5924313   5.568   5.095   3.768 -0.1581 -0.0769  0.3018
   68MOL    C6024314   5.625   5.012   3.645 -0.1160 -0.7045  0.5928
   68MOL    C6124315   5.640   5.089   3.504  0.3083  0.0814  0.1665
   68MOL    H6224316   5.563   5.232   4.160 -0.0302  0.4033 -0.7946
   68MOL    H6324317   5.571   5.293   3.995 -1.4800  0.6630  1.3394
   68MOL    H6424318   5.553   5.012   4.109 -2.0005 -0.7406  0.3001
   68MOL    H6524319   5.687   4.975   3.915 -0.4699 -0.4743  1.4703
   68MOL    H6624320   5.534   4.916   3.894 -0.5990  0.7988  0.8372
   68MOL    H6724321   5.620   5.191   3.777  0.5924 -0.5142  0.6921
   68MOL    H6824322   5.461   5.114   3.760 -0.3414 -0.6049  1.5140
   68MOL    H6924323   5.720   4.976   3.685 -0.2195  0.4327  1.9073
   68MOL    H7024324   5.552   4.933   3.628 -0.7005 -0.1990  0.6949
   68MOL    H7124325   5.549   5.146   3.487  1.5265  1.3579 -2.4740
   68MOL    H7224326   5.726   5.156   3.515  0.2538  0.4899 -1.6718
   68MOL    H7324327   5.672   5.033   3.416  0.4995 -1.3224  1.1205
   68MOL    C7424328   5.379   5.106   4.024  0.5970  0.0860 -0.4238
   68MOL    C7524329   5.302   5.023   4.123 -0.2624  0.0190 -0.3082
   68MOL    C7624330   5.302   4.871   4.097  0.1486  0.2108  0.5705
   68MOL    C7724331   5.225   4.790   4.199  0.1380 -0.1169 -0.0517
   68MOL    C7824332   5.193   4.652   4.145 -0.1846 -0.5571 -0.1376
   68MOL    C7924333   5.097   4.583   4.241 -0.1094  0.4280 -0.4109
   68MOL    H8024334   5.367   5.214   4.034  0.9712  0.1691 -0.8800
   68MOL    H8124335   5.325   5.083   3.932 -0.2875  1.1200 -0.1778
   68MOL    H8224336   5.198   5.053   4.107  0.1937  1.3909 -0.6839
   68MOL    H8324337   5.284   4.859   3.990 -3.9819  1.1426  1.0764
   68MOL    H8424338   5.406   4.838   4.100  0.6232  1.5278 -0.7368
   68MOL    H8524339   5.284   4.783   4.290  1.1884  2.2147 -0.5294
   68MOL    H8624340   5.137   4.848   4.227  1.7197  1.8372  0.9602
   68MOL    H8724341   5.283   4.591   4.132 -0.3827 -1.4910  2.6950
   68MOL    H8824342   5.151   4.663   4.045 -1.0713 -0.7943  0.2089
   68MOL    H8924343   5.143   4.574   4.339 -1.5123 -0.6083  0.1698
   68MOL    H9024344   4.997   4.624   4.250  0.1223  0.7994  0.5300
   68MOL    H9124345   5.094   4.483   4.197  0.2032  1.8045 -3.6793
   68MOL    C9224346   5.340   5.061   4.274 -0.9317 -0.3243 -0.4524
   68MOL    C9324347   5.317   5.208   4.321 -0.3744 -0.3761 -0.7284
   68MOL    C9424348   5.170   5.250   4.319 -0.1456  0.1485 -1.2541
   68MOL    C9524349   5.139   5.383   4.250  0.1025 -0.0081 -0.4017
   68MOL    C9624350   4.988   5.394   4.210  0.1140 -0.1899  0.5233
   68MOL    C9724351   4.958   5.534   4.167  0.2863 -0.0846  0.3199
   68MOL    H9824352   5.279   5.005   4.344 -0.9804  0.3235  0.0332
   68MOL    H9924353   5.440   5.029   4.302 -0.3818  0.1305 -1.8387
   68MOL   H10024354   5.361   5.284   4.256  0.9403  0.1177  0.7134
   68MOL   H10124355   5.137   5.251   4.423  1.4956  0.3943 -0.7121
   68MOL   H10224356   5.107   5.180   4.263  0.4076 -0.2713 -1.3585
   68MOL   H10324357   5.160   5.462   4.323  0.8907  0.2281 -0.8733
   68MOL   H10424358   5.202   5.408   4.165 -1.6739  1.1120 -1.4359
   68MOL   H10524359   4.960   5.332   4.125 -0.6453  1.5948 -0.5461
   68MOL   H10624360   4.932   5.366   4.300  0.1510 -2.5851 -0.1639
   68MOL   H10724361   5.021   5.589   4.097  0.0011  0.5828  0.5852
   68MOL   H10824362   4.861   5.541   4.118  0.6833 -0.4277 -0.5197
   68MOL   H10924363   4.972   5.590   4.259  0.3951  0.0372  0.2290
   68MOL   C11024364   5.381   5.226   4.466  0.2903 -0.8275 -0.1413
   68MOL   C11124365   5.407   5.370   4.513  0.1266  0.5516  0.3408
   68MOL   C11224366   5.535   5.414   4.435  0.6430  1.6041 -0.0037
   68MOL   C11324367   5.556   5.567   4.431 -0.5747 -0.5458  0.4842
   68MOL   C11424368   5.656   5.613   4.325  0.0492 -0.0492  0.1819
   68MOL   C11524369   5.685   5.762   4.325  0.4005 -0.2773 -0.2484
   68MOL   H11624370   5.311   5.180   4.535  1.3276  0.2733  1.7068
   68MOL   H11724371   5.472   5.167   4.471 -0.3296 -1.6534  1.8996
   68MOL   H11824372   5.323   5.430   4.479 -0.1654 -0.8827 -1.6030
   68MOL   H11924373   5.531   5.370   4.336 -0.2850  0.4653  0.5347
   68MOL   H12024374   5.627   5.377   4.482 -0.3366 -0.1017  0.6170
   68MOL   H12124375   5.583   5.603   4.530  1.1127 -0.2832 -0.0461
   68MOL   H12224376   5.465   5.623   4.409  0.3092 -0.0585 -2.1030
   68MOL   H12324377   5.601   5.597   4.233 -0.2587  2.5870 -0.1275
   68MOL   H12424378   5.742   5.548   4.306 -0.4055 -0.3923 -0.7289
   68MOL   H12524379   5.772   5.778   4.261  0.0679  0.8028 -0.4441
   68MOL   H12624380   5.608   5.831   4.290 -0.2727  0.4280  2.4817
   68MOL   H12724381   5.719   5.796   4.423  0.1362  3.0259 -1.2348
   68MOL   C12824382   5.416   5.381   4.664  0.3503  0.5215  0.1507
   68MOL   C12924383   5.294   5.330   4.752 -0.1430  0.6734 -0.7195
   68MOL   C13024384   5.157   5.375   4.706  0.1700 -0.2414 -0.5393
   68MOL   C13124385   5.140   5.529   4.675 -0.2916  0.1375 -0.7486
   68MOL   C13224386   5.008   5.557   4.598 -0.8122  0.4216 -0.6127
   68MOL   C13324387   4.979   5.707   4.573 -0.3957  0.8100  0.3391
   68MOL   H13424388   5.444   5.485   4.680 -2.3206  1.1685  0.8584
   68MOL   H13524389   5.508   5.331   4.696  0.0140 -1.4335 -1.7988
   68MOL   H13624390   5.292   5.222   4.737  0.1560 -0.1432  4.2807
   68MOL   H13724391   5.118   5.317   4.622 -1.5270  1.4134 -0.9300
   68MOL   H13824392   5.076   5.365   4.779  0.0909  0.5131 -0.5161
   68MOL   H13924393   5.226   5.561   4.616  0.8287 -1.9285 -0.2859
   68MOL   H14024394   5.145   5.587   4.767  2.6140 -1.4597  0.1726
   68MOL   H14124395   5.011   5.495   4.508  1.2575  3.2392 -2.5965
   68MOL   H14224396   4.924   5.513   4.651 -1.4861  1.1754 -1.0345
   68MOL   H14324397   5.071   5.763   4.556  0.5178 -0.4827  0.9556
   68MOL   H14424398   4.936   5.758   4.660 -1.9408  1.7071 -0.9244
   68MOL   H14524399   4.896   5.716   4.503 -1.1206 -0.6519  0.9774
   68MOL   C14624400   5.307   5.356   4.906  0.3151 -1.2635 -0.0750
   68MOL   C14724401   5.249   5.241   4.991 -0.1015 -0.2651  0.3637
   68MOL   C14824402   5.180   5.295   5.121 -0.6210 -0.7739 -0.1317
   68MOL   C14924403   5.117   5.187   5.214  0.4365 -0.2263 -0.3052
   68MOL   C15024404   5.028   5.257   5.315 -0.1087 -0.6800  0.1431
   68MOL   C15124405   5.000   5.171   5.436 -0.4414  0.0513 -0.0352
   68MOL   H15224406   5.407   5.378   4.945 -0.8375 -0.7167  2.6555
   68MOL   H15324407   5.252   5.447   4.928 -1.7523 -1.7944 -2.7411
   68MOL   H15424408   5.172   5.192   4.932 -0.5393 -0.3619  1.0163
   68MOL   H15524409   5.107   5.369   5.090  0.1500  2.1479  4.5605
   68MOL   H15624410   5.252   5.342   5.188 -0.1145 -1.0038 -0.5046
   68MOL   H15724411   5.061   5.106   5.168 -1.9752  0.7866  0.7520
   68MOL   H15824412   5.204   5.144   5.262 -0.8610 -1.3596  1.0937
   68MOL   H15924413   4.940   5.282   5.256 -0.4613 -0.8113  0.6104
   68MOL   H16024414   5.067   5.352   5.353 -0.3409 -0.5845  0.1419
   68MOL   H16124415   4.934   5.210   5.514 -1.1992 -1.4713  0.0961
   68MOL   H16224416   4.949   5.080   5.406 -1.2840  0.8537 -1.0752
   68MOL   H16324417   5.097   5.146   5.479  0.4730  0.5553 -1.7493
   68MOL   C16424418   5.366   5.139   5.017 -0.1003  0.1406  0.5992
   68MOL   C16524419   5.325   4.989   5.007 -0.5446 -0.5954 -0.1530
   68MOL   C16624420   5.300   4.942   4.862 -0.0070  0.3078 -0.4305
   68MOL   C16724421   5.424   4.943   4.761 -0.1781 -0.0411  0.6500
   68MOL   C16824422   5.382   4.892   4.621  0.3110 -0.0222 -0.2315
   68MOL   C16924423   5.353   4.740   4.607 -0.2547  0.3348  0.4498
   68MOL   H17024424   5.458   5.158   4.961 -0.8634 -0.3091 -0.8314
   68MOL   H17124425   5.401   5.162   5.118 -0.7914 -1.4306  1.2158
   68MOL   H17224426   5.228   4.971   5.054 -1.1721 -0.0902 -1.2561
   68MOL   H17324427   5.232   5.015   4.818 -0.8274 -0.5286 -0.5784
   68MOL   H17424428   5.252   4.844   4.853 -0.4046  0.6246 -2.0535
   68MOL   H17524429   5.510   4.890   4.800  0.6810  1.7755  1.2465
   68MOL   H17624430   5.452   5.045   4.734  2.7108 -1.2142 -0.9389
   68MOL   H17724431   5.459   4.914   4.546  0.0126 -3.6128 -1.7127
   68MOL   H17824432   5.289   4.940   4.590 -0.3421 -0.5722  0.8346
   68MOL   H17924433   5.443   4.683   4.631  0.5974  1.0663 -0.9015
   68MOL   H18024434   5.326   4.708   4.506  0.5983 -1.2783  0.7133
   68MOL   H18124435   5.271   4.698   4.665 -0.7018 -0.3867 -0.6804
   68MOL   C18224436   5.433   4.901   5.073  0.0961  0.5531  0.2342
   68MOL   C18324437   5.452   4.911   5.230 -0.2746  0.0546  0.0597
   68MOL   C18424438   5.570   4.816   5.275 -0.2370  0.4431 -0.4610
   68MOL   C18524439   5.562   4.661   5.241  0.8023  0.7136  0.6291
   68MOL   C18624440   5.662   4.577   5.321  0.4223  0.2847  0.1335
   68MOL   C18724441   5.649   4.574   5.476 -0.3948 -0.0622  0.1806
   68MOL   H18824442   5.409   4.797   5.049  2.1441  0.0270  0.3567
   68MOL   H18924443   5.528   4.919   5.023  0.6077 -1.0175  0.5947
   68MOL   H19024444   5.487   5.008   5.267 -2.4555  0.1052  2.1033
   68MOL   H19124445   5.667   4.863   5.255  1.1754 -1.7495  0.9913
   68MOL   H19224446   5.565   4.811   5.384 -0.2559 -1.8907 -0.5429
   68MOL   H19324447   5.565   4.649   5.133 -1.6946  2.8549  0.2646
   68MOL   H19424448   5.461   4.624   5.258  0.0140  3.1170  1.4550
   68MOL   H19524449   5.765   4.608   5.304  0.4101  1.0011  1.3122
   68MOL   H19624450   5.665   4.480   5.271  2.1856  1.0542 -1.2751
   68MOL   H19724451   5.710   4.492   5.512 -0.4005 -0.8544 -1.5337
   68MOL   H19824452   5.549   4.558   5.517 -0.0918 -1.7693  0.2759
   68MOL   H19924453   5.678   4.660   5.536 -0.7416 -1.7942  2.8951
   68MOL   C20024454   5.321   4.867   5.303 -0.3020  0.0364 -0.5619
   68MOL   C20124455   5.322   4.828   5.459  0.1977  0.2908  0.0756
   68MOL   C20224456   5.372   4.944   5.549 -0.1440  0.2706 -0.5216
   68MOL   C20324457   5.408   4.902   5.690  0.8684 -0.0069  0.3662
   68MOL   C20424458   5.446   5.017   5.782  0.3083  0.1014 -0.7944
   68MOL   C20524459   5.347   5.130   5.791 -0.2806  0.7521  0.7281
   68MOL   H20624460   5.294   4.774   5.255 -0.9834  1.0478 -2.1842
   68MOL   H20724461   5.246   4.940   5.274  0.5521  0.3610 -2.0216
   68MOL   H20824462   5.392   4.746   5.479 -1.0959 -0.6699  0.7009
   68MOL   H20924463   5.302   5.026   5.561 -0.5261 -0.3905  2.3063
   68MOL   H21024464   5.455   4.993   5.498  1.2299 -1.4206  0.0062
   68MOL   H21124465   5.488   4.829   5.683  0.1140 -0.7912 -0.1631
   68MOL   H21224466   5.328   4.846   5.741  1.6810 -1.4659  0.0515
   68MOL   H21324467   5.541   5.059   5.751  0.0778  3.2033  2.4016
   68MOL   H21424468   5.462   4.984   5.885 -0.1914  0.4391 -0.6054
   68MOL   H21524469   5.384   5.214   5.849  2.9797 -0.6146  0.7577
   68MOL   H21624470   5.318   5.168   5.692 -0.6651 -0.8370  0.2146
   68MOL   H21724471   5.255   5.084   5.826 -0.7811 -0.3942 -1.9512
   68MOL   C21824472   5.178   4.794   5.498 -0.0338  0.5722 -0.2796
   68MOL   C21924473   5.153   4.684   5.605 -0.5522 -0.3166  0.5312
   68MOL   C22024474   5.249   4.558   5.598 -0.2963  0.3960 -0.7351
   68MOL   C22124475   5.246   4.482   5.465  0.0057 -0.6086 -0.4659
   68MOL   C22224476   5.315   4.344   5.471  0.3033  0.6563  0.1743
   68MOL   C22324477   5.337   4.282   5.329  0.0930  0.1466  0.2782
   68MOL   H22424478   5.126   4.888   5.517 -1.6610 -0.4859  0.5442
   68MOL   H22524479   5.132   4.753   5.408  0.1440 -0.0760 -0.0797
   68MOL   H22624480   5.154   4.733   5.703 -0.6180  1.3798 -0.2963
   68MOL   H22724481   5.225   4.490   5.679  1.5728 -0.5843 -0.9755
   68MOL   H22824482   5.350   4.596   5.613 -1.5284  3.5826 -0.0810
   68MOL   H22924483   5.288   4.546   5.387 -0.0479 -1.0273 -0.8467
   68MOL   H23024484   5.143   4.463   5.435 -0.9472  3.3170  0.1198
   68MOL   H23124485   5.416   4.358   5.509  0.6087  0.3520 -0.5228
   68MOL   H23224486   5.271   4.266   5.533 -0.4082  0.4560 -0.5887
   68MOL   H23324487   5.387   4.185   5.337 -0.1597 -0.0843 -0.8232
   68MOL   H23424488   5.402   4.339   5.263  0.4504  0.2038  0.6848
   68MOL   H23524489   5.240   4.261   5.283 -0.1900  0.7167  0.6163
   68MOL   C23624490   5.008   4.642   5.600  0.0517 -0.0161  0.7112
   68MOL   C23724491   4.914   4.767   5.593  0.3134  0.6065  0.4273
   68MOL   C23824492   4.933   4.868   5.709  0.7226  0.0590  0.3172
   68MOL   C23924493   4.892   4.822   5.853 -0.1123 -0.0953  0.6748
   68MOL   C24024494   4.953   4.920   5.963  0.6222 -0.1549  0.5187
   68MOL   C24124495   4.906   4.892   6.102  0.3516 -0.0010 -0.3880
   68MOL   H24224496   4.987   4.575   5.517  2.7251 -0.9813  0.7323
   68MOL   H24324497   4.984   4.581   5.687 -1.1588 -1.4305 -0.5889
   68MOL   H24424498   4.920   4.817   5.497 -1.2789 -3.1267 -1.6979
   68MOL   H24524499   5.035   4.906   5.716  0.7820 -0.4745  2.8007
   68MOL   H24624500   4.868   4.954   5.693  1.9140  1.1638  1.2112
   68MOL   H24724501   4.921   4.719   5.873 -0.3100  0.1774  2.4574
   68MOL   H24824502   4.785   4.804   5.863 -0.9894  2.4089 -3.1820
   68MOL   H24924503   5.061   4.914   5.972  0.6776  1.7704  1.3565
   68MOL   H25024504   4.926   5.022   5.936  0.0919  0.2749  2.5918
   68MOL   H25124505   4.806   4.928   6.125  0.3901  0.1533 -0.4647
   68MOL   H25224506   4.914   4.790   6.139 -1.0915  0.2124  0.5061
   68MOL   H25324507   4.967   4.939   6.179  1.1472 -1.3369 -0.1738
   68MOL   C25424508   4.765   4.715   5.575 -0.0034 -0.4001 -0.3893
   68MOL   C25524509   4.675   4.830   5.528  0.0966  0.0589  0.3547
   68MOL   C25624510   4.521   4.811   5.573 -0.8273  0.9183 -0.1387
   68MOL   C25724511   4.463   4.683   5.515 -0.0415  0.2893 -0.2181
   68MOL   C25824512   4.304   4.686   5.528  0.7452  0.0998 -0.0872
   68MOL   C25924513   4.275   4.627   5.667  1.1922  0.5611 -0.1829
   68MOL   H26024514   4.728   4.683   5.673 -0.8159 -1.2098 -0.9503
   68MOL   H26124515   4.760   4.627   5.510 -1.4313 -0.7718  0.1914
   68MOL   H26224516   4.694   4.928   5.573  1.0946  0.5156 -1.0310
   68MOL   H26324517   4.507   4.805   5.681  2.8558  0.5269  0.4084
   68MOL   H26424518   4.463   4.897   5.541 -1.1492  0.5554 -0.5178
   68MOL   H26524519   4.484   4.691   5.408 -0.6637 -0.3333 -0.3879
   68MOL   H26624520   4.500   4.593   5.564  0.4378  0.7686  0.3031
   68MOL   H26724521   4.250   4.628   5.453 -2.3392  1.6761  0.8333
   68MOL   H26824522   4.260   4.785   5.518 -0.9325 -0.7677 -1.6295
   68MOL   H26924523   4.293   4.706   5.739  1.9335  1.2545 -1.1079
   68MOL   H27024524   4.317   4.528   5.688 -1.3083 -0.5795 -0.4690
   68MOL   H27124525   4.168   4.611   5.671  1.1039  1.5972  2.5053
   68MOL   C27224526   4.686   4.847   5.373 -0.2917  0.4958  0.8918
   68MOL   C27324527   4.611   4.972   5.304  0.4443  0.8667 -0.4845
   68MOL   C27424528   4.658   4.993   5.156  0.0270 -0.2878 -0.3797
   68MOL   C27524529   4.802   5.059   5.135  0.1978 -0.2540  0.5458
   68MOL   C27624530   4.877   4.993   5.016 -0.3024  0.7814  0.9146
   68MOL   C27724531   4.953   4.870   5.075 -0.1444  0.3614 -0.4503
   68MOL   H27824532   4.792   4.868   5.355  0.1514 -0.4766  2.2375
   68MOL   H27924533   4.687   4.761   5.306  1.1212  0.7839  0.5238
   68MOL   H28024534   4.506   4.943   5.300  0.4621  1.0465 -3.6912
   68MOL   H28124535   4.586   5.055   5.103 -0.5681  1.9677  2.9070
   68MOL   H28224536   4.655   4.892   5.116 -0.7302  0.2233 -1.6272
   68MOL   H28324537   4.872   5.054   5.218 -1.1255 -2.0121  1.5930
   68MOL   H28424538   4.785   5.165   5.117  0.5929  0.0748  2.0731
   68MOL   H28524539   4.813   4.973   4.930 -1.9380  2.6321  1.6469
   68MOL   H28624540   4.951   5.066   4.982  1.6968 -0.9425  1.4742
   68MOL   H28724541   5.008   4.821   4.995 -0.8761  0.9099 -1.2966
   68MOL   H28824542   5.024   4.887   5.156 -1.6871  3.5653  0.2937
   68MOL   H28924543   4.876   4.803   5.115 -1.3341  2.1380  0.2834
   68MOL   C29024544   4.617   5.109   5.390 -0.2293  0.2825 -0.3630
   68MOL   C29124545   4.523   5.224   5.339 -0.4854 -0.1249 -0.0225
   68MOL   C29224546   4.375   5.195   5.332  0.7826 -0.0878 -0.1226
   68MOL   C29324547   4.302   5.171   5.466  0.4313  0.2709 -0.7183
   68MOL   C29424548   4.153   5.197   5.461 -0.2927 -0.1031  1.1169
   68MOL   C29524549   4.086   5.224   5.601 -0.6889 -0.0036  1.0059
   68MOL   H29624550   4.723   5.134   5.403 -0.3955 -0.9406  4.0919
   68MOL   H29724551   4.587   5.087   5.492 -0.1875  1.3817 -0.1059
   68MOL   H29824552   4.559   5.240   5.238  3.0520 -2.3599  0.8057
   68MOL   H29924553   4.351   5.113   5.264  0.8805  0.0359 -0.3085
   68MOL   H30024554   4.343   5.286   5.281 -0.0370  0.4418  1.3085
   68MOL   H30124555   4.331   5.081   5.521 -1.7094  0.6358  1.1064
   68MOL   H30224556   4.336   5.239   5.544 -1.7024  1.5069 -0.8358
   68MOL   H30324557   4.098   5.113   5.417  0.6797 -1.0468  1.6777
   68MOL   H30424558   4.137   5.286   5.400 -2.2172 -0.8437  0.5075
   68MOL   H30524559   4.109   5.138   5.664  0.7871 -0.9426 -0.7725
   68MOL   H30624560   3.978   5.235   5.585 -0.7823 -0.8590  1.0037
   68MOL   H30724561   4.125   5.311   5.653  0.7128  0.9275 -1.5349
   68MOL   C30824562   4.547   5.362   5.419  0.2732 -0.1866  0.6727
   68MOL   C30924563   4.657   5.445   5.348 -0.0620  0.4500  0.5792
   68MOL   C31024564   4.726   5.546   5.448 -0.8420 -0.1810  0.0703
   68MOL   C31124565   4.653   5.672   5.487  0.1608  0.0323  0.7888
   68MOL   C31224566   4.629   5.684   5.636 -0.7733  0.0197  0.3896
   68MOL   C31324567   4.570   5.818   5.664 -0.6127  0.3266 -0.2296
   68MOL   H31424568   4.452   5.414   5.428 -0.4382 -1.3033 -0.2052
   68MOL   H31524569   4.594   5.328   5.512  1.1584  1.1956  0.7440
   68MOL   H31624570   4.734   5.374   5.318 -1.2073 -0.1103 -1.1460
   68MOL   H31724571   4.825   5.567   5.410 -1.2200  0.1973 -0.7182
   68MOL   H31824572   4.748   5.487   5.538  1.9971  0.2484 -0.3091
   68MOL   H31924573   4.553   5.667   5.444  1.3428 -0.0916 -2.0964
   68MOL   H32024574   4.701   5.764   5.453  0.3480 -0.7218 -1.0838
   68MOL   H32124575   4.561   5.603   5.662 -1.3576  0.5995  0.6984
   68MOL   H32224576   4.715   5.675   5.703 -0.2690  2.8168  0.1670
   68MOL   H32324577   4.463   5.834   5.651 -0.6832  0.2948  0.2724
   68MOL   H32424578   4.617   5.895   5.603 -0.5802 -0.1209 -0.7642
   68MOL   H32524579   4.587   5.836   5.771  1.3235 -0.4385 -0.3953
   68MOL   C32624580   4.614   5.509   5.219 -0.1194  0.0380 -0.2711
   68MOL   C32724581   4.733   5.522   5.118  0.3601  0.2160 -0.1385
   68MOL   C32824582   4.692   5.512   4.967 -0.2038  0.6634  0.8421
   68MOL   C32924583   4.617   5.380   4.925 -0.4768 -0.4908 -0.9029
   68MOL   C33024584   4.603   5.375   4.770 -0.2402  0.3365  0.2719
   68MOL   C33124585   4.547   5.241   4.725  0.3137 -0.6553 -0.6941
   68MOL   H33224586   4.571   5.605   5.248 -0.9162  0.1827 -1.8642
   68MOL   H33324587   4.529   5.457   5.175 -0.7397  1.8880 -1.3330
   68MOL   H33424588   4.802   5.438   5.121 -0.0454 -0.2159 -2.2079
   68MOL   H33524589   4.624   5.590   4.935 -1.0178 -0.1309  0.6215
   68MOL   H33624590   4.783   5.533   4.911 -0.1110 -1.6027  0.1213
   68MOL   H33724591   4.524   5.361   4.979  0.0281  0.3029  0.2553
   68MOL   H33824592   4.682   5.297   4.954  0.0377 -0.8260 -2.9721
   68MOL   H33924593   4.538   5.450   4.726 -0.1983  0.0497 -0.2802
   68MOL   H34024594   4.708   5.389   4.742  0.3279 -2.2140  0.9947
   68MOL   H34124595   4.530   5.256   4.618  1.3597  1.1981 -0.6213
   68MOL   H34224596   4.450   5.221   4.770 -0.9129 -1.1634 -3.4394
   68MOL   H34324597   4.619   5.163   4.751 -0.0750 -0.9007 -0.3545
   68MOL   C34424598   4.805   5.654   5.127  0.6245  0.3486 -0.6524
   68MOL   C34524599   4.949   5.646   5.086 -0.3698  0.5787  0.0329
   68MOL   C34624600   5.015   5.785   5.088  0.1683 -0.2710 -0.2032
   68MOL   C34724601   5.165   5.773   5.052  0.0411  0.3905  0.1794
   68MOL   C34824602   5.238   5.906   5.046 -0.2492  0.1237  0.3667
   68MOL   C34924603   5.384   5.887   5.081 -0.3436 -0.4125 -0.7843
   68MOL   H35024604   4.756   5.729   5.066 -0.3999  0.1646 -0.0688
   68MOL   H35124605   4.788   5.701   5.224 -1.8452 -1.1932 -0.2904
   68MOL   H35224606   4.959   5.595   4.990  3.2891 -2.0244  1.6509
   68MOL   H35324607   4.964   5.837   5.007 -0.4166 -0.3500  0.1153
   68MOL   H35424608   4.997   5.823   5.189 -0.8867 -2.8174  0.5904
   68MOL   H35524609   5.202   5.710   5.133 -0.4128  2.3523  1.9531
   68MOL   H35624610   5.180   5.721   4.957  0.8420 -0.8478  0.9698
   68MOL   H35724611   5.240   5.953   4.948 -2.7857  1.3249  0.8791
   68MOL   H35824612   5.193   5.976   5.116 -0.1138 -0.7716  1.3691
   68MOL   H35924613   5.445   5.818   5.022  0.5275 -0.3176 -0.0074
   68MOL   H36024614   5.437   5.982   5.080  1.7276 -1.5335 -3.6365
   68MOL   H36124615   5.385   5.844   5.181 -2.8465 -1.6944 -1.2615
   68MOL   H36224616   5.003   5.583   5.157  0.4620  0.7443 -0.4380
   69MOL     C124617   6.572   0.459   2.035 -0.0087 -0.0519 -0.1744
   69MOL     C224618   6.591   0.362   2.148  0.4037 -1.1069 -0.2318
   69MOL     C324619   6.525   0.407   2.277  0.2747  0.1230 -0.4432
   69MOL     C424620   6.591   0.525   2.357 -0.2174  0.0620  0.6801
   69MOL     C524621   6.492   0.579   2.460 -0.3292  0.1821 -0.4773
   69MOL     C624622   6.553   0.692   2.545 -0.0571 -0.5827 -0.0034
   69MOL     H724623   6.474   0.506   2.032  0.0591  0.3388  2.6198
   69MOL     H824624   6.644   0.540   2.044  0.1475 -0.3616  1.4663
   69MOL     H924625   6.530   0.274   2.128  2.9440 -2.7971 -0.7297
   69MOL    H1024626   6.510   0.321   2.341 -0.3850  0.7524  0.2638
   69MOL    H1124627   6.425   0.440   2.249  0.2383 -1.5563 -2.3854
   69MOL    H1224628   6.613   0.608   2.289  0.6096 -0.9883 -0.3471
   69MOL    H1324629   6.688   0.491   2.393 -0.8478  0.7000  3.0522
   69MOL    H1424630   6.396   0.614   2.421 -0.6378  0.2352  0.3100
   69MOL    H1524631   6.470   0.503   2.536  1.6273  0.9385  0.8928
   69MOL    H1624632   6.549   0.777   2.477 -0.4149 -0.7614 -0.2111
   69MOL    H1724633   6.650   0.662   2.583  1.0170  0.0196 -2.2010
   69MOL    H1824634   6.489   0.718   2.630 -1.0743  1.6831 -1.4214
   69MOL    H1924635   6.587   0.411   1.938 -2.5103  0.0685 -0.6497
   69MOL    C2024636   6.732   0.310   2.170  0.5644 -0.5456 -0.3352
   69MOL    C2124637   6.781   0.215   2.062  0.2996  0.3872  0.0667
   69MOL    C2224638   6.930   0.209   2.056 -0.0814 -0.8528  0.0612
   69MOL    C2324639   6.998   0.320   1.981 -0.3794  0.3113 -0.6017
   69MOL    C2424640   7.147   0.289   1.949 -0.0395  0.2773  0.0406
   69MOL    C2524641   7.250   0.396   1.918  0.2623  0.2939 -0.3411
   69MOL    H2624642   6.743   0.268   2.270  1.2828  1.4609  0.4347
   69MOL    H2724643   6.794   0.399   2.179 -0.5871  0.1736  0.6176
   69MOL    H2824644   6.753   0.248   1.961 -2.1502 -1.4193  0.1077
   69MOL    H2924645   6.963   0.114   2.014 -0.7942 -1.3442  0.6063
   69MOL    H3024646   6.971   0.207   2.157 -0.7724  2.5346  0.4851
   69MOL    H3124647   6.990   0.409   2.043 -1.6154 -0.6233  0.6026
   69MOL    H3224648   6.954   0.338   1.883  0.9455 -0.2099 -1.3052
   69MOL    H3324649   7.184   0.234   2.035  1.3150  1.4662  0.2385
   69MOL    H3424650   7.137   0.214   1.871 -2.0751  1.5026 -0.9242
   69MOL    H3524651   7.232   0.430   1.816  0.9320  1.2194 -0.1583
   69MOL    H3624652   7.219   0.480   1.979 -0.8358  0.4186 -1.0500
   69MOL    H3724653   7.354   0.373   1.943 -0.0636  0.0588  0.8294
   69MOL    C3824654   6.717   0.074   2.082  0.5597  0.1018 -0.5536
   69MOL    C3924655   6.713   7.711   1.953  0.2542 -0.2219 -0.5428
   69MOL    C4024656   6.693   7.567   1.992 -0.4253 -0.0441  0.3079
   69MOL    C4124657   6.811   7.501   2.065 -0.3396 -0.0637  0.2671
   69MOL    C4224658   6.757   7.386   2.159  0.9266 -0.0173  0.0417
   69MOL    C4324659   6.872   7.314   2.234  0.4614 -0.3924 -0.1338
   69MOL    H4424660   6.620   0.087   2.129 -0.5771 -0.2690 -2.7006
   69MOL    H4524661   6.781   0.026   2.156 -1.9248  0.6310  2.0055
   69MOL    H4624662   6.804   0.008   1.898 -0.3324 -0.8211 -1.7808
   69MOL    H4724663   6.610   7.565   2.062 -0.3209  1.6108  0.4926
   69MOL    H4824664   6.666   7.505   1.906 -0.6025  2.4645 -1.4709
   69MOL    H4924665   6.887   7.476   1.992 -0.7289 -2.5850  0.6869
   69MOL    H5024666   6.865   7.574   2.126  0.2668 -1.2436  1.1707
   69MOL    H5124667   6.688   7.426   2.233  0.6450  0.5226 -0.5076
   69MOL    H5224668   6.695   7.309   2.113  0.7277  0.3850 -0.3642
   69MOL    H5324669   6.943   7.374   2.292  1.3432 -0.8440 -0.7358
   69MOL    H5424670   6.927   7.254   2.161 -2.2886 -1.0181 -1.7299
   69MOL    H5524671   6.824   7.235   2.293 -0.5857 -0.1030 -0.5990
   69MOL    C5624672   6.590   0.035   1.878 -0.0452 -0.1948 -0.2404
   69MOL    C5724673   6.580   7.710   1.732 -0.4627  0.0879 -0.1612
   69MOL    C5824674   6.713   7.724   1.644 -0.4610  0.6503  0.0633
   69MOL    C5924675   6.760   0.146   1.610 -0.1375 -0.6642 -0.9777
   69MOL    C6024676   6.893   0.157   1.534  0.2324  0.1587  0.1061
   69MOL    C6124677   7.016   0.156   1.620 -0.9867  0.7490  0.6623
   69MOL    H6224678   6.502   7.719   1.925 -0.3943 -1.0875 -1.6768
   69MOL    H6324679   6.590   0.144   1.871  1.8258 -0.2119 -0.9117
   69MOL    H6424680   6.563   7.605   1.755  0.8629 -0.0075  0.4573
   69MOL    H6524681   6.799   7.685   1.699 -0.3761  0.8622  0.0822
   69MOL    H6624682   6.714   7.677   1.547  2.2127 -0.3555  0.5444
   69MOL    H6724683   6.772   0.199   1.705 -1.4526 -0.1671 -1.0757
   69MOL    H6824684   6.682   0.186   1.545 -2.3838 -3.8081 -0.3367
   69MOL    H6924685   6.904   0.072   1.467 -2.5388  0.7100 -1.1116
   69MOL    H7024686   6.895   0.245   1.470 -0.4932  0.1536  0.0695
   69MOL    H7124687   7.016   0.075   1.693 -0.0729  0.8448  0.7827
   69MOL    H7224688   7.103   0.134   1.557 -0.7531 -0.2313  1.3044
   69MOL    H7324689   7.032   0.250   1.672  1.5849 -1.1960  3.5619
   69MOL    C7424690   6.452   0.051   1.670 -1.1223  0.2472 -0.0494
   69MOL    C7524691   6.407   7.706   1.542  0.0359  0.2052  0.2772
   69MOL    C7624692   6.364   7.559   1.563 -0.3690 -0.0579 -0.4412
   69MOL    C7724693   6.481   7.458   1.529 -0.2566  0.1271  0.1616
   69MOL    C7824694   6.467   7.323   1.596  0.5781 -0.0575  0.5149
   69MOL    C7924695   6.497   7.322   1.744  0.4175 -0.0620 -0.2082
   69MOL    H8024696   6.368   0.058   1.739 -0.9707 -1.3596  0.3235
   69MOL    H8124697   6.470   0.152   1.634 -1.7603 -0.0118 -1.1046
   69MOL    H8224698   6.480   7.713   1.462 -1.3014  1.8285 -0.8088
   69MOL    H8324699   6.346   7.545   1.670  0.4519  1.0727 -0.1472
   69MOL    H8424700   6.277   7.518   1.511 -0.8206  0.9540 -0.4865
   69MOL    H8524701   6.490   7.447   1.421  0.7914 -0.0334  0.2641
   69MOL    H8624702   6.580   7.499   1.547 -0.2028 -0.1793  0.5611
   69MOL    H8724703   6.542   7.262   1.546 -1.4101 -0.2310 -2.4054
   69MOL    H8824704   6.374   7.274   1.567 -0.7905  1.3527  2.3980
   69MOL    H8924705   6.465   7.412   1.797  1.5111  1.2041 -1.6200
   69MOL    H9024706   6.447   7.238   1.792 -0.2839  1.2404  1.3790
   69MOL    H9124707   6.603   7.304   1.759  0.4445  0.3785  0.1161
   69MOL    C9224708   6.282   0.057   1.486 -0.3625  0.3903  0.1443
   69MOL    C9324709   6.264   0.037   1.334 -0.1746  0.0764  0.2619
   69MOL    C9424710   6.120   0.043   1.287  0.3860 -0.0300 -0.4608
   69MOL    C9524711   6.044   7.639   1.317 -0.0519 -0.4410  0.7393
   69MOL    C9624712   5.892   7.664   1.304 -0.6312 -0.0553 -0.0172
   69MOL    C9724713   5.815   7.544   1.348  0.1101  0.7785 -0.3289
   69MOL    H9824714   6.186   0.025   1.526 -0.8062 -0.0827 -1.2729
   69MOL    H9924715   6.298   0.163   1.505  0.4267  0.5975 -1.5914
   69MOL   H10024716   6.300   7.667   1.297 -1.0647  0.1441 -0.8111
   69MOL   H10124717   6.112   0.067   1.181  2.5122  2.0509 -0.2102
   69MOL   H10224718   6.075   0.128   1.339  1.0806 -1.1646  2.0226
   69MOL   H10324719   6.064   7.560   1.245 -1.5770  1.2458 -1.6117
   69MOL   H10424720   6.075   7.602   1.414 -0.9253  0.4931  1.3903
   69MOL   H10524721   5.867   0.017   1.373  0.5338  0.1780  0.1377
   69MOL   H10624722   5.866   7.696   1.203  2.6406 -0.3407 -1.0083
   69MOL   H10724723   5.809   7.471   1.267  1.5138 -1.2541  1.3402
   69MOL   H10824724   5.845   7.504   1.445  0.9006 -0.1492 -0.9505
   69MOL   H10924725   5.708   7.563   1.356 -0.2721 -1.0483 -0.9416
   69MOL   C11024726   6.356   0.130   1.250 -0.5756  0.2860  0.0783
   69MOL   C11124727   6.395   0.085   1.099  0.0987 -0.4003  0.5296
   69MOL   C11224728   6.542   0.048   1.093 -0.0918 -0.0074 -0.6386
   69MOL   C11324729   6.577   7.648   1.164 -0.1321  0.3779  0.4365
   69MOL   C11424730   6.729   7.640   1.183 -0.1117 -0.8842  0.8203
   69MOL   C11524731   6.784   7.502   1.217  0.5306 -0.0992 -0.5400
   69MOL   H11624732   6.301   0.225   1.252 -2.4974 -0.7064 -2.4549
   69MOL   H11724733   6.452   0.154   1.296 -0.8921  1.6686  0.0484
   69MOL   H11824734   6.338   7.722   1.078  0.8208 -0.3467 -1.8247
   69MOL   H11924735   6.608   0.122   1.138 -0.7169  0.4886 -0.5288
   69MOL   H12024736   6.578   0.046   0.989  1.4533  1.6373 -0.1824
   69MOL   H12124737   6.549   7.566   1.098  1.1108  0.9658 -0.8472
   69MOL   H12224738   6.525   7.624   1.257 -1.6430 -0.6128 -0.6553
   69MOL   H12324739   6.757   7.713   1.259 -1.2334 -1.2113  1.5484
   69MOL   H12424740   6.783   7.671   1.094  0.8970 -1.1632  1.3243
   69MOL   H12524741   6.890   7.495   1.239  0.4768  0.1581 -0.1854
   69MOL   H12624742   6.727   7.481   1.308  1.9513 -0.2793  0.3203
   69MOL   H12724743   6.764   7.432   1.137 -2.8551  0.1865 -0.0270
   69MOL   C12824744   6.373   0.184   0.986  0.4400 -0.1240 -0.1888
   69MOL   C12924745   6.355   0.123   0.846 -1.2468 -0.0494  0.5513
   69MOL   C13024746   6.477   0.176   0.754 -0.8203  0.0484 -0.4206
   69MOL   C13124747   6.541   0.093   0.643 -0.1924 -0.4011 -0.1902
   69MOL   C13224748   6.642   0.175   0.549 -0.3809 -0.2924  0.1184
   69MOL   C13324749   6.724   0.076   0.463  0.4455  0.0413 -0.1925
   69MOL   H13424750   6.454   0.256   0.983  2.3466 -2.3147 -3.5730
   69MOL   H13524751   6.291   0.252   1.010 -0.2002 -1.7046  2.4403
   69MOL   H13624752   6.365   0.015   0.858 -0.2702  0.0841  0.9972
   69MOL   H13724753   6.432   0.263   0.706  1.4479  0.7980 -1.2488
   69MOL   H13824754   6.561   0.200   0.819 -0.9372  1.1564 -0.6727
   69MOL   H13924755   6.467   0.053   0.575  0.1989 -1.3895 -0.0485
   69MOL   H14024756   6.596   0.008   0.684 -2.3481 -1.0314  1.4403
   69MOL   H14124757   6.589   0.247   0.487 -0.3633 -1.7914 -1.6841
   69MOL   H14224758   6.708   0.230   0.617 -0.9666  1.6956 -0.8808
   69MOL   H14324759   6.665   0.033   0.383  0.6451 -1.9168  0.6840
   69MOL   H14424760   6.768   0.000   0.529  0.0159 -0.5684 -0.6096
   69MOL   H14524761   6.808   0.114   0.405  0.2486 -0.4731 -0.8164
   69MOL   C14624762   6.217   0.159   0.788 -0.0435  0.4218 -0.2799
   69MOL   C14724763   6.088   0.106   0.856  0.4888  0.6759 -0.4231
   69MOL   C14824764   6.072   7.680   0.841  0.2217  0.5152 -0.3468
   69MOL   C14924765   5.963   7.622   0.930  0.3219  0.5713  0.1082
   69MOL   C15024766   5.952   7.469   0.914 -0.1482 -0.1418 -0.2672
   69MOL   C15124767   5.913   7.415   0.774 -0.1735  0.3697 -0.3340
   69MOL   H15224768   6.219   0.268   0.780 -1.5389  0.4638 -0.1495
   69MOL   H15324769   6.202   0.137   0.683 -0.3131 -1.7165  0.1876
   69MOL   H15424770   6.096   0.122   0.964 -1.1679  1.4749 -0.4030
   69MOL   H15524771   6.164   7.632   0.874 -0.0140 -0.8088 -1.5498
   69MOL   H15624772   6.051   7.653   0.738  0.3622 -1.7844  0.1899
   69MOL   H15724773   5.986   7.650   1.033 -1.9291  2.0073  0.2472
   69MOL   H15824774   5.866   7.656   0.895 -0.0438  0.1019  0.6596
   69MOL   H15924775   5.884   7.430   0.990  0.5181 -0.4698  0.1658
   69MOL   H16024776   6.052   7.429   0.932 -0.2172 -0.5557 -0.8019
   69MOL   H16124777   5.807   7.436   0.763 -0.8024 -1.0637  2.5667
   69MOL   H16224778   5.978   7.453   0.695  0.7494  1.0007  0.7068
   69MOL   H16324779   5.915   7.306   0.772 -1.9020  0.3474 -2.8637
   69MOL   C16424780   5.967   0.184   0.799  0.2942 -0.1347 -0.2170
   69MOL   C16524781   5.934   0.316   0.876 -0.0521  0.1476  0.0238
   69MOL   C16624782   5.850   0.417   0.785  0.3416 -0.2960  0.1961
   69MOL   C16724783   5.936   0.494   0.693  0.4733 -0.6970  0.1426
   69MOL   C16824784   5.865   0.592   0.600  0.2964 -0.0215 -0.2783
   69MOL   C16924785   5.966   0.697   0.539 -0.5394 -0.0656  0.0251
   69MOL   H17024786   5.975   0.211   0.693 -3.0802  1.6519 -0.0863
   69MOL   H17124787   5.875   0.126   0.804  1.9828 -2.7824  1.0269
   69MOL   H17224788   6.030   0.360   0.905  0.9359 -0.3470 -2.3735
   69MOL   H17324789   5.792   0.492   0.839  1.9466  1.2752 -0.2308
   69MOL   H17424790   5.773   0.363   0.730 -0.5512  1.2847 -0.1267
   69MOL   H17524791   6.008   0.437   0.635  0.5363 -1.0759  0.5887
   69MOL   H17624792   5.998   0.556   0.758  0.0489  0.3868 -0.4705
   69MOL   H17724793   5.782   0.634   0.657  1.3640  0.5217  0.8957
   69MOL   H17824794   5.814   0.538   0.521  0.2856 -0.8769  0.3143
   69MOL   H17924795   6.039   0.652   0.472  1.1083 -1.2654  2.5603
   69MOL   H18024796   6.021   0.735   0.626 -1.0490  0.6084  0.0616
   69MOL   H18124797   5.921   0.783   0.490  0.7628  0.2526 -0.6123
   69MOL   C18224798   5.849   0.269   1.004  0.3428 -0.2024  0.7581
   69MOL   C18324799   5.844   0.366   1.120  0.0498 -0.3842  0.4789
   69MOL   C18424800   5.992   0.387   1.175 -0.3038  0.1244 -0.0172
   69MOL   C18524801   6.026   0.534   1.192  0.6324 -0.0083 -0.2757
   69MOL   C18624802   6.174   0.562   1.206 -0.0978 -0.6025 -0.1087
   69MOL   C18724803   6.182   0.712   1.218  0.2024  0.3383  0.2796
   69MOL   H18824804   5.752   0.239   0.963  1.1907 -0.5361 -1.0668
   69MOL   H18924805   5.896   0.176   1.037  1.5833 -0.1736 -0.8787
   69MOL   H19024806   5.817   0.461   1.074  2.6034 -0.7065 -1.7800
   69MOL   H19124807   6.012   0.326   1.264 -3.0234 -1.9377 -0.7580
   69MOL   H19224808   6.061   0.332   1.111 -2.4541 -1.4044 -1.0789
   69MOL   H19324809   5.970   0.570   1.278 -2.3826 -0.2945 -2.0742
   69MOL   H19424810   5.979   0.581   1.106 -0.5641 -4.0110 -1.9153
   69MOL   H19524811   6.229   0.516   1.124 -0.6580 -1.9129  0.2467
   69MOL   H19624812   6.217   0.507   1.291  1.0747  0.1904 -0.1786
   69MOL   H19724813   6.158   0.759   1.313 -0.7209  0.5000 -0.0308
   69MOL   H19824814   6.150   0.769   1.131  0.5534  0.7197  0.3990
   69MOL   H19924815   6.286   0.742   1.218 -0.2180  1.8293  0.4164
   69MOL   C20024816   5.738   0.343   1.226 -0.4653  0.7010 -1.3023
   69MOL   C20124817   5.590   0.373   1.177  0.1403 -0.0529 -0.4371
   69MOL   C20224818   5.478   0.345   1.283 -0.1238 -0.2921 -0.0865
   69MOL   C20324819   5.469   0.195   1.306 -0.4732 -0.1345  0.7603
   69MOL   C20424820   5.372   0.166   1.422 -0.3118  0.2398  0.2129
   69MOL   C20524821   5.342   0.013   1.425  0.2845  0.8948  0.5608
   69MOL   H20624822   5.759   0.397   1.318 -2.1878 -1.7926  0.6358
   69MOL   H20724823   5.741   0.238   1.255  1.0666  1.5354  1.7485
   69MOL   H20824824   5.577   0.290   1.108  0.4986  0.9040 -1.6909
   69MOL   H20924825   5.387   0.392   1.247  0.1312  0.0471 -0.3024
   69MOL   H21024826   5.501   0.393   1.378  2.9324  1.3270 -1.5609
   69MOL   H21124827   5.561   0.138   1.324 -0.7679 -0.8122  0.1196
   69MOL   H21224828   5.432   0.140   1.220 -1.6591  0.0185  1.1687
   69MOL   H21324829   5.274   0.211   1.409  0.1160  0.8001 -1.1268
   69MOL   H21424830   5.411   0.203   1.516 -2.6973  0.3561  1.1910
   69MOL   H21524831   5.256   7.700   1.479  0.8992  0.0923  0.9610
   69MOL   H21624832   5.318   7.706   1.324  1.0090  1.1038  0.3223
   69MOL   H21724833   5.427   7.681   1.459 -0.7851 -0.3774  1.0974
   69MOL   C21824834   5.571   0.511   1.097 -0.5769 -0.5055  0.7731
   69MOL   C21924835   5.606   0.644   1.183 -0.0094 -0.3805  0.0062
   69MOL   C22024836   5.500   0.679   1.297  0.6324  0.5418 -0.4709
   69MOL   C22124837   5.367   0.727   1.248 -0.1990 -0.1524 -0.2037
   69MOL   C22224838   5.265   0.758   1.368 -0.0644  0.1711  0.4134
   69MOL   C22324839   5.128   0.813   1.318 -0.2054  0.0901  0.0986
   69MOL   H22424840   5.633   0.515   1.007 -1.7372  0.0191 -0.0207
   69MOL   H22524841   5.470   0.526   1.059 -0.0485  2.2302  0.3272
   69MOL   H22624842   5.703   0.632   1.231  0.1670  0.2673 -0.1820
   69MOL   H22724843   5.551   0.753   1.358  0.9558 -1.5182  1.8076
   69MOL   H22824844   5.479   0.593   1.360 -0.2435  1.5473  0.6123
   69MOL   H22924845   5.311   0.648   1.197  2.2953 -2.0684 -0.0915
   69MOL   H23024846   5.376   0.817   1.188  1.0293  1.0007  1.6504
   69MOL   H23124847   5.242   0.675   1.434 -0.6140 -0.6897 -0.8370
   69MOL   H23224848   5.309   0.824   1.443 -0.8070 -1.3086  2.1756
   69MOL   H23324849   5.094   0.763   1.228 -0.3527  0.7163 -0.1948
   69MOL   H23424850   5.136   0.915   1.282 -2.0580 -0.9314 -3.4279
   69MOL   H23524851   5.055   0.809   1.399  0.2457  2.5978  0.6588
   69MOL   C23624852   5.631   0.755   1.083 -0.1782  0.2541 -0.5931
   69MOL   C23724853   5.671   0.891   1.145 -0.2575  0.1786 -0.4546
   69MOL   C23824854   5.642   1.004   1.032 -0.3805  0.3159  0.0391
   69MOL   C23924855   5.738   0.991   0.912 -0.0869  0.0664  0.6997
   69MOL   C24024856   5.771   1.124   0.838  0.5549 -0.0544  0.6377
   69MOL   C24124857   5.883   1.109   0.729 -0.3469  0.2132 -0.3378
   69MOL   H24224858   5.718   0.729   1.024 -0.6184 -0.0325 -1.1138
   69MOL   H24324859   5.551   0.770   1.011 -0.6638  0.3982 -0.0340
   69MOL   H24424860   5.588   0.917   1.211  0.1416 -2.2408  1.0465
   69MOL   H24524861   5.543   0.995   0.988 -0.9379  0.7777  1.1806
   69MOL   H24624862   5.650   1.105   1.072  2.2720  1.0988 -2.2296
   69MOL   H24724863   5.688   0.927   0.839 -0.6781 -0.3553  1.4651
   69MOL   H24824864   5.833   0.944   0.937  0.1800 -0.1998 -0.7789
   69MOL   H24924865   5.676   1.162   0.801 -0.1280  0.5869  2.9504
   69MOL   H25024866   5.798   1.200   0.911 -1.2448 -0.2442  1.5324
   69MOL   H25124867   5.983   1.086   0.767 -0.0667  0.6058 -0.8200
   69MOL   H25224868   5.851   1.023   0.671  0.0443 -0.0706 -0.1398
   69MOL   H25324869   5.879   1.195   0.662 -0.3962  0.2796 -0.2499
   69MOL   C25424870   5.813   0.903   1.215 -0.6205 -0.6738 -0.6684
   69MOL   C25524871   5.862   1.041   1.272 -0.3920 -0.1993  0.0973
   69MOL   C25624872   6.015   1.063   1.230  0.0833 -0.6831  0.4194
   69MOL   C25724873   6.046   1.119   1.086  0.6745 -0.0734 -0.0723
   69MOL   C25824874   6.189   1.162   1.057  1.1271 -0.2472  0.9251
   69MOL   C25924875   6.204   1.245   0.933 -0.4386 -0.1578  0.4241
   69MOL   H26024876   5.887   0.864   1.147 -0.0132 -0.6559 -0.0227
   69MOL   H26124877   5.806   0.841   1.304 -0.6721 -0.1726 -0.3167
   69MOL   H26224878   5.805   1.119   1.223 -0.4083  0.2877  0.8754
   69MOL   H26324879   6.054   1.133   1.304 -1.9995  0.0375  0.8753
   69MOL   H26424880   6.082   0.979   1.249  1.7361 -0.0551 -2.2998
   69MOL   H26524881   6.010   1.041   1.020  0.9196 -0.1973 -0.0612
   69MOL   H26624882   5.982   1.205   1.068 -1.2282 -1.8090 -1.9679
   69MOL   H26724883   6.250   1.073   1.045  0.2754 -0.6297 -0.7694
   69MOL   H26824884   6.231   1.219   1.140  0.8133  0.0383  0.8894
   69MOL   H26924885   6.118   1.310   0.915 -0.6467 -0.5475  0.0227
   69MOL   H27024886   6.207   1.184   0.843  3.1014  1.2070 -0.5012
   69MOL   H27124887   6.298   1.302   0.934 -0.8213  0.6233 -2.3189
   69MOL   C27224888   5.850   1.053   1.429  0.8606 -0.2239 -0.1313
   69MOL   C27324889   5.702   1.038   1.475 -0.4550 -0.1590  0.4053
   69MOL   C27424890   5.602   1.143   1.418 -0.3231  0.1034  0.0510
   69MOL   C27524891   5.454   1.095   1.426  0.7878  0.3325  0.0102
   69MOL   C27624892   5.352   1.187   1.359  0.1555 -0.1912  0.5244
   69MOL   C27724893   5.361   1.188   1.204  0.4662 -0.4757 -0.2224
   69MOL   H27824894   5.907   0.974   1.478  0.1597 -1.9634 -2.0876
   69MOL   H27924895   5.890   1.145   1.470 -0.2987  0.0894  0.3202
   69MOL   H28024896   5.676   0.937   1.446  0.6665 -0.8391  1.7068
   69MOL   H28124897   5.624   1.154   1.312 -0.2551 -0.2908  0.0235
   69MOL   H28224898   5.623   1.240   1.463  1.2997 -0.3900  0.3712
   69MOL   H28324899   5.418   1.085   1.529  0.2938 -0.0651 -0.1991
   69MOL   H28424900   5.460   0.995   1.382 -0.2860  0.6538 -0.8774
   69MOL   H28524901   5.252   1.157   1.389 -0.2321  0.3488 -0.1957
   69MOL   H28624902   5.361   1.291   1.389  2.4892  0.2000 -1.4103
   69MOL   H28724903   5.360   1.083   1.173  1.6723 -0.3072 -0.8310
   69MOL   H28824904   5.288   1.256   1.159  0.1944 -0.2644  0.5367
   69MOL   H28924905   5.449   1.240   1.167  1.0756 -1.3204  0.0247
   69MOL   C29024906   5.688   1.049   1.629 -0.1675 -0.3478 -0.3209
   69MOL   C29124907   5.732   0.921   1.708 -0.6549  0.5518 -0.3489
   69MOL   C29224908   5.752   0.953   1.861 -0.6770  0.0375  0.4398
   69MOL   C29324909   5.894   0.956   1.905 -0.1133 -0.5333  0.4015
   69MOL   C29424910   5.915   0.937   2.054 -0.9806  0.0221  0.0383
   69MOL   C29524911   5.850   0.806   2.116 -0.4616 -0.6450  0.1111
   69MOL   H29624912   5.587   1.076   1.661 -0.5031 -2.0748  0.1383
   69MOL   H29724913   5.757   1.124   1.666 -1.4440  0.2445  0.9045
   69MOL   H29824914   5.826   0.882   1.671  0.3971  3.3030 -0.6996
   69MOL   H29924915   5.699   0.873   1.913  1.0083  0.3976  2.8304
   69MOL   H30024916   5.701   1.047   1.880 -1.5095 -0.4905  0.8544
   69MOL   H30124917   5.943   0.867   1.867  0.4915 -0.0050 -0.0735
   69MOL   H30224918   5.943   1.044   1.862  0.8292 -0.2026  2.1054
   69MOL   H30324919   5.881   1.027   2.105 -2.3143 -0.7966  0.5985
   69MOL   H30424920   6.024   0.929   2.060 -0.8645 -0.1961 -1.8565
   69MOL   H30524921   5.893   0.772   2.211 -0.9296 -1.2597  0.1064
   69MOL   H30624922   5.871   0.715   2.059  0.9881 -2.4533  3.3697
   69MOL   H30724923   5.742   0.806   2.127 -0.8742 -2.0102 -3.4260
   69MOL   C30824924   5.632   0.805   1.678 -0.3738 -0.4866  0.2269
   69MOL   C30924925   5.683   0.670   1.716 -0.3201  0.0363 -0.0394
   69MOL   C31024926   5.796   0.619   1.627  0.4891 -0.2698  0.1105
   69MOL   C31124927   5.845   0.476   1.659  0.3753 -0.1923  0.9612
   69MOL   C31224928   5.980   0.460   1.589 -0.4562 -0.1761  0.0832
   69MOL   C31324929   6.040   0.313   1.600 -0.2723  0.6856  0.1384
   69MOL   H31424930   5.539   0.829   1.729 -0.7929  1.4107 -1.3681
   69MOL   H31524931   5.608   0.797   1.572 -0.5066  1.4657  0.0884
   69MOL   H31624932   5.723   0.670   1.817 -0.2232 -0.8847 -0.0740
   69MOL   H31724933   5.877   0.690   1.613 -1.8348  2.7828  1.5769
   69MOL   H31824934   5.757   0.605   1.526  0.4833 -0.6837  0.1702
   69MOL   H31924935   5.772   0.398   1.636 -1.1878  2.1083 -2.1828
   69MOL   H32024936   5.864   0.471   1.766 -1.2736 -2.1569  1.1817
   69MOL   H32124937   5.996   0.490   1.485  0.7550 -0.8118  0.0827
   69MOL   H32224938   6.055   0.519   1.641 -1.0885  0.8722 -0.1861
   69MOL   H32324939   6.121   0.289   1.532 -0.2034 -0.4057  0.6082
   69MOL   H32424940   5.959   0.243   1.577 -0.0158  1.0903 -2.0988
   69MOL   H32524941   6.077   0.293   1.700 -0.3299  0.1289  0.0467
   69MOL   C32624942   5.561   0.576   1.732 -0.5874 -0.4160  0.3435
   69MOL   C32724943   5.482   0.590   1.867 -0.7119 -0.9524  0.5975
   69MOL   C32824944   5.335   0.530   1.850 -0.0195 -0.3657  0.1519
   69MOL   C32924945   5.325   0.376   1.811 -0.0816 -0.3104 -0.6467
   69MOL   C33024946   5.185   0.310   1.808  0.6750 -0.3863  0.1242
   69MOL   C33124947   5.197   0.161   1.781  0.3834 -0.2171 -0.2603
   69MOL   H33224948   5.588   0.472   1.713 -0.7089 -0.7621  1.9933
   69MOL   H33324949   5.492   0.597   1.650 -1.1651 -0.0807  0.9063
   69MOL   H33424950   5.464   0.697   1.878 -0.4244 -0.6167 -1.8653
   69MOL   H33524951   5.296   0.547   1.950  0.6148 -1.3254  0.5698
   69MOL   H33624952   5.285   0.591   1.774  4.5308  0.2552 -2.5548
   69MOL   H33724953   5.401   0.320   1.866 -1.0907 -0.2144  0.8789
   69MOL   H33824954   5.353   0.375   1.706  0.7259 -0.4329 -0.4314
   69MOL   H33924955   5.127   0.331   1.899  0.6121 -0.4403  0.0963
   69MOL   H34024956   5.139   0.364   1.725  0.8674 -0.3267  0.0574
   69MOL   H34124957   5.239   0.155   1.681  0.4494 -1.2949 -0.1660
   69MOL   H34224958   5.100   0.112   1.785  0.2105 -0.0143 -1.5194
   69MOL   H34324959   5.266   0.119   1.853  0.4682  0.2660 -0.0567
   69MOL   C34424960   5.566   0.533   1.988  0.0254 -0.3604  0.2417
   69MOL   C34524961   5.517   0.579   2.130  0.0053  0.2623  0.9676
   69MOL   C34624962   5.614   0.551   2.238  0.3074 -0.2820  0.0322
   69MOL   C34724963   5.597   0.647   2.355 -0.7834  0.3672  0.1698
   69MOL   C34824964   5.689   0.604   2.467  0.2306 -0.2753  0.3673
   69MOL   C34924965   5.670   0.688   2.594 -0.1731  0.1130 -0.2286
   69MOL   H35024966   5.571   0.425   1.977  0.9291 -0.1492 -1.7248
   69MOL   H35124967   5.668   0.566   1.972  0.1325 -0.5347  0.5620
   69MOL   H35224968   5.425   0.525   2.151 -0.8047  1.5339  0.7029
   69MOL   H35324969   5.600   0.451   2.278 -1.3369 -0.8627 -1.8886
   69MOL   H35424970   5.715   0.565   2.202  0.7897  0.7198  1.7393
   69MOL   H35524971   5.629   0.750   2.338  0.4785  0.2643  1.8530
   69MOL   H35624972   5.492   0.644   2.381 -0.8245 -0.9713 -0.1225
   69MOL   H35724973   5.648   0.508   2.500 -1.6088  0.7666  1.1789
   69MOL   H35824974   5.794   0.600   2.437  0.1838 -0.6039  0.2493
   69MOL   H35924975   5.760   0.654   2.645  0.3853 -1.1794 -2.0442
   69MOL   H36024976   5.679   0.793   2.566  0.8093 -0.2157 -1.1385
   69MOL   H36124977   5.578   0.666   2.649  0.1786 -1.9074 -0.4180
   69MOL   H36224978   5.508   0.688   2.123 -3.1253 -0.0876 -1.1821
   70MOL     C124979   3.692   7.425   2.538  0.2904  0.0620 -0.4263
   70MOL     C224980   3.715   7.573   2.510  0.4446 -0.1869 -0.2440
   70MOL     C324981   3.642   7.670   2.609  0.2803 -0.8165  0.5261
   70MOL     C424982   3.704   7.672   2.749  1.0939 -0.2359 -0.0519
   70MOL     C524983   3.635   0.060   2.826 -0.1992 -0.4504 -0.9579
   70MOL     C624984   3.659   0.065   2.981 -0.0537 -0.1869  0.4256
   70MOL     H724985   3.589   7.399   2.515  0.3061 -1.8095  1.4443
   70MOL     H824986   3.754   7.361   2.475 -1.3385 -1.7061 -0.2453
   70MOL     H924987   3.821   7.593   2.522  0.7511 -1.0841 -1.4346
   70MOL    H1024988   3.535   7.653   2.620  0.3120 -1.8624 -0.5676
   70MOL    H1124989   3.668   0.040   2.566  0.5690 -0.3193  1.8038
   70MOL    H1224990   3.810   7.693   2.732  0.5335  1.3984 -1.5602
   70MOL    H1324991   3.699   7.579   2.806 -0.4562  0.3605  0.8163
   70MOL    H1424992   3.679   0.149   2.783  0.3413  0.4453  1.3594
   70MOL    H1524993   3.529   0.065   2.803 -0.2097 -2.4034 -1.4834
   70MOL    H1624994   3.668   7.698   3.035 -3.6771 -0.1122  1.3027
   70MOL    H1724995   3.579   0.128   3.021 -0.2561  0.3874 -0.8489
   70MOL    H1824996   3.750   0.118   3.009 -0.6312  0.5164  0.9880
   70MOL    H1924997   3.718   7.403   2.642  0.1169  1.8993  0.0222
   70MOL    C2024998   3.683   7.611   2.362  0.7878  0.2011  0.1818
   70MOL    C2124999   3.722   7.515   2.249 -0.0498  0.2232 -1.1005
   70MOL    C2225000   3.658   7.556   2.115  0.9530  0.2321 -0.0698
   70MOL    C2325001   3.507   7.524   2.115  0.2162 -0.4968  0.9987
   70MOL    C2425002   3.428   7.587   1.997  0.3375  0.3188 -0.3074
   70MOL    C2525003   3.291   7.512   1.970  0.2454  0.1020 -0.0390
   70MOL    H2625004   3.715   7.713   2.344  1.7344 -0.1336 -0.0619
   70MOL    H2725005   3.576   7.632   2.353  0.8693  0.6258  0.2119
   70MOL    H2825006   3.690   7.415   2.281 -0.3739  1.1424  1.6204
   70MOL    H2925007   3.694   7.503   2.027  2.6239  0.5110  0.4314
   70MOL    H3025008   3.674   7.662   2.094  1.0123 -0.2885 -2.7745
   70MOL    H3125009   3.457   7.554   2.208 -0.0636  1.7567  0.1593
   70MOL    H3225010   3.502   7.416   2.106  0.9283 -0.4426 -0.0703
   70MOL    H3325011   3.407   7.692   2.019 -2.7658 -0.8331  2.8714
   70MOL    H3425012   3.491   7.590   1.908  1.0473  0.0194  0.1790
   70MOL    H3525013   3.235   7.553   1.886  0.4282 -1.4346 -0.9392
   70MOL    H3625014   3.314   7.409   1.941  0.1831  0.1000 -0.0811
   70MOL    H3725015   3.219   7.506   2.051  0.5153 -0.1324  0.1836
   70MOL    C3825016   3.873   7.508   2.230  0.4734  0.1129 -0.3043
   70MOL    C3925017   3.934   7.402   2.132 -0.8152  0.1351 -0.0259
   70MOL    C4025018   4.075   7.433   2.084  0.1289  0.2866  0.1433
   70MOL    C4125019   4.079   7.546   1.971  0.2892 -0.6188  0.0360
   70MOL    C4225020   4.218   7.578   1.923 -0.4307  0.6328  0.1864
   70MOL    C4325021   4.208   7.676   1.806 -0.2545 -0.0138 -0.2135
   70MOL    H4425022   3.923   7.509   2.326  0.8403  2.3163 -0.4823
   70MOL    H4525023   3.908   7.605   2.194  1.1433 -0.8314 -2.2411
   70MOL    H4625024   3.877   7.394   2.039 -1.7951  1.9332  0.4149
   70MOL    H4725025   4.127   7.456   2.177  0.8748  1.3592 -0.5351
   70MOL    H4825026   4.112   7.347   2.029 -1.2053 -0.7277  0.7963
   70MOL    H4925027   4.021   7.511   1.886 -2.7082 -1.4754  2.3516
   70MOL    H5025028   4.033   7.638   2.005 -0.9595 -0.8391 -1.0379
   70MOL    H5125029   4.285   7.618   2.000  0.0351 -2.1268  1.2793
   70MOL    H5225030   4.264   7.484   1.892 -0.1162  1.8461 -3.2461
   70MOL    H5325031   4.295   7.704   1.747  0.2447  1.4000  1.1615
   70MOL    H5425032   4.182   0.049   1.840  1.1902 -0.3855  2.1542
   70MOL    H5525033   4.132   7.635   1.739 -0.7998  0.2998  0.2087
   70MOL    C5625034   3.933   7.269   2.205 -0.3547  0.1193 -0.4357
   70MOL    C5725035   3.982   7.141   2.120 -0.1700  0.2691  0.4763
   70MOL    C5825036   3.908   7.123   1.984 -0.8659 -0.3817 -0.0399
   70MOL    C5925037   3.758   7.130   1.989 -0.2871 -0.7730  0.1150
   70MOL    C6025038   3.688   7.089   1.857 -0.1414 -0.6356  0.6897
   70MOL    C6125039   3.528   7.080   1.875 -0.4997 -1.1485  0.2295
   70MOL    H6225040   3.991   7.271   2.297 -0.5456 -3.9280 -0.1301
   70MOL    H6325041   3.833   7.246   2.241 -0.5512 -1.1147 -1.7059
   70MOL    H6425042   4.085   7.150   2.089 -0.2979  0.2219  0.0428
   70MOL    H6525043   3.939   7.203   1.917 -1.1765 -0.2032  0.0267
   70MOL    H6625044   3.946   7.027   1.949 -1.9391 -1.5275  1.8138
   70MOL    H6725045   3.727   7.233   2.006  2.6571  0.8472 -3.7236
   70MOL    H6825046   3.721   7.068   2.072  0.1054  0.2652  1.0822
   70MOL    H6925047   3.723   7.165   1.788  1.4893 -2.5925 -0.7108
   70MOL    H7025048   3.728   6.991   1.830  2.5513  0.3856  0.8434
   70MOL    H7125049   3.496   7.184   1.883 -1.7892 -1.6188  1.3545
   70MOL    H7225050   3.472   7.033   1.795  0.4590 -2.4701  0.3236
   70MOL    H7325051   3.500   7.030   1.968 -0.1828  0.4799  1.2392
   70MOL    C7425052   3.975   7.011   2.213  0.6070 -0.8188 -0.2146
   70MOL    C7525053   4.004   6.869   2.144 -0.2212 -0.2209  0.0948
   70MOL    C7625054   4.138   6.870   2.080  0.4709  0.6967 -0.1903
   70MOL    C7725055   4.184   6.743   2.002  0.8844  0.1711  0.3314
   70MOL    C7825056   4.255   6.778   1.874 -0.0773  0.1594  0.7501
   70MOL    C7925057   4.285   6.651   1.785 -0.3015 -0.1175 -0.0415
   70MOL    H8025058   4.040   7.021   2.300 -0.8253 -0.2024  0.7980
   70MOL    H8125059   3.875   7.009   2.255  0.3386 -0.1424 -0.8014
   70MOL    H8225060   3.923   6.853   2.073  0.9935  0.7227 -1.5317
   70MOL    H8325061   4.147   6.957   2.015  0.9082 -0.5379 -1.8105
   70MOL    H8425062   4.214   6.883   2.157  0.1686  0.9087  0.0730
   70MOL    H8525063   4.237   6.678   2.072  3.0005  0.3397 -1.0810
   70MOL    H8625064   4.097   6.680   1.985  0.1894  1.2411 -0.1343
   70MOL    H8725065   4.343   6.831   1.911  0.0935 -0.0045  0.5769
   70MOL    H8825066   4.194   6.849   1.817  1.0649 -0.6859 -1.6145
   70MOL    H8925067   4.186   6.609   1.767 -0.6368  1.4511 -2.0084
   70MOL    H9025068   4.338   6.666   1.691 -1.1208 -0.8198 -0.6264
   70MOL    H9125069   4.347   6.590   1.850  0.8994  0.1384 -0.9167
   70MOL    C9225070   3.999   6.746   2.248  0.1360  0.0649  0.6464
   70MOL    C9325071   3.870   6.650   2.242  0.0771 -0.1425  0.0803
   70MOL    C9425072   3.889   6.544   2.139  0.7075  0.4385 -0.2590
   70MOL    C9525073   3.769   6.459   2.113  0.2557 -0.2677 -0.1180
   70MOL    C9625074   3.746   6.402   1.976  0.2999  0.1228  0.1820
   70MOL    C9725075   3.603   6.349   1.953 -0.1780 -0.9280 -0.0647
   70MOL    H9825076   4.093   6.691   2.239 -0.7461 -1.0940 -1.9583
   70MOL    H9925077   4.003   6.799   2.343  0.2053  2.2377 -0.5367
   70MOL   H10025078   3.783   6.708   2.213  1.5909  1.6862 -0.9692
   70MOL   H10125079   3.972   6.478   2.163  0.2458  0.0721  0.3172
   70MOL   H10225080   3.913   6.591   2.043  2.5589 -0.9768 -0.5200
   70MOL   H10325081   3.760   6.375   2.181  0.2246  0.1373  0.3806
   70MOL   H10425082   3.680   6.518   2.137  1.5201  2.1120 -1.0747
   70MOL   H10525083   3.761   6.482   1.903 -0.9857  1.9045  1.8116
   70MOL   H10625084   3.820   6.324   1.959  1.0794  1.2965 -1.9288
   70MOL   H10725085   3.524   6.422   1.974  0.3049 -0.7326  1.1127
   70MOL   H10825086   3.591   6.334   1.846 -1.4241  2.5864 -0.4797
   70MOL   H10925087   3.598   6.254   2.006 -0.1956  0.0043  1.6601
   70MOL   C11025088   3.836   6.583   2.381 -0.2671 -0.0636 -0.1425
   70MOL   C11125089   3.771   6.668   2.492  0.1837 -0.1972  0.5244
   70MOL   C11225090   3.797   6.618   2.638  0.5649 -0.4196  0.0604
   70MOL   C11325091   3.953   6.608   2.671  0.0250  0.5562 -0.5997
   70MOL   C11425092   3.969   6.611   2.820 -0.0423 -0.5759  0.1630
   70MOL   C11525093   4.114   6.649   2.862  0.2454  0.2841  0.0916
   70MOL   H11625094   3.795   6.482   2.381  0.2292 -0.2755  1.3695
   70MOL   H11725095   3.928   6.535   2.415 -1.5071 -3.2978 -1.1103
   70MOL   H11825096   3.825   6.763   2.485 -0.5330  0.1558 -0.2670
   70MOL   H11925097   3.747   6.529   2.677 -0.8638  0.8364  1.1461
   70MOL   H12025098   3.755   6.705   2.689 -0.4053 -1.4621  1.0861
   70MOL   H12125099   4.003   6.702   2.649 -1.9494  2.0565  1.1170
   70MOL   H12225100   4.000   6.525   2.618 -1.7406  0.1206 -1.5279
   70MOL   H12325101   3.946   6.510   2.853  0.8333 -0.1709  2.1103
   70MOL   H12425102   3.911   6.688   2.872  1.6537  0.0660  1.1873
   70MOL   H12525103   4.137   6.752   2.836  0.1011 -0.2501 -2.3057
   70MOL   H12625104   4.128   6.640   2.969 -3.1508 -0.5693  0.5322
   70MOL   H12725105   4.190   6.581   2.824  1.7846  1.2700  1.3518
   70MOL   C12825106   3.619   6.692   2.451  0.7599 -0.5577  0.1246
   70MOL   C12925107   3.551   6.813   2.503 -0.1319  0.6256 -0.1601
   70MOL   C13025108   3.626   6.938   2.439  0.2473 -0.3758  0.0152
   70MOL   C13125109   3.542   7.071   2.428  0.0374 -0.3742  1.1466
   70MOL   C13225110   3.459   7.100   2.311  0.1604 -0.3329  0.0696
   70MOL   C13325111   3.413   7.250   2.310 -0.4187 -0.0454  0.4612
   70MOL   H13425112   3.560   6.605   2.481  2.1445 -2.1069 -1.5513
   70MOL   H13525113   3.606   6.695   2.343  1.0268  2.1333  0.1282
   70MOL   H13625114   3.449   6.797   2.470  0.3539  0.3184 -1.5663
   70MOL   H13725115   3.707   6.963   2.508 -0.3435  1.7060 -0.0172
   70MOL   H13825116   3.658   6.919   2.337 -0.1909 -2.4392  0.2460
   70MOL   H13925117   3.606   7.157   2.445 -0.1562 -0.4319  2.1832
   70MOL   H14025118   3.476   7.070   2.514 -1.8929  2.4118 -0.2213
   70MOL   H14125119   3.520   7.084   2.222  1.9468 -0.3097  1.2596
   70MOL   H14225120   3.371   7.035   2.310  1.4225 -2.0813  0.4319
   70MOL   H14325121   3.490   7.327   2.315  0.3780 -0.6705 -1.7683
   70MOL   H14425122   3.353   7.269   2.399  1.2657 -0.7223  1.7550
   70MOL   H14525123   3.361   7.270   2.216  0.0638 -1.3996 -0.0972
   70MOL   C14625124   3.539   6.833   2.655 -0.2465 -0.0190  0.1019
   70MOL   C14725125   3.462   6.717   2.736  0.5412  0.6269 -0.8515
   70MOL   C14825126   3.313   6.690   2.689 -0.1610  0.7424  0.4170
   70MOL   C14925127   3.220   6.811   2.668  0.1432  0.2022 -0.0156
   70MOL   C15025128   3.078   6.772   2.627  0.7096 -0.6319  0.1451
   70MOL   C15125129   2.996   6.724   2.740  0.6827 -0.2045  0.1633
   70MOL   H15225130   3.636   6.861   2.697 -0.3113  1.2930 -0.6003
   70MOL   H15325131   3.497   6.932   2.672  1.5026  0.6366  0.8029
   70MOL   H15425132   3.517   6.626   2.715 -0.2951  0.4376 -2.2441
   70MOL   H15525133   3.268   6.613   2.751  0.9666  0.9462  1.5074
   70MOL   H15625134   3.331   6.643   2.592  2.4341  2.1682  0.1707
   70MOL   H15725135   3.216   6.874   2.756  0.2384  1.0927 -0.6377
   70MOL   H15825136   3.260   6.879   2.593 -1.3053 -0.0744 -1.0643
   70MOL   H15925137   3.078   6.697   2.548 -1.4397 -0.6712  0.1620
   70MOL   H16025138   3.027   6.857   2.581 -1.9431 -2.2410  0.0444
   70MOL   H16125139   2.974   6.814   2.798  0.7975 -0.4269  0.5502
   70MOL   H16225140   2.903   6.682   2.704 -0.1183  1.3485  0.3808
   70MOL   H16325141   3.042   6.655   2.811 -0.0638 -1.6047 -0.6898
   70MOL   C16425142   3.464   6.763   2.882  0.2148 -0.0004  0.3986
   70MOL   C16525143   3.463   6.649   2.994  0.7062  0.1559  0.1729
   70MOL   C16625144   3.587   6.551   2.971 -0.1838  0.2392 -0.5089
   70MOL   C16725145   3.593   6.431   3.065  0.3710 -0.3160  0.3138
   70MOL   C16825146   3.710   6.335   3.048  0.0795 -0.5763  0.0363
   70MOL   C16925147   3.701   6.260   2.919 -0.0235 -0.2755  0.6649
   70MOL   H17025148   3.565   6.799   2.900  0.9385 -2.2782  1.1001
   70MOL   H17125149   3.400   6.851   2.889 -0.2099 -0.1583 -1.1685
   70MOL   H17225150   3.378   6.585   2.970 -1.4079  2.0097  2.4614
   70MOL   H17325151   3.677   6.612   2.970 -0.8853  1.2731 -1.3842
   70MOL   H17425152   3.585   6.508   2.870  0.3399 -1.0009 -0.0026
   70MOL   H17525153   3.497   6.380   3.072  0.6894 -0.9709 -0.0384
   70MOL   H17625154   3.618   6.476   3.161 -0.5529  1.2500 -0.1607
   70MOL   H17725155   3.705   6.276   3.139  2.0814  0.3978  0.8051
   70MOL   H17825156   3.807   6.385   3.057 -0.1435 -0.1948  0.3312
   70MOL   H17925157   3.601   6.216   2.918 -0.3498  0.4604  0.7229
   70MOL   H18025158   3.774   6.181   2.902  0.8414  0.3443  1.5210
   70MOL   H18125159   3.709   6.323   2.830 -0.8533 -0.0296  0.7593
   70MOL   C18225160   3.448   6.704   3.140  0.3088 -0.7699 -0.4060
   70MOL   C18325161   3.325   6.794   3.164 -0.0841  0.2803 -0.6596
   70MOL   C18425162   3.373   6.941   3.163  0.1262 -0.5322 -0.0778
   70MOL   C18525163   3.262   7.049   3.158 -0.2666  0.9266  0.4088
   70MOL   C18625164   3.171   7.050   3.034 -0.0072  0.5021  0.3229
   70MOL   C18725165   3.231   7.104   2.910 -0.8286  0.1245  0.1056
   70MOL   H18825166   3.440   6.621   3.211 -1.6914 -1.4397 -1.3635
   70MOL   H18925167   3.541   6.752   3.168 -1.1606  1.9489 -0.0588
   70MOL   H19025168   3.257   6.773   3.082  0.6056 -0.5009 -1.0419
   70MOL   H19125169   3.437   6.961   3.249 -1.4036  3.4442  0.2542
   70MOL   H19225170   3.441   6.955   3.080 -1.0037 -1.8601 -1.2492
   70MOL   H19325171   3.301   7.151   3.160  4.5443 -0.8138  2.7172
   70MOL   H19425172   3.193   7.033   3.242  1.4353 -1.7708  1.3717
   70MOL   H19525173   3.089   7.119   3.053 -0.1076  1.1766 -2.3789
   70MOL   H19625174   3.124   6.953   3.021  4.3362 -1.7734  0.7417
   70MOL   H19725175   3.268   7.206   2.913  1.2245 -0.5883 -0.2819
   70MOL   H19825176   3.159   7.090   2.829 -2.6337  0.3010  1.6536
   70MOL   H19925177   3.319   7.049   2.875 -1.1769 -0.1503 -0.3484
   70MOL   C20025178   3.258   6.743   3.296 -0.0051  0.6427 -0.4485
   70MOL   C20125179   3.178   6.608   3.278 -0.1419  0.4002  0.0464
   70MOL   C20225180   3.160   6.525   3.407  0.1906  0.2538  0.5904
   70MOL   C20325181   3.281   6.473   3.476  0.3638  0.2644 -0.0763
   70MOL   C20425182   3.392   6.389   3.409 -0.1592 -0.6889 -0.0880
   70MOL   C20525183   3.537   6.429   3.468 -0.9004 -0.3194 -0.5406
   70MOL   H20625184   3.182   6.814   3.330 -1.4402 -1.3661  0.6856
   70MOL   H20725185   3.328   6.722   3.377  0.7881  0.5274 -1.1563
   70MOL   H20825186   3.252   6.562   3.212  0.7396  0.1286  1.1898
   70MOL   H20925187   3.089   6.447   3.381  0.8294  0.2528 -1.2173
   70MOL   H21025188   3.099   6.592   3.467  0.7383  2.1566 -0.9195
   70MOL   H21125189   3.248   6.426   3.568  1.6756 -0.5339 -0.0003
   70MOL   H21225190   3.331   6.556   3.527  1.2294 -0.3174  0.0179
   70MOL   H21325191   3.379   6.392   3.301  0.7012 -0.4877 -0.1966
   70MOL   H21425192   3.370   6.286   3.435  1.0516 -0.9714 -0.1270
   70MOL   H21525193   3.542   6.399   3.572  0.8148  0.1768 -0.4570
   70MOL   H21625194   3.615   6.374   3.414  0.1836 -0.3868  1.0600
   70MOL   H21725195   3.566   6.534   3.473 -1.8705 -0.1402  1.6261
   70MOL   C21825196   3.043   6.639   3.211 -0.1324 -0.4698 -0.3988
   70MOL   C21925197   2.947   6.537   3.157 -0.4178 -0.2605  0.0931
   70MOL   C22025198   3.015   6.413   3.088 -0.2215 -0.3437 -0.1237
   70MOL   C22125199   3.099   6.435   2.962  0.4051  0.0322  0.0020
   70MOL   C22225200   3.171   6.305   2.918 -0.0399 -0.0592  0.7875
   70MOL   C22325201   3.272   6.329   2.803  0.4681 -0.8702  0.1225
   70MOL   H22425202   2.992   6.703   3.283 -0.7117  0.1437 -1.3561
   70MOL   H22525203   3.065   6.701   3.124 -0.0591 -1.2657 -0.9471
   70MOL   H22625204   2.899   6.489   3.243 -0.8201 -0.0463 -0.0065
   70MOL   H22725205   2.933   6.344   3.068  0.5468 -1.1560 -0.5117
   70MOL   H22825206   3.074   6.361   3.164  1.5576  1.8749  0.0552
   70MOL   H22925207   3.171   6.515   2.978  0.1755  0.0390  1.0430
   70MOL   H23025208   3.033   6.468   2.882 -0.1049 -0.6241  0.1488
   70MOL   H23125209   3.226   6.260   3.000 -0.3060 -2.3738 -0.2585
   70MOL   H23225210   3.092   6.240   2.881 -0.6740  0.6606  0.8483
   70MOL   H23325211   3.225   6.359   2.709  0.4870 -1.1763  0.0169
   70MOL   H23425212   3.330   6.238   2.787 -0.4408 -1.2700 -0.9448
   70MOL   H23525213   3.349   6.403   2.825 -0.9616  0.3542  1.0415
   70MOL   C23625214   2.818   6.587   3.085 -0.0165 -0.3819 -0.4459
   70MOL   C23725215   2.740   6.699   3.150  0.1526  0.6482 -0.1950
   70MOL   C23825216   2.592   6.685   3.111 -0.0680  0.1418 -1.2192
   70MOL   C23925217   2.522   6.569   3.183  0.3121  0.0510 -0.2475
   70MOL   C24025218   2.365   6.573   3.169  0.3878  0.0884  0.2451
   70MOL   C24125219   2.319   6.504   3.041 -0.4487  0.4868  1.1871
   70MOL   H24225220   2.848   6.615   2.984 -0.2176 -3.4544 -1.3928
   70MOL   H24325221   2.756   6.498   3.073 -1.8614  0.8925 -0.6428
   70MOL   H24425222   2.741   6.678   3.257 -2.8883  0.3095 -0.1994
   70MOL   H24525223   2.531   6.771   3.138  1.5665  0.9678 -0.0912
   70MOL   H24625224   2.585   6.674   3.002  2.2653  0.6196 -1.4270
   70MOL   H24725225   2.549   6.577   3.289 -1.6494 -0.8560  0.3388
   70MOL   H24825226   2.561   6.474   3.145  0.9277 -0.3560  1.3615
   70MOL   H24925227   2.313   6.533   3.256 -0.8918  2.1620  0.4583
   70MOL   H25025228   2.333   6.677   3.172  1.3890  0.3896  0.7845
   70MOL   H25125229   2.402   6.516   2.971 -0.5244 -0.0693  1.0026
   70MOL   H25225230   2.296   6.399   3.055 -0.8004  0.1161 -1.8950
   70MOL   H25325231   2.228   6.551   3.005  0.5589  0.6901 -1.2388
   70MOL   C25425232   2.798   6.840   3.119 -0.2876  0.7910 -0.5045
   70MOL   C25525233   2.740   6.962   3.192  0.5009 -0.9117 -0.3454
   70MOL   C25625234   2.720   7.076   3.085 -0.3600 -0.9033 -1.8179
   70MOL   C25725235   2.655   7.210   3.137  0.3174  0.3564 -0.2404
   70MOL   C25825236   2.616   7.301   3.021 -0.8738 -0.0192 -0.6069
   70MOL   C25925237   2.533   7.422   3.032  0.3232  0.5008 -0.1674
   70MOL   H26025238   2.791   6.857   3.012  0.7077  0.9111 -0.5472
   70MOL   H26125239   2.906   6.844   3.113 -0.3702  0.7608 -2.1041
   70MOL   H26225240   2.642   6.925   3.222  0.4402  0.1852  0.8756
   70MOL   H26325241   2.814   7.102   3.035  0.0494  1.4917  0.1233
   70MOL   H26425242   2.653   7.034   3.011 -0.7176 -0.2885 -1.8424
   70MOL   H26525243   2.559   7.182   3.180 -0.4040  3.4741  0.3232
   70MOL   H26625244   2.717   7.259   3.213  1.0679 -2.1472  0.8138
   70MOL   H26725245   2.562   7.243   2.946  1.0251  0.7451 -2.6573
   70MOL   H26825246   2.709   7.318   2.966  0.3341 -2.2472  0.7031
   70MOL   H26925247   2.490   7.450   2.936  0.6773  0.2442 -0.4046
   70MOL   H27025248   2.597   7.509   3.047  0.6000  0.8159 -2.9464
   70MOL   H27125249   2.456   7.414   3.108  0.1161  0.4320 -0.3832
   70MOL   C27225250   2.825   7.002   3.309 -0.0109  0.1667  0.0500
   70MOL   C27325251   2.797   6.930   3.436 -0.6525  0.0707 -0.0241
   70MOL   C27425252   2.649   6.962   3.480  0.4330  0.2043  0.4447
   70MOL   C27525253   2.560   6.835   3.477  0.5166 -0.0621 -0.6217
   70MOL   C27625254   2.419   6.854   3.518 -0.7427  0.0803  0.0218
   70MOL   C27725255   2.347   6.968   3.453  0.4639  0.4149  0.4502
   70MOL   H27825256   2.929   6.983   3.281 -0.7189 -3.2877 -0.4397
   70MOL   H27925257   2.813   7.109   3.327  1.8872  0.5965 -1.0805
   70MOL   H28025258   2.810   6.824   3.415 -0.5757  0.0728  0.0154
   70MOL   H28125259   2.604   7.041   3.420  1.9028  1.3125  0.7592
   70MOL   H28225260   2.647   7.015   3.576  1.1072 -0.3510  0.7708
   70MOL   H28325261   2.598   6.754   3.540  1.4335  0.7304 -0.1321
   70MOL   H28425262   2.568   6.796   3.376 -0.8888  0.0715 -0.7907
   70MOL   H28525263   2.362   6.762   3.504 -0.5473  0.3092 -2.5386
   70MOL   H28625264   2.417   6.870   3.626 -2.7325 -3.9382  0.6619
   70MOL   H28725265   2.355   6.972   3.344  0.4716  2.4227  0.5040
   70MOL   H28825266   2.241   6.958   3.477  0.4214 -1.0960 -0.3429
   70MOL   H28925267   2.381   7.062   3.496  2.3427 -0.2689  0.5042
   70MOL   C29025268   2.903   6.969   3.543 -0.3038  0.1885 -0.4879
   70MOL   C29125269   2.897   6.908   3.689 -0.7196 -0.1516  0.7699
   70MOL   C29225270   2.918   6.751   3.686 -0.3430 -0.0821 -0.4949
   70MOL   C29325271   2.904   6.687   3.833  0.5063  0.4705  0.0180
   70MOL   C29425272   3.035   6.631   3.887 -0.2387 -0.0401 -0.2788
   70MOL   C29525273   3.023   6.578   4.030 -0.1294 -0.0096 -0.7877
   70MOL   H29625274   2.888   7.077   3.541 -1.8282  0.0113  0.5828
   70MOL   H29725275   3.004   6.948   3.508 -0.3832 -1.1331  0.0624
   70MOL   H29825276   2.791   6.912   3.717 -1.4979 -3.6379 -1.3984
   70MOL   H29925277   3.013   6.721   3.642  0.1411 -1.5840  1.5282
   70MOL   H30025278   2.840   6.703   3.627 -1.1538  0.3055  0.2469
   70MOL   H30125279   2.854   6.755   3.901 -0.3014 -0.8721  0.7994
   70MOL   H30225280   2.831   6.606   3.825  0.9801 -0.3233  3.0785
   70MOL   H30325281   3.118   6.701   3.890 -0.0419 -0.2553 -0.6131
   70MOL   H30425282   3.065   6.553   3.816 -0.6945 -2.0368  1.6442
   70MOL   H30525283   2.958   6.491   4.026  0.3846 -0.3167 -2.8416
   70MOL   H30625284   2.990   6.652   4.103  1.2750  0.4600 -0.6246
   70MOL   H30725285   3.115   6.535   4.069 -0.2331  0.2664 -0.2289
   70MOL   C30825286   3.010   6.979   3.778  0.1551 -0.2412  0.1284
   70MOL   C30925287   2.975   7.132   3.806  0.3293  0.1188  0.3632
   70MOL   C31025288   3.099   7.208   3.873 -0.4172  0.5385  0.1136
   70MOL   C31125289   3.141   7.149   4.015 -0.6271  0.1117  0.3526
   70MOL   C31225290   3.278   7.212   4.057  0.2392  0.4497  0.3975
   70MOL   C31325291   3.403   7.178   3.972  0.0359 -0.2421 -0.1859
   70MOL   H31425292   3.020   6.922   3.871 -1.4826 -1.6829 -0.5441
   70MOL   H31525293   3.108   6.983   3.732 -0.0743  0.7297 -0.2901
   70MOL   H31625294   2.975   7.180   3.708 -0.3087 -0.1626  0.2207
   70MOL   H31725295   3.084   7.313   3.898  0.8500  0.7982 -0.2332
   70MOL   H31825296   3.183   7.204   3.805  1.9569  3.1829  2.7540
   70MOL   H31925297   3.139   7.040   4.018 -0.0082  0.1133  1.0972
   70MOL   H32025298   3.072   7.179   4.093  0.1115  3.1010 -0.0775
   70MOL   H32125299   3.263   7.320   4.065  0.3621  0.6632 -1.8564
   70MOL   H32225300   3.291   7.191   4.163  2.8047  3.3289  0.7453
   70MOL   H32325301   3.404   7.249   3.889 -1.4250 -2.2076 -1.9347
   70MOL   H32425302   3.382   7.079   3.931 -1.4850 -0.7579  1.7274
   70MOL   H32525303   3.494   7.178   4.032  1.1759  0.3660 -1.9005
   70MOL   C32625304   2.843   7.149   3.887 -0.3605  0.5577  0.2479
   70MOL   C32725305   2.773   7.279   3.865 -0.4005  0.1850  0.2307
   70MOL   C32825306   2.707   7.279   3.725  0.2004  0.1911  1.0712
   70MOL   C32925307   2.714   7.411   3.640  0.2129 -0.6722  0.1587
   70MOL   C33025308   2.668   7.396   3.494 -0.4891  0.0833  0.1385
   70MOL   C33125309   2.521   7.360   3.490  0.5713 -0.1772 -0.3185
   70MOL   H33225310   2.858   7.129   3.994  2.1278  1.9072  0.1965
   70MOL   H33325311   2.774   7.072   3.852  1.2848 -0.7694 -0.1620
   70MOL   H33425312   2.847   7.358   3.866 -1.2949  1.0156  1.6205
   70MOL   H33525313   2.757   7.203   3.665  0.5869  0.9626  0.4048
   70MOL   H33625314   2.605   7.244   3.738  0.2194 -1.0260 -1.7312
   70MOL   H33725315   2.816   7.448   3.637 -0.6666  2.1176  2.0621
   70MOL   H33825316   2.664   7.499   3.681 -2.9506 -1.0483 -2.7191
   70MOL   H33925317   2.682   7.488   3.437 -0.1126  1.0022  1.7008
   70MOL   H34025318   2.713   7.313   3.440 -1.1999 -0.8215  0.9093
   70MOL   H34125319   2.452   7.426   3.543  0.8110 -0.6515  0.5969
   70MOL   H34225320   2.491   7.259   3.519 -3.1566  0.8380 -0.3359
   70MOL   H34325321   2.498   7.365   3.383 -1.7565  0.9049  0.1910
   70MOL   C34425322   2.675   7.318   3.973 -0.0183  0.3448 -0.1470
   70MOL   C34525323   2.724   7.341   4.116  1.0693 -0.4636 -0.0582
   70MOL   C34625324   2.621   7.411   4.196 -0.5047  0.0663 -0.0267
   70MOL   C34725325   2.676   7.437   4.337  0.1700  0.7705 -0.0783
   70MOL   C34825326   2.591   7.548   4.402  0.3594 -0.1507 -0.6508
   70MOL   C34925327   2.626   7.689   4.349  0.1415 -0.2827 -0.6477
   70MOL   H35025328   2.638   7.415   3.939 -0.3225 -0.2469 -1.5531
   70MOL   H35125329   2.583   7.259   3.979  1.6470 -2.3066  0.0064
   70MOL   H35225330   2.813   7.402   4.100 -0.8884  2.0564 -1.8238
   70MOL   H35325331   2.585   7.506   4.156 -1.9037 -0.4313  0.0276
   70MOL   H35425332   2.533   7.348   4.208  0.0718 -0.7505 -0.0466
   70MOL   H35525333   2.687   7.341   4.388  0.7675 -0.5342 -2.5639
   70MOL   H35625334   2.774   7.484   4.339  0.1771  0.9275 -2.9075
   70MOL   H35725335   2.483   7.533   4.395  0.2112  0.9554 -0.8893
   70MOL   H35825336   2.619   7.544   4.508  0.1561 -2.2567 -0.6545
   70MOL   H35925337   2.578   7.701   4.252  3.1765  0.2147 -2.1472
   70MOL   H36025338   2.589   0.033   4.424  2.3416  1.3368 -1.0387
   70MOL   H36125339   2.732   7.713   4.353 -0.1206  0.8065  0.1564
   70MOL   H36225340   2.761   7.245   4.150  0.2310 -1.4826 -1.9738
   71MOL     C125341   4.430   1.136   3.231 -0.0299  0.4692  0.3830
   71MOL     C225342   4.333   1.104   3.117 -0.0929  0.3106 -0.3334
   71MOL     C325343   4.366   1.203   3.009 -0.1726 -0.4107 -0.0085
   71MOL     C425344   4.483   1.182   2.915  0.0926 -0.3206  0.2735
   71MOL     C525345   4.506   1.292   2.806 -0.2613 -0.1216 -0.2705
   71MOL     C625346   4.551   1.422   2.874 -0.3651 -0.1924  0.0176
   71MOL     H725347   4.411   1.220   3.298  1.0282  1.3313 -0.3739
   71MOL     H825348   4.432   1.050   3.298 -2.9557 -0.6625 -0.9275
   71MOL     H925349   4.346   1.005   3.075 -0.3562  1.0634 -2.2355
   71MOL    H1025350   4.383   1.300   3.056 -1.7267 -0.4129  0.5986
   71MOL    H1125351   4.275   1.210   2.949 -1.8452  1.2448  2.6475
   71MOL    H1225352   4.492   1.082   2.872  0.2598 -1.1280  2.1577
   71MOL    H1325353   4.574   1.188   2.975  0.0599  2.0404  0.1376
   71MOL    H1425354   4.588   1.258   2.742 -1.2316  0.3110 -1.7896
   71MOL    H1525355   4.417   1.297   2.743 -0.7474 -2.6677  0.1562
   71MOL    H1625356   4.471   1.455   2.941  1.1321  0.5262  1.4916
   71MOL    H1725357   4.575   1.500   2.801  0.3569 -0.8157 -0.4150
   71MOL    H1825358   4.631   1.408   2.946 -1.0747  1.9909  1.2695
   71MOL    H1925359   4.533   1.149   3.198  0.2754 -0.9402  0.7472
   71MOL    C2025360   4.186   1.114   3.165 -0.2126  0.2753 -0.3577
   71MOL    C2125361   4.131   0.984   3.239 -0.3482  0.3600  0.2076
   71MOL    C2225362   4.037   1.009   3.360 -0.4867  0.3453 -0.0768
   71MOL    C2325363   4.105   1.046   3.490 -0.1365  0.4655 -0.2525
   71MOL    C2425364   4.207   0.946   3.550  0.6863  0.2590  0.1596
   71MOL    C2525365   4.268   1.015   3.672  0.2399  0.3977 -0.3220
   71MOL    H2625366   4.122   1.142   3.081  2.7580  3.0733 -1.7937
   71MOL    H2725367   4.165   1.201   3.228 -1.3659  0.8165 -1.4668
   71MOL    H2825368   4.223   0.932   3.265  1.4008  2.9223 -0.6398
   71MOL    H2925369   3.983   0.921   3.394 -2.0291  0.8715 -1.1373
   71MOL    H3025370   3.965   1.085   3.328  1.0440  1.3834 -1.1675
   71MOL    H3125371   4.034   1.087   3.562  0.5379  0.0078  0.6801
   71MOL    H3225372   4.163   1.134   3.465 -0.5258  0.7143 -0.2898
   71MOL    H3325373   4.160   0.854   3.584 -0.2289 -0.0979 -2.0283
   71MOL    H3425374   4.290   0.909   3.490  0.5088 -0.5544  0.4050
   71MOL    H3525375   4.324   0.943   3.732 -0.9895  1.4346  2.1494
   71MOL    H3625376   4.321   1.109   3.652 -1.1468  1.2534 -0.0384
   71MOL    H3725377   4.195   1.040   3.749 -1.3633  1.3686 -2.0975
   71MOL    C3825378   4.060   0.899   3.132 -0.6145 -0.4579  0.4893
   71MOL    C3925379   4.018   0.757   3.171 -0.4863  0.6477 -0.5631
   71MOL    C4025380   3.923   0.693   3.063  0.1649  0.4293 -0.0645
   71MOL    C4125381   3.795   0.766   3.029  1.1642 -0.0361  0.2247
   71MOL    C4225382   3.709   0.697   2.931 -0.0762 -0.7416 -0.2263
   71MOL    C4325383   3.656   0.556   2.965 -0.3865  0.0189  0.4662
   71MOL    H4425384   4.129   0.899   3.048  0.6276 -2.0982  1.4713
   71MOL    H4525385   3.972   0.958   3.105 -0.1538  0.2635  0.5418
   71MOL    H4625386   3.967   0.751   3.267  0.7183 -0.6842  0.0140
   71MOL    H4725387   3.963   0.664   2.966  2.6144  1.4096  0.6147
   71MOL    H4825388   3.900   0.595   3.103 -0.1992  0.3977 -0.3504
   71MOL    H4925389   3.733   0.790   3.115  1.0531 -2.1162  0.7667
   71MOL    H5025390   3.820   0.862   2.985  1.2893 -0.2805 -0.2419
   71MOL    H5125391   3.619   0.755   2.912  2.2015  1.7621 -4.1651
   71MOL    H5225392   3.763   0.687   2.836  0.5729 -0.3996  0.0987
   71MOL    H5325393   3.600   0.547   3.058  1.6486  0.4388  1.7388
   71MOL    H5425394   3.745   0.494   2.974  0.6153  0.9979 -2.1623
   71MOL    H5525395   3.587   0.526   2.886  0.7481 -2.0728  0.2334
   71MOL    C5625396   4.144   0.678   3.185  0.2784  0.1235  0.0279
   71MOL    C5725397   4.164   0.635   3.329  0.0599  0.8340 -0.3980
   71MOL    C5825398   4.316   0.596   3.348 -0.4920 -0.1625 -0.4896
   71MOL    C5925399   4.365   0.472   3.270  0.3194  0.3264  0.2623
   71MOL    C6025400   4.510   0.422   3.295 -0.0268  0.4496 -0.5474
   71MOL    C6125401   4.547   0.274   3.252  0.0602  0.4467  0.2132
   71MOL    H6225402   4.141   0.588   3.123 -2.1813 -0.0539  0.3568
   71MOL    H6325403   4.233   0.729   3.147  0.8503 -0.8126  0.0946
   71MOL    H6425404   4.160   0.720   3.397  2.4584  0.4622  0.2585
   71MOL    H6525405   4.373   0.681   3.309  0.7365 -1.9340 -2.6876
   71MOL    H6625406   4.330   0.594   3.456 -0.6309 -1.2955 -0.4910
   71MOL    H6725407   4.344   0.483   3.163  1.3913 -1.5451 -0.1557
   71MOL    H6825408   4.292   0.398   3.304  0.1347  1.3358  2.1182
   71MOL    H6925409   4.590   0.482   3.251 -0.1676  3.5347  3.1286
   71MOL    H7025410   4.539   0.444   3.397  1.0764 -1.6612 -0.3865
   71MOL    H7125411   4.513   0.188   3.309  1.5246  0.1610  0.6788
   71MOL    H7225412   4.521   0.260   3.147  2.1004  0.5615 -0.3447
   71MOL    H7325413   4.654   0.251   3.253 -0.3831 -1.7088 -0.2154
   71MOL    C7425414   4.053   0.539   3.395 -0.3332 -0.1167  0.7775
   71MOL    C7525415   4.055   0.526   3.549  0.3199 -0.0898  1.3830
   71MOL    C7625416   3.912   0.522   3.614  0.0714  0.0363 -0.1811
   71MOL    C7725417   3.829   0.651   3.597  0.0389  0.3743 -0.6410
   71MOL    C7825418   3.684   0.630   3.624  0.3775  0.0825 -0.7940
   71MOL    C7925419   3.599   0.753   3.595  0.7026 -0.8764 -0.2700
   71MOL    H8025420   3.950   0.565   3.368 -0.4687 -0.3043  1.0969
   71MOL    H8125421   4.063   0.439   3.353 -0.4117  0.7030 -1.2295
   71MOL    H8225422   4.111   0.609   3.591  1.6165  0.1573 -0.7605
   71MOL    H8325423   3.850   0.441   3.575  0.1497 -0.2634  0.3184
   71MOL    H8425424   3.916   0.493   3.719  0.0547 -0.1262 -0.2247
   71MOL    H8525425   3.857   0.728   3.669 -1.4842  0.2489  0.0993
   71MOL    H8625426   3.842   0.689   3.496 -2.2997  0.3753 -0.9732
   71MOL    H8725427   3.661   0.605   3.728  0.3731 -0.1353 -0.8463
   71MOL    H8825428   3.652   0.541   3.569  0.8418  0.8185 -2.2716
   71MOL    H8925429   3.611   0.776   3.490 -1.5513  0.9766 -0.1765
   71MOL    H9025430   3.491   0.734   3.599  0.2880  1.3445 -0.3833
   71MOL    H9125431   3.627   0.842   3.650  0.0050 -0.4136 -0.6625
   71MOL    C9225432   4.136   0.397   3.587 -0.3610  1.1924 -0.5568
   71MOL    C9325433   4.215   0.398   3.723 -0.1222 -0.2979  0.3315
   71MOL    C9425434   4.235   0.253   3.770  1.1653  0.3862 -0.0555
   71MOL    C9525435   4.093   0.205   3.825  0.3083  1.0950  0.4447
   71MOL    C9625436   4.115   0.089   3.923 -0.3522  0.4307  0.0099
   71MOL    C9725437   3.988   0.009   3.968 -0.9363  0.2975 -0.3117
   71MOL    H9825438   4.063   0.315   3.590  1.4811 -0.4597  0.2924
   71MOL    H9925439   4.197   0.364   3.503  1.9178  1.6894  0.8869
   71MOL   H10025440   4.157   0.457   3.794 -0.7392 -2.0802  1.3451
   71MOL   H10125441   4.299   0.253   3.858  1.0310 -0.7985  0.0440
   71MOL   H10225442   4.268   0.189   3.688 -0.3026 -1.6586  0.8972
   71MOL   H10325443   4.040   0.285   3.876  1.3815  1.4308  1.0597
   71MOL   H10425444   4.032   0.168   3.743  0.5612 -0.1237  0.7961
   71MOL   H10525445   4.196   0.018   3.909 -0.3558  0.2264  1.0151
   71MOL   H10625446   4.151   0.140   4.012  1.3143 -1.4021  0.4156
   71MOL   H10725447   3.908   0.081   3.987 -0.3298  0.8762  0.0739
   71MOL   H10825448   3.964   7.659   3.894 -0.4969 -1.2302  1.1182
   71MOL   H10925449   4.006   7.687   4.063 -0.0937 -0.9317 -1.0955
   71MOL   C11025450   4.349   0.460   3.717 -0.5620 -0.0154 -0.6339
   71MOL   C11125451   4.380   0.598   3.788 -0.2122  0.3555  0.3667
   71MOL   C11225452   4.508   0.661   3.728  0.3710  0.5249  0.0581
   71MOL   C11325453   4.633   0.581   3.716 -0.0370 -0.5118 -0.2434
   71MOL   C11425454   4.738   0.677   3.649 -0.8050  0.5502  0.0980
   71MOL   C11525455   4.867   0.605   3.614  0.6817  0.7485 -0.0693
   71MOL   H11625456   4.419   0.394   3.768  0.6440 -0.3966 -2.7551
   71MOL   H11725457   4.384   0.457   3.614 -0.2694  0.3746 -0.5490
   71MOL   H11825458   4.304   0.673   3.765 -0.8232 -0.0935  0.9046
   71MOL   H11925459   4.525   0.764   3.759  2.5817  0.0501  0.4894
   71MOL   H12025460   4.472   0.676   3.626 -0.6192  0.0588  0.3356
   71MOL   H12125461   4.627   0.487   3.661  0.7540 -0.6647 -0.0683
   71MOL   H12225462   4.668   0.570   3.819  1.9153 -1.8537 -1.0355
   71MOL   H12325463   4.766   0.768   3.703  2.0223 -1.0334  1.4637
   71MOL   H12425464   4.700   0.713   3.554  0.4302  0.2683 -0.5186
   71MOL   H12525465   4.920   0.658   3.535  0.5093 -1.6129 -1.8280
   71MOL   H12625466   4.941   0.586   3.692  0.5491  1.0100  0.1218
   71MOL   H12725467   4.827   0.512   3.573 -2.0846  0.4168  3.2051
   71MOL   C12825468   4.398   0.592   3.940 -0.0933 -0.4288  0.2684
   71MOL   C12925469   4.274   0.621   4.030  0.3885  0.2348  0.3290
   71MOL   C13025470   4.301   0.745   4.117  0.3883  0.3294 -0.3911
   71MOL   C13125471   4.289   0.872   4.029  0.4091 -0.0600  0.6378
   71MOL   C13225472   4.313   0.994   4.111 -0.0813  0.0552  0.3017
   71MOL   C13325473   4.313   1.130   4.038  0.2743  0.3045 -0.0210
   71MOL   H13425474   4.465   0.676   3.960  0.5362 -0.8204 -0.1731
   71MOL   H13525475   4.460   0.507   3.970 -0.2504 -0.1089  1.5458
   71MOL   H13625476   4.181   0.634   3.976 -1.0806 -0.5618  2.5924
   71MOL   H13725477   4.233   0.764   4.200  0.8868  2.5715 -0.4608
   71MOL   H13825478   4.399   0.742   4.165  0.2804 -1.9396 -0.2436
   71MOL   H13925479   4.188   0.885   3.990  0.9568  1.0575 -0.4615
   71MOL   H14025480   4.357   0.885   3.945  1.0121  0.0377  1.1363
   71MOL   H14125481   4.254   0.987   4.203 -1.1647 -0.9780 -0.4581
   71MOL   H14225482   4.420   0.981   4.128  0.0326 -0.4029 -0.7385
   71MOL   H14325483   4.230   1.149   3.969  0.9940  0.0746 -0.9654
   71MOL   H14425484   4.391   1.143   3.963 -1.1034 -2.5652 -2.0927
   71MOL   H14525485   4.331   1.215   4.103  2.1095  1.1509 -1.5765
   71MOL   C14625486   4.257   0.484   4.117 -0.1450 -0.4118  0.1329
   71MOL   C14725487   4.123   0.481   4.197  0.2048  0.5048  0.6515
   71MOL   C14825488   4.121   0.365   4.295 -0.4040 -0.2413  0.6078
   71MOL   C14925489   4.203   0.374   4.426  0.7636  0.1795 -0.5011
   71MOL   C15025490   4.226   0.239   4.493 -0.0675 -0.0608 -0.0596
   71MOL   C15125491   4.354   0.161   4.464  0.0731  0.5648 -0.5172
   71MOL   H15225492   4.267   0.399   4.050 -0.5605 -0.7488  0.4968
   71MOL   H15325493   4.330   0.473   4.197  0.2869 -1.7332 -0.4438
   71MOL   H15425494   4.119   0.575   4.252  0.4718 -0.2120  1.9376
   71MOL   H15525495   4.140   0.270   4.245  1.5203  0.3147  0.2582
   71MOL   H15625496   4.019   0.353   4.333 -1.2277  0.2132 -1.4049
   71MOL   H15725497   4.297   0.429   4.418  1.4502 -0.9197 -0.0474
   71MOL   H15825498   4.147   0.441   4.492  0.4944 -0.1022 -0.4410
   71MOL   H15925499   4.140   0.175   4.477 -0.0195 -0.2306  0.3667
   71MOL   H16025500   4.213   0.250   4.601 -1.3104 -0.8147 -0.1226
   71MOL   H16125501   4.437   0.230   4.446 -2.0297  2.6667 -2.5205
   71MOL   H16225502   4.376   0.088   4.542  0.4344  0.3802 -0.7859
   71MOL   H16325503   4.348   0.104   4.371  2.5175  0.4005 -0.6206
   71MOL   C16425504   4.001   0.459   4.106  0.1664  0.5551  0.3509
   71MOL   C16525505   3.873   0.533   4.155 -0.3476 -0.3469 -0.5665
   71MOL   C16625506   3.888   0.686   4.130 -0.0841  0.2167 -0.1633
   71MOL   C16725507   3.891   0.733   3.987  0.1987  0.3811  0.4292
   71MOL   C16825508   3.891   0.893   3.982  0.4751 -0.0090  0.1206
   71MOL   C16925509   3.869   0.949   3.843  0.0675  0.4678  0.1877
   71MOL   H17025510   4.018   0.485   4.001 -0.7910 -1.5720 -0.3471
   71MOL   H17125511   3.982   0.353   4.090 -0.2100  0.5801  0.6417
   71MOL   H17225512   3.866   0.534   4.264 -0.1393 -0.3804 -0.5534
   71MOL   H17325513   3.976   0.724   4.180  2.0349 -2.2618 -1.8877
   71MOL   H17425514   3.806   0.732   4.185  0.1876  0.7478 -0.1962
   71MOL   H17525515   3.806   0.692   3.932 -0.7665  0.4471  1.8439
   71MOL   H17625516   3.977   0.693   3.933 -1.0304 -0.0673 -1.2621
   71MOL   H17725517   3.978   0.940   4.029  0.2628  2.2077 -1.6292
   71MOL   H17825518   3.806   0.922   4.044  0.4614  0.8523 -0.2945
   71MOL   H17925519   3.953   0.908   3.786 -0.4635 -0.2019 -0.1227
   71MOL   H18025520   3.882   1.056   3.826 -2.2570  0.1550 -4.4174
   71MOL   H18125521   3.778   0.908   3.799 -1.2316 -1.3100  4.2354
   71MOL   C18225522   3.747   0.478   4.103  0.0224  0.4116  0.1047
   71MOL   C18325523   3.711   0.333   4.138  0.5748 -0.2494  0.1874
   71MOL   C18425524   3.601   0.281   4.042 -0.2970 -0.5302 -0.5372
   71MOL   C18525525   3.473   0.363   4.042 -1.2268  0.1322 -0.2554
   71MOL   C18625526   3.382   0.296   3.934  0.1466 -0.1824  0.4070
   71MOL   C18725527   3.413   0.345   3.799  0.3963 -0.6118 -0.1855
   71MOL   H18825528   3.675   0.556   4.127 -0.6525 -0.8563  2.3851
   71MOL   H18925529   3.755   0.485   3.995  0.1010  2.1338  0.2001
   71MOL   H19025530   3.803   0.275   4.130 -0.3023 -1.4605 -1.3505
   71MOL   H19125531   3.645   0.287   3.942  0.5938  1.2715 -0.0530
   71MOL   H19225532   3.584   0.173   4.035 -0.1417 -0.7511  1.9990
   71MOL   H19325533   3.484   0.469   4.021 -1.3568 -0.0073 -1.0696
   71MOL   H19425534   3.419   0.354   4.137 -0.7777 -1.2573 -0.1134
   71MOL   H19525535   3.274   0.307   3.945  0.2905  0.8168  0.8474
   71MOL   H19625536   3.403   0.189   3.931 -0.5280 -0.2835 -1.5853
   71MOL   H19725537   3.340   0.313   3.725 -0.5395 -0.3970  0.6386
   71MOL   H19825538   3.515   0.320   3.769 -0.0399 -1.7986 -0.7089
   71MOL   H19925539   3.407   0.452   3.783  1.4140 -0.8957 -2.8308
   71MOL   C20025540   3.664   0.328   4.284 -0.5481 -0.1635 -1.2677
   71MOL   C20125541   3.600   0.196   4.332 -0.8966  0.5399  0.3045
   71MOL   C20225542   3.697   0.070   4.319  0.8564 -0.1698 -0.1211
   71MOL   C20325543   3.813   0.055   4.417 -0.2569 -0.6205 -0.4045
   71MOL   C20425544   3.866   7.637   4.417  0.0627 -0.1925 -0.0714
   71MOL   C20525545   3.964   7.623   4.525 -0.3553  0.7669 -0.3041
   71MOL   H20625546   3.586   0.403   4.300 -1.4869 -0.5793 -3.6646
   71MOL   H20725547   3.738   0.357   4.358  0.5013 -0.0151 -2.3514
   71MOL   H20825548   3.516   0.169   4.268  0.1493 -0.7507 -0.5593
   71MOL   H20925549   3.738   0.059   4.219  0.9704 -1.3491  0.0566
   71MOL   H21025550   3.629   7.713   4.326  0.5980  0.0799  0.4252
   71MOL   H21125551   3.793   0.075   4.523 -1.5038 -0.6344 -0.6326
   71MOL   H21225552   3.898   0.115   4.385 -1.8662  1.8362 -0.2356
   71MOL   H21325553   3.908   7.610   4.321 -0.6570 -0.6392 -0.2660
   71MOL   H21425554   3.784   7.573   4.449 -0.1348  0.7256  1.3263
   71MOL   H21525555   3.919   7.634   4.624 -1.6778 -0.8899 -0.6882
   71MOL   H21625556   4.006   7.523   4.523 -1.3818  0.3468 -0.9664
   71MOL   H21725557   4.044   7.696   4.528 -1.1193  1.6708 -1.5887
   71MOL   C21825558   3.530   0.207   4.473  0.4974 -0.2739 -0.1745
   71MOL   C21925559   3.380   0.157   4.485 -0.2176  0.0698  0.4087
   71MOL   C22025560   3.286   0.244   4.400 -0.0216 -0.1982  0.0178
   71MOL   C22125561   3.275   0.398   4.442  0.1297  0.1592 -0.6922
   71MOL   C22225562   3.166   0.472   4.365  0.3134 -0.5826  0.4176
   71MOL   C22325563   3.191   0.475   4.214  0.1800 -0.2554 -0.1223
   71MOL   H22425564   3.585   0.149   4.547  0.0574  0.0522  0.4239
   71MOL   H22525565   3.537   0.310   4.508  1.2656 -1.2308  2.6172
   71MOL   H22625566   3.376   0.053   4.454  0.3727  0.0720  0.3217
   71MOL   H22725567   3.185   0.201   4.398 -0.1021 -0.0320  0.4551
   71MOL   H22825568   3.312   0.225   4.296  0.0913  0.2783 -0.0404
   71MOL   H22925569   3.367   0.454   4.425  0.3480  0.4129  1.2348
   71MOL   H23025570   3.246   0.400   4.547 -0.8337 -0.4149 -0.9435
   71MOL   H23125571   3.074   0.427   4.401 -0.7927  0.0772 -1.5036
   71MOL   H23225572   3.155   0.576   4.396 -1.7608 -0.8348  0.5979
   71MOL   H23325573   3.114   0.528   4.157 -0.2439 -0.0613  0.6192
   71MOL   H23425574   3.205   0.372   4.182 -1.2973 -1.3378  2.5636
   71MOL   H23525575   3.284   0.530   4.198 -0.0346 -0.5074 -2.3888
   71MOL   C23625576   3.339   0.155   4.636 -0.3326  0.1263 -0.0427
   71MOL   C23725577   3.197   0.086   4.662  0.9167  0.2190 -0.6684
   71MOL   C23825578   3.090   0.194   4.706 -0.6755  0.6738  0.2066
   71MOL   C23925579   2.953   0.130   4.717  0.0306 -0.2980  0.1946
   71MOL   C24025580   2.829   0.213   4.760 -0.2913  0.2497 -0.0375
   71MOL   C24125581   2.696   0.148   4.723  0.1220  0.0308  0.6962
   71MOL   H24225582   3.417   0.113   4.700 -0.3120 -0.7411 -0.6140
   71MOL   H24325583   3.342   0.252   4.685 -0.3289  0.1030  0.0027
   71MOL   H24425584   3.160   0.040   4.570 -1.2056 -1.2599  0.8650
   71MOL   H24525585   3.119   0.241   4.800 -1.0106 -0.4532  0.8953
   71MOL   H24625586   3.073   0.263   4.624 -2.8785 -3.2173 -2.7602
   71MOL   H24725587   2.952   0.055   4.797 -0.9543  0.3052  0.7657
   71MOL   H24825588   2.920   0.087   4.623 -1.6732  0.1993  0.5390
   71MOL   H24925589   2.841   0.237   4.865 -0.1103 -2.7875  0.6763
   71MOL   H25025590   2.840   0.299   4.693 -0.4982 -0.2847 -0.7639
   71MOL   H25125591   2.699   0.048   4.768 -0.3679  1.1111  3.2161
   71MOL   H25225592   2.611   0.197   4.770  0.1418 -1.3565  2.2428
   71MOL   H25325593   2.690   0.140   4.614  0.4792  0.8536  0.6143
   71MOL   C25425594   3.194   7.697   4.771  0.2057 -0.6123  0.2708
   71MOL   C25525595   3.303   7.591   4.757  0.3748  0.6314  0.1787
   71MOL   C25625596   3.312   7.535   4.616  0.0125  0.0474  0.5258
   71MOL   C25725597   3.453   7.501   4.570 -0.3214 -0.2261  0.4891
   71MOL   C25825598   3.466   7.410   4.446 -0.4034 -0.3143 -0.1615
   71MOL   C25925599   3.424   7.262   4.472 -0.1652  0.2209  0.5293
   71MOL   H26025600   3.097   7.649   4.761  0.3764 -0.8411 -0.3453
   71MOL   H26125601   3.192   0.013   4.871 -0.0207 -1.2678  0.5510
   71MOL   H26225602   3.404   7.623   4.786  1.8384 -1.7156 -2.0571
   71MOL   H26325603   3.257   7.444   4.590 -0.0890  0.8596 -2.2284
   71MOL   H26425604   3.270   7.597   4.537 -1.1683 -2.5311 -0.9529
   71MOL   H26525605   3.499   7.598   4.553  0.2710 -0.2722  1.7543
   71MOL   H26625606   3.518   7.453   4.643  0.9252  1.2255  0.3496
   71MOL   H26725607   3.564   7.418   4.398  0.0989  2.3661  1.2308
   71MOL   H26825608   3.403   7.458   4.370  0.1204  2.1592  0.8991
   71MOL   H26925609   3.470   7.218   4.561 -1.6642 -2.1443  0.1841
   71MOL   H27025610   3.467   7.205   4.389 -1.8730 -1.3101  0.6726
   71MOL   H27125611   3.316   7.258   4.480 -0.3577  0.5725 -1.5574
   71MOL   C27225612   3.284   7.477   4.861  0.1817  0.3799 -0.1994
   71MOL   C27325613   3.272   7.509   5.016 -0.1359  0.6838 -0.5084
   71MOL   C27425614   3.420   7.515   5.075 -0.2952 -0.6385 -0.9469
   71MOL   C27525615   3.429   7.575   5.214 -0.5497 -0.0536  0.3737
   71MOL   C27625616   3.570   7.628   5.251 -0.5320 -0.1320  0.6777
   71MOL   C27725617   3.572   7.694   5.392 -0.6920 -0.7656  1.0066
   71MOL   H27825618   3.192   7.425   4.833  0.0573  0.4197  0.1361
   71MOL   H27925619   3.365   7.406   4.842 -0.0460  0.0588  0.0365
   71MOL   H28025620   3.240   7.612   5.027 -1.1893  0.4820 -1.6062
   71MOL   H28125621   3.487   7.567   5.007 -0.3893  1.8926  0.8207
   71MOL   H28225622   3.471   7.419   5.067 -1.9079 -1.4409 -1.6809
   71MOL   H28325623   3.392   7.505   5.290 -1.4764  1.0525  0.9537
   71MOL   H28425624   3.362   7.661   5.218  0.2446  0.6351 -0.8543
   71MOL   H28525625   3.649   7.553   5.257  1.1885  1.6399  0.3075
   71MOL   H28625626   3.602   7.693   5.169  1.6466 -0.6643  1.0759
   71MOL   H28725627   3.628   7.625   5.455  2.4488 -0.7541 -1.6546
   71MOL   H28825628   3.651   0.041   5.379  0.8181 -2.5102 -0.0200
   71MOL   H28925629   3.481   0.019   5.422 -2.0035 -2.3302 -0.1290
   71MOL   C29025630   3.193   7.409   5.104  0.2970  0.2109 -0.9011
   71MOL   C29125631   3.103   7.459   5.226 -0.2279 -0.3137  0.2654
   71MOL   C29225632   2.998   7.561   5.180  0.0739 -0.7392  0.2942
   71MOL   C29325633   2.906   7.512   5.067  0.0891  0.6626 -0.3623
   71MOL   C29425634   2.775   7.596   5.060  0.8527 -0.0205  0.0690
   71MOL   C29525635   2.670   7.543   4.949 -0.1862 -1.2420 -0.7082
   71MOL   H29625636   3.275   7.350   5.146 -0.9113 -1.2832 -0.5621
   71MOL   H29725637   3.149   7.340   5.032 -1.9178  1.7429 -1.0765
   71MOL   H29825638   3.171   7.509   5.295  1.7120 -3.2374  0.5847
   71MOL   H29925639   3.052   7.646   5.138 -0.1120 -0.5718  0.3992
   71MOL   H30025640   2.941   7.598   5.265  1.5465  2.5380 -0.0856
   71MOL   H30125641   2.955   7.504   4.971 -0.4420 -0.0985 -0.5726
   71MOL   H30225642   2.875   7.409   5.081 -1.6570  1.0971 -0.8645
   71MOL   H30325643   2.791   7.702   5.041  2.0581 -0.0971  0.6618
   71MOL   H30425644   2.715   7.596   5.151  0.4965 -0.2637 -0.1641
   71MOL   H30525645   2.656   7.437   4.970  0.2551 -1.9616 -3.8050
   71MOL   H30625646   2.699   7.547   4.844  1.4068  1.0834 -0.2198
   71MOL   H30725647   2.573   7.592   4.955  1.6987  2.5732  0.1062
   71MOL   C30825648   3.040   7.345   5.307  0.6988  0.5815 -0.3666
   71MOL   C30925649   3.138   7.261   5.385  0.4038  0.6401  0.0585
   71MOL   C31025650   3.077   7.124   5.435 -0.2853  0.2047  0.2644
   71MOL   C31125651   3.053   7.015   5.326  0.1030  1.3657  0.0859
   71MOL   C31225652   3.031   6.876   5.374 -0.9156 -0.1822  0.3406
   71MOL   C31325653   3.159   6.799   5.392 -0.3327 -0.0191  0.7059
   71MOL   H31425654   2.967   7.392   5.373  0.2613 -0.2341 -0.2628
   71MOL   H31525655   2.979   7.282   5.242 -1.3355  1.4532  0.6342
   71MOL   H31625656   3.219   7.242   5.314  0.0747  1.2708 -0.5040
   71MOL   H31725657   2.989   7.154   5.493 -0.1374 -0.4852  0.8526
   71MOL   H31825658   3.145   7.082   5.509  0.7534 -0.4350 -1.0458
   71MOL   H31925659   3.131   7.006   5.251 -0.0863 -0.2646  0.0809
   71MOL   H32025660   2.960   7.048   5.278  0.9152  0.2660 -2.3085
   71MOL   H32125661   2.967   6.878   5.463 -2.2389 -1.7380 -0.5635
   71MOL   H32225662   2.972   6.830   5.295  1.6296 -0.0085 -1.7293
   71MOL   H32325663   3.138   6.707   5.446  0.3259 -1.2353 -1.0516
   71MOL   H32425664   3.233   6.849   5.454 -0.1202  0.4047  0.1184
   71MOL   H32525665   3.210   6.770   5.300 -0.9302 -1.2135  0.7388
   71MOL   C32625666   3.210   7.334   5.500 -0.2438 -0.4592 -0.8965
   71MOL   C32725667   3.325   7.258   5.572 -0.0942  0.4266  0.6577
   71MOL   C32825668   3.440   7.222   5.481  0.2981  0.5855 -0.2942
   71MOL   C32925669   3.434   7.098   5.399  0.4123  0.2791 -0.0261
   71MOL   C33025670   3.508   6.984   5.471 -0.2942  0.0825 -0.1517
   71MOL   C33125671   3.523   6.870   5.375 -0.2202  0.0878  0.0587
   71MOL   H33225672   3.143   7.370   5.579  1.3479  0.7977 -0.0843
   71MOL   H33325673   3.245   7.433   5.472  1.0930 -1.3361 -2.3607
   71MOL   H33425674   3.277   7.172   5.618 -0.9993  0.4632 -0.1985
   71MOL   H33525675   3.454   7.298   5.404  0.7492  1.6237  0.7895
   71MOL   H33625676   3.536   7.235   5.531 -1.0447  2.8701  1.7909
   71MOL   H33725677   3.479   7.112   5.300 -0.0757  0.7618 -0.1824
   71MOL   H33825678   3.331   7.067   5.381  0.6488 -0.3152 -0.3868
   71MOL   H33925679   3.602   7.023   5.510  0.0482 -0.2527 -0.6439
   71MOL   H34025680   3.450   6.966   5.562 -3.4186  2.7191 -1.5348
   71MOL   H34125681   3.586   6.901   5.292 -0.0830  0.5067  0.3182
   71MOL   H34225682   3.429   6.849   5.324 -0.8931  0.5533  1.0734
   71MOL   H34325683   3.561   6.780   5.424 -0.3804  0.1167  0.2382
   71MOL   C34425684   3.359   7.348   5.690  0.5637 -0.0945 -0.2580
   71MOL   C34525685   3.458   7.456   5.657 -0.0396 -0.0805  0.3851
   71MOL   C34625686   3.492   7.548   5.777  0.4666  0.1561 -0.8479
   71MOL   C34725687   3.374   7.627   5.840 -0.0559  0.3419 -0.1028
   71MOL   C34825688   3.274   7.697   5.747  0.0864  0.5960  0.1156
   71MOL   C34925689   3.332   0.089   5.674 -0.4428 -0.5107  0.2808
   71MOL   H35025690   3.270   7.385   5.741 -0.7749 -4.2702  0.6854
   71MOL   H35125691   3.398   7.274   5.760  1.7032  0.1308 -0.6600
   71MOL   H35225692   3.424   7.516   5.573 -1.6193 -0.5010  0.7074
   71MOL   H35325693   3.527   7.478   5.853 -1.5589 -1.6309 -1.5057
   71MOL   H35425694   3.575   7.616   5.761 -0.5840  1.0996 -2.4120
   71MOL   H35525695   3.326   7.557   5.909  2.0492 -1.2645 -0.2346
   71MOL   H35625696   3.417   7.704   5.905  1.2599 -0.3046 -0.1977
   71MOL   H35725697   3.248   7.615   5.680  0.3300 -0.6606  1.5191
   71MOL   H35825698   3.180   7.724   5.794  1.8080  3.5930  2.0132
   71MOL   H35925699   3.263   0.131   5.601 -0.6733 -0.8795  0.2906
   71MOL   H36025700   3.358   0.164   5.749 -1.0480 -1.8790  1.8789
   71MOL   H36125701   3.419   0.057   5.616 -0.4147  0.6651 -0.3505
   71MOL   H36225702   3.549   7.413   5.615 -0.8083 -1.6231  0.2492
   72MOL     C125703   5.545   4.086   4.995  0.1627 -0.3774 -0.1913
   72MOL     C225704   5.469   4.075   4.862  0.7323  0.0320 -0.4145
   72MOL     C325705   5.438   4.205   4.790  0.1969 -0.4031 -0.6266
   72MOL     C425706   5.378   4.200   4.654  0.2847  0.3245  0.6133
   72MOL     C525707   5.365   4.352   4.605  0.0528 -0.3107  0.1116
   72MOL     C625708   5.316   4.351   4.462 -0.1241  0.2670 -0.5585
   72MOL     H725709   5.595   3.997   5.034  0.9822  0.6937  1.2512
   72MOL     H825710   5.635   4.148   4.992 -1.2416  1.6485 -1.0946
   72MOL     H925711   5.542   4.026   4.798 -0.5504 -2.8096  0.2268
   72MOL    H1025712   5.534   4.257   4.786 -0.1996  0.3291 -0.6277
   72MOL    H1125713   5.368   4.260   4.853  1.0552  1.4651 -1.2484
   72MOL    H1225714   5.291   4.134   4.652 -0.2624  1.0494  0.3489
   72MOL    H1325715   5.451   4.146   4.594 -0.2222  1.7958 -1.3886
   72MOL    H1425716   5.303   4.417   4.666 -0.0133 -0.0026 -0.2865
   72MOL    H1525717   5.467   4.388   4.618 -0.5895  1.8693 -0.7846
   72MOL    H1625718   5.210   4.329   4.457  0.0443 -0.4895 -0.9533
   72MOL    H1725719   5.367   4.284   4.392  1.2059  0.3758  0.2977
   72MOL    H1825720   5.326   4.445   4.408 -1.2831 -0.5270 -2.2246
   72MOL    H1925721   5.479   4.120   5.075 -1.1256 -0.4913 -1.1859
   72MOL    C2025722   5.342   3.984   4.883  0.7758  0.0290  0.0615
   72MOL    C2125723   5.349   3.855   4.969 -0.2715  0.4166 -0.7287
   72MOL    C2225724   5.209   3.792   4.975 -0.2222 -0.6008 -0.3939
   72MOL    C2325725   5.116   3.864   5.073  0.0169 -0.6889 -0.0250
   72MOL    C2425726   4.976   3.791   5.083 -0.0128 -0.6985  0.6533
   72MOL    C2525727   4.890   3.805   4.958 -0.6558  0.1551  0.7760
   72MOL    H2625728   5.317   3.969   4.778 -0.1277  1.3545  0.0784
   72MOL    H2725729   5.267   4.054   4.920  0.4070  1.1595 -2.6983
   72MOL    H2825730   5.374   3.900   5.065 -0.3699  0.8391 -0.8973
   72MOL    H2925731   5.211   3.690   5.012 -0.4534 -0.8779 -1.1437
   72MOL    H3025732   5.170   3.792   4.873 -1.5641 -1.5977  0.1018
   72MOL    H3125733   5.093   3.964   5.034  0.4420 -1.2914 -1.8611
   72MOL    H3225734   5.162   3.867   5.172 -0.2621 -0.9978  0.1093
   72MOL    H3325735   4.984   3.687   5.112  0.5401 -1.3266 -1.6816
   72MOL    H3425736   4.925   3.843   5.164 -0.5142 -0.2183  0.0359
   72MOL    H3525737   4.796   3.752   4.974  0.4932 -2.4605 -1.0185
   72MOL    H3625738   4.855   3.908   4.950 -2.5667 -0.6110 -1.3214
   72MOL    H3725739   4.933   3.765   4.867  0.5284 -0.0920  1.4385
   72MOL    C3825740   5.466   3.761   4.914 -0.0579 -0.1432  0.4247
   72MOL    C3925741   5.503   3.642   5.002  0.3850  0.0977  0.3988
   72MOL    C4025742   5.613   3.553   4.925  0.4497 -0.7132  0.0480
   72MOL    C4125743   5.583   3.506   4.781  0.1078 -0.3477 -0.6348
   72MOL    C4225744   5.682   3.400   4.740 -0.3123  0.3823 -0.5766
   72MOL    C4325745   5.638   3.326   4.617  0.7008 -0.0690  0.7913
   72MOL    H4425746   5.551   3.816   4.873 -0.2337  0.4231  0.8198
   72MOL    H4525747   5.428   3.720   4.820  2.8036  0.0800 -0.8999
   72MOL    H4625748   5.411   3.585   5.015  1.3823 -2.3625 -2.8527
   72MOL    H4725749   5.707   3.607   4.921  0.4039 -0.5140  1.6786
   72MOL    H4825750   5.626   3.459   4.979  1.0475 -1.4361 -1.3001
   72MOL    H4925751   5.490   3.448   4.775 -0.5773  0.6402  0.2097
   72MOL    H5025752   5.573   3.592   4.716 -2.5392  0.1283  0.3555
   72MOL    H5125753   5.784   3.436   4.723  0.2132  0.0956  1.7226
   72MOL    H5225754   5.689   3.321   4.815  3.5040 -0.2275 -1.4611
   72MOL    H5325755   5.708   3.251   4.581 -0.7146 -1.7034  1.3581
   72MOL    H5425756   5.629   3.394   4.533  1.3005 -0.8545  0.0767
   72MOL    H5525757   5.547   3.269   4.638  0.3528  0.2934  0.2524
   72MOL    C5625758   5.566   3.695   5.133 -0.0141 -0.1391  0.2499
   72MOL    C5725759   5.613   3.581   5.228  0.7393 -0.3898 -0.6077
   72MOL    C5825760   5.495   3.508   5.292 -0.0179 -0.1876  0.0821
   72MOL    C5925761   5.522   3.372   5.347  0.0998  0.2437 -0.5334
   72MOL    C6025762   5.408   3.328   5.438 -0.6348  0.6210  0.7743
   72MOL    C6125763   5.284   3.270   5.356 -0.0048 -0.3725 -0.7329
   72MOL    H6225764   5.648   3.761   5.104  0.1426  0.4984  2.0852
   72MOL    H6325765   5.496   3.756   5.190  1.6552  0.0770  2.0824
   72MOL    H6425766   5.676   3.513   5.171  0.6431 -0.5260 -0.5492
   72MOL    H6525767   5.461   3.568   5.377 -0.4150  0.3826 -0.4679
   72MOL    H6625768   5.416   3.505   5.217  0.8064 -0.6965 -0.7725
   72MOL    H6725769   5.609   3.379   5.412  0.3314 -0.4935 -0.7585
   72MOL    H6825770   5.559   3.303   5.272  2.2588  1.9911 -1.1291
   72MOL    H6925771   5.449   3.251   5.504  0.3017 -0.1464 -0.6971
   72MOL    H7025772   5.373   3.411   5.500 -0.5206  0.1179  1.5223
   72MOL    H7125773   5.300   3.180   5.297 -0.4698 -0.6333 -0.4690
   72MOL    H7225774   5.204   3.241   5.425 -0.2495  1.5282 -0.1952
   72MOL    H7325775   5.249   3.345   5.285  1.1383 -0.9003 -1.8723
   72MOL    C7425776   5.719   3.634   5.332 -0.6277  0.2682  0.3314
   72MOL    C7525777   5.849   3.699   5.275 -0.7885 -0.2697 -0.0124
   72MOL    C7625778   5.877   3.823   5.356 -0.0591  0.1948  0.2372
   72MOL    C7725779   5.787   3.942   5.313 -0.9124  0.6075 -0.1102
   72MOL    C7825780   5.820   4.071   5.391  0.2766 -0.4806  1.3617
   72MOL    C7925781   5.714   4.173   5.403  1.4143  0.5483  0.5609
   72MOL    H8025782   5.663   3.704   5.395  0.4230  1.0151  0.4389
   72MOL    H8125783   5.745   3.557   5.405  1.4296  0.8433  0.2182
   72MOL    H8225784   5.848   3.731   5.171  1.5887 -0.5019 -0.1333
   72MOL    H8325785   5.877   3.797   5.462 -1.6528  1.0428  0.4550
   72MOL    H8425786   5.984   3.842   5.348  0.8695 -4.3337  0.0656
   72MOL    H8525787   5.785   3.960   5.206 -0.5418  3.6521  0.3609
   72MOL    H8625788   5.683   3.911   5.327 -0.5288 -0.5914  0.1086
   72MOL    H8725789   5.911   4.119   5.356  2.0786 -2.3530  3.2782
   72MOL    H8825790   5.844   4.043   5.494 -1.0853 -0.7877  1.6008
   72MOL    H8925791   5.741   4.248   5.478  0.3680 -1.5544  3.1416
   72MOL    H9025792   5.699   4.235   5.315  0.2564 -2.0145 -1.1108
   72MOL    H9125793   5.614   4.135   5.425  0.4022  2.1930 -1.0522
   72MOL    C9225794   5.978   3.610   5.281 -0.0828 -0.0887 -0.0948
   72MOL    C9325795   5.972   3.479   5.201  0.0436 -0.6085 -0.3858
   72MOL    C9425796   5.981   3.513   5.050  0.3413 -0.0009  0.4086
   72MOL    C9525797   6.006   3.389   4.956  0.3192 -0.7050  0.3985
   72MOL    C9625798   6.049   3.440   4.816  0.3532 -0.0625 -0.2392
   72MOL    C9725799   6.062   3.330   4.707 -0.0651  0.1889  0.8822
   72MOL    H9825800   6.067   3.662   5.245  0.1383  0.5003  1.2561
   72MOL    H9925801   5.979   3.583   5.386 -0.1045 -1.1016 -0.3560
   72MOL   H10025802   5.883   3.423   5.229  0.9111 -0.2122  3.3265
   72MOL   H10125803   6.061   3.586   5.034  0.7329 -0.1996  1.4121
   72MOL   H10225804   5.890   3.556   5.009  1.7354  0.7330 -2.0432
   72MOL   H10325805   6.084   3.324   4.994  0.8292  0.0966  0.7417
   72MOL   H10425806   5.916   3.327   4.952  1.5010 -2.4208 -0.1183
   72MOL   H10525807   5.980   3.518   4.784  1.3173  0.5329 -0.8893
   72MOL   H10625808   6.133   3.509   4.829 -1.3166  1.5304  2.3642
   72MOL   H10725809   6.070   3.366   4.605  2.1856 -0.5853  0.7702
   72MOL   H10825810   6.144   3.260   4.722 -0.6490 -0.5602  0.6012
   72MOL   H10925811   5.974   3.265   4.713  1.1918 -1.8078 -1.3804
   72MOL   C11025812   6.095   3.385   5.250 -0.6963  0.4512 -0.5750
   72MOL   C11125813   6.104   3.355   5.411  0.7197  0.3554  0.3331
   72MOL   C11225814   6.223   3.438   5.472 -0.2857  0.1064  0.2348
   72MOL   C11325815   6.233   3.453   5.627 -0.6010 -1.0296  0.0729
   72MOL   C11425816   6.102   3.485   5.703  0.2928 -0.7449 -0.3363
   72MOL   C11525817   6.065   3.635   5.682  0.3442 -0.1105 -0.2118
   72MOL   H11625818   6.093   3.293   5.191 -2.9758  0.4647 -0.5573
   72MOL   H11725819   6.194   3.411   5.210  0.8666 -2.4729  1.2107
   72MOL   H11825820   6.006   3.379   5.451  0.7738  1.0129  0.0784
   72MOL   H11925821   6.206   3.541   5.441 -2.9134 -0.0386  1.0928
   72MOL   H12025822   6.319   3.401   5.437  0.2166  0.0059  1.7005
   72MOL   H12125823   6.309   3.528   5.651 -1.7496  0.1356  0.0895
   72MOL   H12225824   6.275   3.359   5.664  1.2237 -0.0468  0.5904
   72MOL   H12325825   6.126   3.459   5.806 -0.3644  0.1637  0.0535
   72MOL   H12425826   6.018   3.426   5.668 -2.0906  1.4821  1.4043
   72MOL   H12525827   6.016   3.666   5.775 -1.4300  1.3807 -1.6207
   72MOL   H12625828   6.148   3.706   5.678 -0.4033  0.9980  2.5115
   72MOL   H12725829   5.991   3.649   5.604 -0.8158  0.8116  1.0202
   72MOL   C12825830   6.138   3.204   5.449  0.6382  0.1624 -0.4634
   72MOL   C12925831   6.017   3.108   5.428  0.5511  0.2269 -0.4448
   72MOL   C13025832   5.928   3.108   5.556  0.0117 -0.2003 -0.3680
   72MOL   C13125833   5.786   3.052   5.519 -0.2655  0.2823  0.1671
   72MOL   C13225834   5.704   3.032   5.653 -0.3619 -0.6143  0.4359
   72MOL   C13325835   5.578   2.952   5.633 -0.6103  0.1468  0.1181
   72MOL   H13425836   6.159   3.193   5.556 -1.9631 -1.8788 -0.1309
   72MOL   H13525837   6.225   3.178   5.388  0.2282 -0.1456 -0.9162
   72MOL   H13625838   5.967   3.143   5.338 -0.7183 -1.1674 -0.2961
   72MOL   H13725839   5.975   3.056   5.640  0.5977  1.3077  0.2623
   72MOL   H13825840   5.917   3.208   5.599 -3.7238  1.1289 -4.1735
   72MOL   H13925841   5.797   2.958   5.466  1.6217  0.3855  0.3375
   72MOL   H14025842   5.742   3.122   5.448 -1.8113 -0.4861  0.3661
   72MOL   H14125843   5.758   2.980   5.732 -0.7931 -0.2344  0.9875
   72MOL   H14225844   5.666   3.125   5.698  1.4210 -0.1310  0.9641
   72MOL   H14325845   5.529   2.920   5.724 -1.4264  1.4059  0.1442
   72MOL   H14425846   5.604   2.858   5.585  1.0613  0.9607 -0.5791
   72MOL   H14525847   5.503   2.998   5.567  0.0374 -2.5207 -2.5913
   72MOL   C14625848   6.074   2.965   5.407  0.0027 -0.1739  0.3215
   72MOL   C14725849   6.111   2.924   5.262  0.0413 -1.2013 -0.1948
   72MOL   C14825850   5.987   2.912   5.177  0.3332  0.5061  0.2142
   72MOL   C14925851   6.007   2.947   5.030  0.4767  0.6383  0.4541
   72MOL   C15025852   5.879   2.907   4.948 -0.2090 -0.1779  0.5235
   72MOL   C15125853   5.885   2.913   4.794  0.3255 -0.1256 -0.2279
   72MOL   H15225854   6.169   2.962   5.461 -0.5867 -0.7166  1.3307
   72MOL   H15325855   6.008   2.890   5.451  0.5722 -0.1591  1.2131
   72MOL   H15425856   6.163   3.009   5.217 -1.2296  0.2800  1.1359
   72MOL   H15525857   5.918   2.985   5.218  0.8767  2.1630 -1.7643
   72MOL   H15625858   5.940   2.813   5.179  1.5283 -0.0837 -0.0681
   72MOL   H15725859   6.031   3.053   5.018 -0.1167  0.6725 -0.4829
   72MOL   H15825860   6.099   2.894   5.005  0.0230 -0.0895  0.3266
   72MOL   H15925861   5.803   2.979   4.977  0.0030  0.3338 -0.1740
   72MOL   H16025862   5.849   2.808   4.980  2.0579 -0.5963  1.4638
   72MOL   H16125863   5.938   2.827   4.752 -1.1013 -0.4381 -1.4128
   72MOL   H16225864   5.785   2.897   4.754 -0.9143  1.2073  2.1904
   72MOL   H16325865   5.928   3.007   4.760  0.8872  0.3532  1.7339
   72MOL   C16425866   6.214   2.817   5.252  0.6528 -0.1733  0.2495
   72MOL   C16525867   6.167   2.679   5.306 -0.2385  0.4719 -0.3899
   72MOL   C16625868   6.180   2.562   5.196  0.7981  0.1391 -0.0552
   72MOL   C16725869   6.083   2.565   5.080 -0.0883 -0.3952  0.6373
   72MOL   C16825870   6.092   2.448   4.980  0.0386 -0.6363 -0.5465
   72MOL   C16925871   5.991   2.471   4.864 -0.5054 -0.2029  0.1341
   72MOL   H17025872   6.249   2.804   5.149  2.2077 -6.5168  1.3717
   72MOL   H17125873   6.309   2.858   5.286  1.7932 -1.1448 -1.6507
   72MOL   H17225874   6.064   2.672   5.343 -1.1151 -1.1460 -3.0059
   72MOL   H17325875   6.166   2.462   5.237  0.1930  0.3670  0.2869
   72MOL   H17425876   6.284   2.562   5.161  0.7336 -0.0416 -0.2497
   72MOL   H17525877   6.115   2.655   5.027  0.8041  0.0491  1.9049
   72MOL   H17625878   5.980   2.576   5.113 -0.1609  0.3260  0.1680
   72MOL   H17725879   6.082   2.349   5.025 -1.7651 -0.9910 -1.6918
   72MOL   H17825880   6.191   2.447   4.933 -0.1446  0.0820 -0.9486
   72MOL   H17925881   5.890   2.439   4.892 -0.8699 -0.0408 -0.9592
   72MOL   H18025882   6.021   2.399   4.787  0.4316  0.1592  0.1596
   72MOL   H18125883   6.011   2.573   4.833 -2.9298  0.0945 -0.5602
   72MOL   C18225884   6.262   2.653   5.427 -0.4708  0.3688 -0.6937
   72MOL   C18325885   6.242   2.530   5.515 -0.0910 -0.1633 -0.1407
   72MOL   C18425886   6.098   2.506   5.566  0.1713 -0.2993 -0.0341
   72MOL   C18525887   6.028   2.626   5.628  0.3864  0.4530 -0.3760
   72MOL   C18625888   5.878   2.597   5.654  0.1533 -0.7645 -0.0799
   72MOL   C18725889   5.793   2.623   5.531  0.9291 -0.4340  0.6402
   72MOL   H18825890   6.364   2.650   5.389 -1.1103  0.9256 -2.5293
   72MOL   H18925891   6.265   2.737   5.496  2.9369 -0.3430  0.0821
   72MOL   H19025892   6.254   2.438   5.456  1.0447  0.0426 -0.2392
   72MOL   H19125893   6.048   2.454   5.484  1.8701  0.1609 -1.3943
   72MOL   H19225894   6.092   2.434   5.648 -1.2076 -1.1386 -0.8463
   72MOL   H19325895   6.035   2.709   5.558 -1.2319  1.8708  1.1092
   72MOL   H19425896   6.077   2.660   5.719 -0.5840 -1.4708  0.9172
   72MOL   H19525897   5.840   2.667   5.728  2.3970  1.2320 -0.7660
   72MOL   H19625898   5.858   2.495   5.687 -3.2708  0.2265  0.9925
   72MOL   H19725899   5.822   2.558   5.448 -1.9095 -0.5799 -0.3057
   72MOL   H19825900   5.801   2.715   5.474 -2.3778 -0.8696 -0.6491
   72MOL   H19925901   5.688   2.608   5.556  0.9150 -0.3351  0.6360
   72MOL   C20025902   6.351   2.526   5.630 -0.2218  0.2967 -0.2108
   72MOL   C20125903   6.482   2.455   5.595 -0.5530  0.3395  0.1715
   72MOL   C20225904   6.603   2.515   5.671 -0.5631 -0.4303  0.3218
   72MOL   C20325905   6.613   2.476   5.820 -0.6059 -0.0377 -1.0190
   72MOL   C20425906   6.753   2.503   5.881 -0.6610 -0.2808  0.1996
   72MOL   C20525907   6.777   2.653   5.898  0.4012  0.6830 -0.4644
   72MOL   H20625908   6.311   2.472   5.716  2.3656 -0.9084  0.3089
   72MOL   H20725909   6.368   2.629   5.662  0.7214  0.5926 -1.6376
   72MOL   H20825910   6.491   2.488   5.492 -2.3922  1.3446  0.3045
   72MOL   H20925911   6.606   2.622   5.655 -1.9593 -0.3920  0.2213
   72MOL   H21025912   6.685   2.466   5.618 -0.1190 -0.2477  0.8367
   72MOL   H21125913   6.599   2.368   5.826  0.8902 -0.1338  1.0604
   72MOL   H21225914   6.530   2.527   5.867  0.5276 -0.1222  1.1361
   72MOL   H21325915   6.834   2.455   5.826  0.1791  2.1095 -0.7360
   72MOL   H21425916   6.765   2.454   5.977  1.9863  0.9026  0.5144
   72MOL   H21525917   6.692   2.711   5.932  1.2605  1.2867  0.7016
   72MOL   H21625918   6.849   2.657   5.980 -0.7034 -0.3310  0.5671
   72MOL   H21725919   6.807   2.699   5.804 -0.1324 -0.8981 -1.4348
   72MOL   C21825920   6.463   2.302   5.596 -0.1150 -0.8523  0.3892
   72MOL   C21925921   6.573   2.225   5.518 -0.0173  0.2084  0.0472
   72MOL   C22025922   6.563   2.243   5.366 -0.4482  0.3979 -0.1801
   72MOL   C22125923   6.441   2.186   5.289  0.4077 -0.1378  0.1446
   72MOL   C22225924   6.448   2.179   5.144 -0.5312  0.2870  0.4168
   72MOL   C22325925   6.518   2.302   5.089 -0.4310 -0.7008 -0.2112
   72MOL   H22425926   6.458   2.265   5.698  1.2170  0.2632  0.8796
   72MOL   H22525927   6.372   2.276   5.542  0.1679  1.3699 -1.2344
   72MOL   H22625928   6.671   2.259   5.551 -0.3146 -0.2757  1.4642
   72MOL   H22725929   6.652   2.193   5.330  1.2151  1.4883  2.2770
   72MOL   H22825930   6.565   2.349   5.340 -0.6270  0.2929 -0.6250
   72MOL   H22925931   6.352   2.242   5.317 -0.8374 -0.9797 -2.0325
   72MOL   H23025932   6.405   2.087   5.320 -1.8530  0.7586  0.4486
   72MOL   H23125933   6.497   2.086   5.114 -1.2999 -0.0763  0.2520
   72MOL   H23225934   6.347   2.167   5.105 -0.7405 -1.0366  1.3137
   72MOL   H23325935   6.624   2.308   5.114 -0.3546 -2.0070 -0.1652
   72MOL   H23425936   6.480   2.399   5.119  1.4779  0.0998 -0.2844
   72MOL   H23525937   6.507   2.295   4.980 -1.5057  0.2491 -0.1767
   72MOL   C23625938   6.586   2.078   5.561 -0.3408  0.5953  0.6870
   72MOL   C23725939   6.654   2.049   5.700  0.8321 -1.2339 -0.7520
   72MOL   C23825940   6.802   2.080   5.712 -0.2807 -0.2348  0.4846
   72MOL   C23925941   6.901   1.992   5.625 -0.0283  0.0777  0.5971
   72MOL   C24025942   7.045   2.047   5.619 -0.1862  0.3953  0.4609
   72MOL   C24125943   7.120   1.955   5.522  0.4481 -0.2613 -0.5085
   72MOL   H24225944   6.479   2.055   5.557  0.1269 -1.3706 -2.2721
   72MOL   H24325945   6.632   2.014   5.486 -1.3078  2.5156 -1.6286
   72MOL   H24425946   6.609   2.111   5.777  0.5410 -2.4534  0.0655
   72MOL   H24525947   6.813   2.186   5.686 -1.6048 -0.6691 -1.9859
   72MOL   H24625948   6.839   2.072   5.814 -1.7127  0.8298  1.1063
   72MOL   H24725949   6.860   1.987   5.525  0.6016 -0.6477  0.3745
   72MOL   H24825950   6.898   1.895   5.673 -1.1413 -1.1656 -1.9175
   72MOL   H24925951   7.040   2.151   5.587  1.8541  0.2005 -0.5697
   72MOL   H25025952   7.088   2.046   5.719  0.1742  0.8863  0.3180
   72MOL   H25125953   7.086   1.947   5.419 -1.5214 -1.2510  0.2028
   72MOL   H25225954   7.218   2.001   5.507 -0.1000  0.7096 -1.1601
   72MOL   H25325955   7.140   1.856   5.562  2.6247 -0.0645 -1.0361
   72MOL   C25425956   6.626   1.900   5.732  1.0983 -0.8915 -0.7508
   72MOL   C25525957   6.492   1.871   5.793 -0.7586  0.3005 -0.1912
   72MOL   C25625958   6.514   1.802   5.928 -0.0423  0.2902  0.1160
   72MOL   C25725959   6.573   1.880   6.053 -0.1634 -0.2334  0.2459
   72MOL   C25825960   6.514   1.843   6.187 -0.0322  0.2817  0.1143
   72MOL   C25925961   6.545   1.696   6.222 -0.2061  0.7111  0.5417
   72MOL   H26025962   6.698   1.873   5.809  0.8277  0.2460 -0.0928
   72MOL   H26125963   6.654   1.825   5.658 -0.3291 -0.6410 -1.5725
   72MOL   H26225964   6.455   1.972   5.811  0.6916  1.0230 -1.0914
   72MOL   H26325965   6.416   1.761   5.955 -0.3014  0.4391 -0.6010
   72MOL   H26425966   6.568   1.707   5.918 -0.2212  0.3303 -1.2567
   72MOL   H26525967   6.681   1.882   6.058 -0.0860  0.2258 -1.5963
   72MOL   H26625968   6.539   1.982   6.038  2.4523  0.1951 -3.1900
   72MOL   H26725969   6.408   1.867   6.185 -0.2513 -0.4250  1.9839
   72MOL   H26825970   6.549   1.909   6.266 -0.3318  0.8670 -0.2485
   72MOL   H26925971   6.648   1.688   6.256  0.0635 -1.4493 -0.6880
   72MOL   H27025972   6.535   1.624   6.141 -2.3405 -1.8411  2.9609
   72MOL   H27125973   6.471   1.655   6.292  0.5745  0.2625  1.1235
   72MOL   C27225974   6.400   1.786   5.698  0.1772  0.7000 -0.6463
   72MOL   C27325975   6.245   1.771   5.729 -0.3781 -0.1644  1.4948
   72MOL   C27425976   6.211   1.616   5.695  0.5220  0.6460 -0.2042
   72MOL   C27525977   6.076   1.565   5.746  0.5209 -0.1788  0.2077
   72MOL   C27625978   6.056   1.413   5.731  0.5624 -0.2134 -0.2992
   72MOL   C27725979   5.905   1.379   5.744 -0.7610  0.4700  0.1241
   72MOL   H27825980   6.421   1.827   5.600  0.8556 -0.2190 -0.8885
   72MOL   H27925981   6.458   1.694   5.696 -0.0767  0.5086  0.3428
   72MOL   H28025982   6.242   1.783   5.838 -0.8121 -0.2977  1.4956
   72MOL   H28125983   6.289   1.553   5.737  0.4507 -0.6828 -2.0151
   72MOL   H28225984   6.207   1.587   5.590  0.9899 -0.4013  0.0661
   72MOL   H28325985   5.998   1.621   5.695  0.3850 -2.2537 -1.9511
   72MOL   H28425986   6.066   1.582   5.853  0.5819  1.3864 -0.0327
   72MOL   H28525987   6.079   1.389   5.627 -1.4553  0.3176 -0.8919
   72MOL   H28625988   6.120   1.345   5.787  0.2454  1.0764  1.6844
   72MOL   H28725989   5.847   1.438   5.673  2.0278  2.0276 -0.9624
   72MOL   H28825990   5.886   1.275   5.719  0.6633 -0.0000  0.9108
   72MOL   H28925991   5.876   1.417   5.842 -0.1622  1.2827 -0.0045
   72MOL   C29025992   6.156   1.870   5.642 -0.0102  0.5733 -0.0446
   72MOL   C29125993   6.152   2.015   5.696 -0.7833 -0.3300  0.2315
   72MOL   C29225994   6.103   2.119   5.591 -0.6440  0.3702 -0.3489
   72MOL   C29325995   5.966   2.093   5.523  0.0946  1.3263  0.2087
   72MOL   C29425996   5.942   2.177   5.393 -0.8244 -0.0045 -0.1151
   72MOL   C29525997   6.019   2.137   5.264 -0.3632 -0.5493  0.3332
   72MOL   H29625998   6.052   1.839   5.629 -0.3641  1.2878  1.0367
   72MOL   H29725999   6.197   1.869   5.541  0.1927 -0.7096  0.0366
   72MOL   H29826000   6.257   2.042   5.710 -1.2538  0.3626  2.6165
   72MOL   H29926001   6.176   2.124   5.510 -0.2345 -1.3613 -0.1031
   72MOL   H30026002   6.104   2.222   5.629 -0.1462  0.3886 -0.4075
   72MOL   H30126003   5.961   1.988   5.495  0.7483  1.1194  0.8638
   72MOL   H30226004   5.890   2.094   5.601 -1.8689  1.0243 -1.6347
   72MOL   H30326005   5.957   2.279   5.431 -1.6559  0.0854 -0.0086
   72MOL   H30426006   5.837   2.161   5.366 -1.4214  1.1738  1.3729
   72MOL   H30526007   5.998   2.192   5.173 -1.8708 -1.8099 -0.0975
   72MOL   H30626008   5.992   2.034   5.243 -1.7912 -0.0997 -0.1172
   72MOL   H30726009   6.127   2.132   5.281 -0.5046  1.1559  2.0114
   72MOL   C30826010   6.086   2.039   5.835  0.5273  0.4666  0.3663
   72MOL   C30926011   6.119   2.174   5.909 -0.0074  0.1305  0.9005
   72MOL   C31026012   6.268   2.173   5.954  0.0638  0.6302 -0.3637
   72MOL   C31126013   6.312   2.300   6.021  0.2902  0.2845 -0.1520
   72MOL   C31226014   6.454   2.273   6.090 -0.0217 -0.0149  0.8794
   72MOL   C31326015   6.494   2.391   6.166  0.0068  0.2007  0.7149
   72MOL   H31426016   5.978   2.026   5.826  1.1662 -4.7360 -1.7343
   72MOL   H31526017   6.110   1.952   5.896 -0.8238  0.4552  0.9149
   72MOL   H31626018   6.101   2.250   5.834 -0.3843  0.5192  1.3862
   72MOL   H31726019   6.326   2.155   5.863 -0.4818  0.8237 -0.7518
   72MOL   H31826020   6.288   2.086   6.017 -3.3320 -1.1017 -1.5353
   72MOL   H31926021   6.233   2.325   6.093 -0.4642  0.8363 -1.1480
   72MOL   H32026022   6.329   2.382   5.952 -0.2973  0.0872 -0.5446
   72MOL   H32126023   6.452   2.184   6.152  0.5791  0.0120  0.9408
   72MOL   H32226024   6.538   2.251   6.023 -1.5624  0.2928 -1.2182
   72MOL   H32326025   6.603   2.385   6.178  0.0850  1.8314  0.8348
   72MOL   H32426026   6.436   2.403   6.257 -0.9067  2.5739 -0.1518
   72MOL   H32526027   6.472   2.471   6.096 -2.0491 -1.1797 -0.2633
   72MOL   C32626028   6.018   2.187   6.028 -0.4762  0.3176  0.3699
   72MOL   C32726029   5.913   2.297   6.015  0.5468 -0.0400  0.6773
   72MOL   C32826030   5.974   2.434   6.018  0.3299  0.1863  0.3431
   72MOL   C32926031   5.898   2.554   6.067 -0.0506  0.0540  0.3651
   72MOL   C33026032   5.973   2.687   6.067 -0.3499  0.8748 -0.1606
   72MOL   C33126033   5.885   2.811   6.096 -0.7838 -1.3767  0.0710
   72MOL   H33226034   6.057   2.202   6.129 -1.3572  1.7417  0.5223
   72MOL   H33326035   5.955   2.099   6.040 -1.2168  0.7830 -0.0437
   72MOL   H33426036   5.847   2.292   6.101 -0.9971  0.1115 -0.4740
   72MOL   H33526037   6.055   2.440   6.091  0.9594  1.9090 -0.4620
   72MOL   H33626038   6.016   2.450   5.919 -2.0562 -0.6935 -0.8333
   72MOL   H33726039   5.863   2.534   6.168  0.1494 -0.7740  0.2700
   72MOL   H33826040   5.805   2.567   6.011  0.7051 -0.7934 -1.1275
   72MOL   H33926041   6.049   2.668   6.143 -0.5001 -0.9161 -0.4308
   72MOL   H34026042   6.032   2.720   5.982  1.6681  1.2890  1.3668
   72MOL   H34126043   5.809   2.831   6.021 -1.4249 -0.5079  0.9294
   72MOL   H34226044   5.957   2.894   6.103 -0.7940 -1.2685 -1.0380
   72MOL   H34326045   5.841   2.802   6.196 -0.3443  1.8633  0.6472
   72MOL   C34426046   5.810   2.283   5.900  0.5163 -0.6003 -0.0073
   72MOL   C34526047   5.714   2.169   5.912  0.3690  0.1165 -0.0389
   72MOL   C34626048   5.588   2.184   5.826 -0.0756 -0.5128  0.7661
   72MOL   C34726049   5.616   2.146   5.682  0.0797 -0.6890  0.0214
   72MOL   C34826050   5.485   2.122   5.606  0.6693 -0.0996  0.4853
   72MOL   C34926051   5.438   1.981   5.638  1.0900 -0.2984 -0.1651
   72MOL   H35026052   5.755   2.376   5.885  0.1040 -0.7798  0.3961
   72MOL   H35126053   5.860   2.265   5.804 -0.7696 -0.0627 -0.7899
   72MOL   H35226054   5.680   2.148   6.014 -0.3201  0.6389 -0.1547
   72MOL   H35326055   5.501   2.137   5.872 -0.9021 -0.1913 -0.4262
   72MOL   H35426056   5.557   2.288   5.837  0.6472 -0.3178  0.9824
   72MOL   H35526057   5.677   2.220   5.630 -1.9052 -0.4005 -1.9465
   72MOL   H35626058   5.675   2.055   5.671  0.3159 -0.4453 -0.7530
   72MOL   H35726059   5.410   2.200   5.624  0.6856 -0.3336  1.5899
   72MOL   H35826060   5.519   2.130   5.503  1.4108 -2.0952  0.5578
   72MOL   H35926061   5.350   1.961   5.577  1.4706 -0.3623 -0.7024
   72MOL   H36026062   5.504   1.900   5.609  2.6643  0.3930  1.3813
   72MOL   H36126063   5.413   1.965   5.743 -0.8998 -2.0688 -0.8624
   72MOL   H36226064   5.762   2.073   5.893 -0.6660 -0.6515  1.0362
   73MOL     C126065   1.840   7.504   6.016  0.7077  0.5670  0.4953
   73MOL     C226066   1.752   7.540   5.902  0.0802 -0.3256 -0.0458
   73MOL     C326067   1.701   7.686   5.897 -0.2838 -0.9657  0.2928
   73MOL     C426068   1.682   0.019   5.759  0.7692  0.1559 -0.0101
   73MOL     C526069   1.632   0.166   5.765 -0.6536  0.7808  0.1004
   73MOL     C626070   1.742   0.280   5.794 -0.2970  1.0069  0.2259
   73MOL     H726071   1.931   7.564   6.017  0.7040  0.5701  1.8555
   73MOL     H826072   1.794   7.530   6.111  0.8611  1.8838  0.2239
   73MOL     H926073   1.820   7.523   5.819 -0.2195 -5.2125  0.5427
   73MOL    H1026074   1.773   0.026   5.945 -1.6893  1.9579 -1.5598
   73MOL    H1126075   1.614   7.692   5.962 -1.3926 -0.9710 -1.1844
   73MOL    H1226076   1.620   7.678   5.701 -1.2242  1.2451  0.7799
   73MOL    H1326077   1.776   0.029   5.704  0.9106 -1.3214 -0.0540
   73MOL    H1426078   1.587   0.194   5.669  0.3988  1.2037 -0.2770
   73MOL    H1526079   1.553   0.171   5.839 -1.3560  0.9234 -0.6485
   73MOL    H1626080   1.687   0.374   5.782 -0.3600  0.8646 -0.6575
   73MOL    H1726081   1.820   0.278   5.717  0.6724  0.5954  1.2176
   73MOL    H1826082   1.787   0.278   5.893 -2.7433 -1.4826  1.3600
   73MOL    H1926083   1.866   7.398   6.010 -0.7370  0.0842  2.4746
   73MOL    C2026084   1.636   7.441   5.883  0.0230  0.3338 -0.3717
   73MOL    C2126085   1.675   7.319   5.797 -0.4671  0.6091 -0.6472
   73MOL    C2226086   1.570   7.202   5.823  0.2295 -0.1415 -0.0601
   73MOL    C2326087   1.568   7.146   5.970  0.4100 -0.7526 -1.0336
   73MOL    C2426088   1.702   7.106   6.027  0.4924 -0.0256 -0.5544
   73MOL    C2526089   1.705   7.044   6.161  0.1641 -0.1030  0.7055
   73MOL    H2626090   1.563   7.497   5.825  0.7707  1.1094 -0.5712
   73MOL    H2726091   1.598   7.438   5.985 -2.9607  1.1775 -1.4318
   73MOL    H2826092   1.773   7.282   5.826 -0.5525  2.5875  2.2685
   73MOL    H2926093   1.597   7.120   5.758 -0.1602  0.0769 -0.4984
   73MOL    H3026094   1.471   7.228   5.786  0.4412  0.1798 -0.4131
   73MOL    H3126095   1.493   7.067   5.971  1.8035 -2.1198  1.9555
   73MOL    H3226096   1.527   7.222   6.036  2.6420  0.6476 -1.1971
   73MOL    H3326097   1.761   7.055   5.951 -1.0951 -1.6694 -0.6991
   73MOL    H3426098   1.749   7.203   6.048 -2.6852  1.5306 -0.3595
   73MOL    H3526099   1.679   6.938   6.167 -2.4847  0.3706 -1.6609
   73MOL    H3626100   1.805   7.056   6.203 -0.3189  2.5266  1.1922
   73MOL    H3726101   1.648   7.110   6.226 -1.1890 -0.7965  0.2545
   73MOL    C3826102   1.681   7.356   5.648 -0.1596  0.5835 -0.2233
   73MOL    C3926103   1.799   7.293   5.571 -0.2854 -0.1027 -0.3731
   73MOL    C4026104   1.761   7.297   5.424 -0.0742 -0.2896  0.0406
   73MOL    C4126105   1.656   7.201   5.370 -0.2850  0.8454  0.3925
   73MOL    C4226106   1.644   7.191   5.215  0.1533 -0.2701  0.6395
   73MOL    C4326107   1.542   7.090   5.182 -0.2449  0.8340 -0.1958
   73MOL    H4426108   1.697   7.464   5.650 -1.9854  0.9077 -1.6740
   73MOL    H4526109   1.583   7.342   5.604 -0.4972 -0.8075  0.9419
   73MOL    H4626110   1.809   7.189   5.604  0.0399  0.5006  1.5390
   73MOL    H4726111   1.726   7.400   5.417  0.0472 -0.1403  1.5275
   73MOL    H4826112   1.844   7.294   5.352 -1.0981 -2.0662 -1.1121
   73MOL    H4926113   1.685   7.107   5.417 -3.5633  0.6861  2.2993
   73MOL    H5026114   1.563   7.229   5.421 -0.5092  1.8094 -0.5324
   73MOL    H5126115   1.623   7.292   5.180  1.0795 -0.6294 -1.0233
   73MOL    H5226116   1.736   7.163   5.164  1.8701  3.4962  1.5131
   73MOL    H5326117   1.436   7.114   5.189 -0.0217  1.7251  0.1411
   73MOL    H5426118   1.553   6.992   5.229 -0.6780  1.1060  0.4741
   73MOL    H5526119   1.559   7.075   5.075 -0.8599  0.6663 -0.2746
   73MOL    C5626120   1.936   7.370   5.597 -0.3971 -0.5477 -0.1686
   73MOL    C5726121   2.067   7.289   5.555  0.2067  0.2419  0.4996
   73MOL    C5826122   2.099   7.176   5.658 -0.0289  0.4320 -0.1443
   73MOL    C5926123   2.136   7.220   5.799  0.0196 -0.8058  0.1628
   73MOL    C6026124   2.165   7.099   5.888  0.0637 -0.1160  0.4578
   73MOL    C6126125   2.193   7.142   6.036  0.2047  0.0269  0.6286
   73MOL    H6226126   1.942   7.454   5.528  0.7980 -1.1428 -0.7961
   73MOL    H6326127   1.955   7.408   5.697  1.9748  0.3554 -0.9300
   73MOL    H6426128   2.045   7.246   5.457 -0.5583 -0.5679  1.0188
   73MOL    H6526129   2.012   7.112   5.670  1.4502 -1.3062  1.5197
   73MOL    H6626130   2.177   7.111   5.620  1.3988 -1.3629  5.3030
   73MOL    H6726131   2.051   7.273   5.841  0.6128  0.4888 -0.2427
   73MOL    H6826132   2.212   7.298   5.792 -1.0056  0.8422  5.2554
   73MOL    H6926133   2.088   7.023   5.876  0.1592  0.0655 -1.3290
   73MOL    H7026134   2.256   7.053   5.850  0.3724 -1.2963  2.5415
   73MOL    H7126135   2.196   7.057   6.104 -0.7952 -0.9729 -0.5486
   73MOL    H7226136   2.276   7.209   6.058  0.9105  0.0358 -1.9010
   73MOL    H7326137   2.108   7.204   6.066  0.7050  0.2216  1.6315
   73MOL    C7426138   2.191   7.380   5.530  0.2142  0.3625 -0.2108
   73MOL    C7526139   2.207   7.434   5.390 -0.4645 -0.9606  0.3802
   73MOL    C7626140   2.303   7.563   5.385  0.0232  0.8333 -0.0921
   73MOL    C7726141   2.239   7.696   5.434 -0.6499  0.1568  0.2276
   73MOL    C7826142   2.314   0.098   5.433  0.0281  0.6435 -0.0021
   73MOL    C7926143   2.232   0.219   5.475 -0.5563  0.3799 -0.3371
   73MOL    H8026144   2.190   7.463   5.600 -0.9599  0.0683  0.1233
   73MOL    H8126145   2.279   7.318   5.550 -1.0104 -1.4000 -0.1817
   73MOL    H8226146   2.104   7.466   5.375  0.1067  1.3997  1.1999
   73MOL    H8326147   2.402   7.551   5.430 -0.0368  1.2904  0.1614
   73MOL    H8426148   2.332   7.572   5.280 -0.6525  0.1651 -0.3374
   73MOL    H8526149   2.147   7.722   5.381 -0.0665  1.3566 -0.2166
   73MOL    H8626150   2.210   7.677   5.538  0.6452  0.1062  0.5918
   73MOL    H8726151   2.344   0.118   5.330 -0.8253  1.6881 -0.0635
   73MOL    H8826152   2.399   0.085   5.499  1.6667 -0.9445 -2.3335
   73MOL    H8926153   2.286   0.309   5.448 -0.9638  0.6220 -0.3468
   73MOL    H9026154   2.137   0.223   5.421 -1.4219 -0.9940  1.0529
   73MOL    H9126155   2.204   0.227   5.580  0.7764  0.3495  0.0287
   73MOL    C9226156   2.242   7.328   5.289 -0.1779  0.2845  0.7753
   73MOL    C9326157   2.194   7.366   5.146  0.0618 -0.1067 -0.9177
   73MOL    C9426158   2.275   7.284   5.043  0.3661  0.4446  0.6600
   73MOL    C9526159   2.267   7.133   5.066 -0.1329  0.3765 -0.4268
   73MOL    C9626160   2.318   7.064   4.944 -0.3991 -0.1607  0.2532
   73MOL    C9726161   2.319   6.914   4.961 -0.0833 -0.2652 -0.0001
   73MOL    H9826162   2.349   7.306   5.288 -0.6877 -2.3309 -1.4539
   73MOL    H9926163   2.199   7.233   5.320 -0.4323 -0.0673 -0.6239
   73MOL   H10026164   2.223   7.470   5.131 -0.3019  0.3653  1.4526
   73MOL   H10126165   2.382   7.304   5.048  1.0435 -1.9063 -2.4713
   73MOL   H10226166   2.245   7.311   4.941 -0.2567  2.1330  1.2772
   73MOL   H10326167   2.313   7.105   5.161 -0.2315  0.8375 -0.2434
   73MOL   H10426168   2.164   7.103   5.084 -0.4470  1.2904 -0.6910
   73MOL   H10526169   2.250   7.094   4.864 -0.1992  0.8219  0.4444
   73MOL   H10626170   2.418   7.106   4.933 -0.2049 -1.0490 -1.5786
   73MOL   H10726171   2.227   6.856   4.951  0.2221 -0.5927 -0.9732
   73MOL   H10826172   2.390   6.878   4.887 -1.0225  0.0061 -1.0441
   73MOL   H10926173   2.366   6.883   5.054 -1.2049  0.2174  0.7339
   73MOL   C11026174   2.044   7.361   5.121  0.6389 -0.4946 -0.1629
   73MOL   C11126175   1.984   7.404   4.975  0.6859 -0.0542  0.2299
   73MOL   C11226176   2.047   7.542   4.929  0.2231 -0.5256  0.2357
   73MOL   C11326177   1.998   7.655   5.013  0.1626  0.0645 -0.1968
   73MOL   C11426178   2.075   0.064   4.996 -0.0104  0.6707 -0.3855
   73MOL   C11526179   2.219   0.080   5.060  0.3929 -0.6389 -0.8203
   73MOL   H11626180   2.014   7.256   5.131  1.1438 -0.6421 -0.2171
   73MOL   H11726181   1.984   7.416   5.193  0.6336  0.5951 -0.9904
   73MOL   H11826182   2.010   7.324   4.905 -0.1702 -0.6220  0.5577
   73MOL   H11926183   2.022   7.570   4.827 -0.7355  0.4485  0.7238
   73MOL   H12026184   2.156   7.536   4.926  0.1189 -2.2244 -0.9260
   73MOL   H12126185   2.007   7.625   5.118 -3.1037  2.7697  0.9415
   73MOL   H12226186   1.891   7.671   5.010  0.1657  0.7719  2.0976
   73MOL   H12326187   2.012   0.134   5.051  1.7780  0.3405  2.1810
   73MOL   H12426188   2.084   0.102   4.895 -0.2627  1.1115 -0.2450
   73MOL   H12526189   2.260   0.168   5.010  0.1802 -0.2903 -0.3818
   73MOL   H12626190   2.210   0.100   5.167 -0.7671  1.9077 -1.3510
   73MOL   H12726191   2.297   0.007   5.038 -1.0710 -1.7009 -2.6427
   73MOL   C12826192   1.831   7.400   4.977 -0.1844 -0.7359 -0.0624
   73MOL   C12926193   1.759   7.460   4.854 -0.0939 -0.3151  0.3168
   73MOL   C13026194   1.609   7.463   4.885  0.1166  0.1815  0.5736
   73MOL   C13126195   1.562   7.575   4.985 -0.2412 -0.2341  0.5622
   73MOL   C13226196   1.435   7.538   5.061  0.2046  0.5729  0.7784
   73MOL   C13326197   1.373   7.631   5.160 -0.5213 -0.0582  0.2725
   73MOL   H13426198   1.792   7.435   5.072 -0.6144  2.7810 -1.4381
   73MOL   H13526199   1.808   7.294   4.983 -0.8027 -0.5074  1.8626
   73MOL   H13626200   1.794   7.562   4.838 -0.2836 -0.1760  0.7814
   73MOL   H13726201   1.547   7.460   4.795  1.8501 -0.0356 -0.6367
   73MOL   H13826202   1.594   7.361   4.922 -1.8228  0.5850  0.9672
   73MOL   H13926203   1.551   7.671   4.935  0.7131 -1.8547 -2.8937
   73MOL   H14026204   1.638   7.584   5.063 -0.4897 -0.5803  0.8466
   73MOL   H14126205   1.367   7.531   4.976 -0.2530  1.0844  1.0949
   73MOL   H14226206   1.451   7.443   5.112 -0.5240  0.6198  1.0964
   73MOL   H14326207   1.266   7.624   5.177 -0.9024  2.6091 -0.8353
   73MOL   H14426208   1.399   0.009   5.147  1.2749 -0.5368 -0.1508
   73MOL   H14526209   1.401   7.607   5.263  1.2684  0.6350 -0.0235
   73MOL   C14626210   1.792   7.367   4.729  0.1974 -0.3019  0.0702
   73MOL   C14726211   1.754   7.421   4.592 -0.1212  0.1864  0.1750
   73MOL   C14826212   1.772   7.302   4.493  0.3439 -0.0986 -0.1259
   73MOL   C14926213   1.906   7.225   4.498  0.3945  0.3080 -0.0057
   73MOL   C15026214   1.909   7.104   4.408  0.0659  1.1069 -0.1292
   73MOL   C15126215   1.801   7.000   4.439  0.4172 -0.4030 -0.0691
   73MOL   H15226216   1.901   7.365   4.726  0.1704 -0.9115 -1.1663
   73MOL   H15326217   1.750   7.270   4.755  0.7453 -0.0901  1.7886
   73MOL   H15426218   1.646   7.437   4.593 -0.2364 -0.5430 -0.1284
   73MOL   H15526219   1.743   7.338   4.394 -1.5208 -1.7125 -0.1883
   73MOL   H15626220   1.697   7.226   4.515  0.1343  0.3427  0.7450
   73MOL   H15726221   1.988   7.291   4.470 -0.3007  1.1949  0.0223
   73MOL   H15826222   1.931   7.174   4.591  2.2704  0.5738 -0.3605
   73MOL   H15926223   2.012   7.067   4.414  0.1986  1.7052  1.5518
   73MOL   H16026224   1.906   7.137   4.304 -0.6901 -2.1098 -1.1569
   73MOL   H16126225   1.700   7.039   4.421  0.5314 -1.2020 -2.5938
   73MOL   H16226226   1.804   6.918   4.368 -1.1502  0.3506 -1.0463
   73MOL   H16326227   1.807   6.951   4.536  1.8674  0.9395  0.5396
   73MOL   C16426228   1.829   7.559   4.564 -0.4988  0.7633  0.0385
   73MOL   C16526229   1.804   7.626   4.425 -0.2713  0.4329 -0.4277
   73MOL   C16626230   1.651   7.647   4.405 -0.5031 -0.0138 -0.1108
   73MOL   C16726231   1.613   7.706   4.268 -0.0064  0.6052 -0.2892
   73MOL   C16826232   1.461   7.717   4.240  0.0067  0.2134 -0.2131
   73MOL   C16926233   1.435   0.052   4.102  0.0339 -0.3420  0.1042
   73MOL   H17026234   1.812   7.637   4.638  0.4820  1.6119 -0.6105
   73MOL   H17126235   1.937   7.541   4.567 -0.8896 -1.7192  0.2634
   73MOL   H17226236   1.835   7.554   4.349 -0.3581  0.6950 -0.7138
   73MOL   H17326237   1.602   7.705   4.483 -0.8061 -1.1806  0.5884
   73MOL   H17426238   1.604   7.549   4.411  0.4838 -0.4335  1.0921
   73MOL   H17526239   1.661   7.647   4.189  1.1522 -0.2416  1.0088
   73MOL   H17626240   1.655   0.080   4.263 -1.5378  1.4088  2.5289
   73MOL   H17726241   1.417   0.063   4.308  0.5795  0.3672 -0.0004
   73MOL   H17826242   1.410   7.622   4.254 -4.0299  1.9730 -2.1106
   73MOL   H17926243   1.327   0.056   4.091  0.0646  0.9315  0.2026
   73MOL   H18026244   1.485   7.719   4.026  1.3047 -2.0431  2.2160
   73MOL   H18126245   1.466   0.156   4.104  0.7294 -0.4570 -3.1593
   73MOL   C18226246   1.888   0.031   4.412 -0.1413 -0.0727  0.7245
   73MOL   C18326247   2.029   0.014   4.355  0.3461  0.5857  0.6229
   73MOL   C18426248   2.120   0.123   4.392  0.0828  0.7558  0.0228
   73MOL   C18526249   2.185   0.103   4.527  0.1880  0.1272  0.2075
   73MOL   C18626250   2.278   7.710   4.551  0.2606  0.1024 -0.4000
   73MOL   C18726251   2.333   7.692   4.693  0.3677  0.5884  0.4779
   73MOL   H18826252   1.849   0.107   4.345 -0.9237 -1.5452 -0.5354
   73MOL   H18926253   1.891   0.078   4.510 -2.5120  3.3851 -0.7477
   73MOL   H19026254   2.068   7.647   4.394 -1.1614 -0.1017  0.4742
   73MOL   H19126255   2.204   0.121   4.321  1.3146 -1.8862  1.5149
   73MOL   H19226256   2.058   0.212   4.379 -0.5673  0.6068  1.9578
   73MOL   H19326257   2.100   0.101   4.595  0.0635  0.7031  0.0737
   73MOL   H19426258   2.245   0.191   4.550  1.6917 -0.8025 -0.1140
   73MOL   H19526259   2.361   7.714   4.481  0.4693  3.2411 -0.0775
   73MOL   H19626260   2.229   7.619   4.518  1.4590 -0.0891 -1.6710
   73MOL   H19726261   2.256   7.683   4.770  0.2214 -0.1282  0.2494
   73MOL   H19826262   2.400   0.046   4.722 -0.1049  0.5371  1.7509
   73MOL   H19926263   2.395   7.603   4.693  0.6493  0.7807 -0.8227
   73MOL   C20026264   2.014   0.000   4.202 -0.1348  0.5697  0.0444
   73MOL   C20126265   2.124   7.636   4.138  0.2421  0.2393  0.0602
   73MOL   C20226266   2.113   7.491   4.181 -0.3230 -0.3113 -0.9128
   73MOL   C20326267   2.236   7.400   4.157 -0.0681  0.4683  0.1906
   73MOL   C20426268   2.177   7.262   4.165 -0.6638 -0.2644  0.0054
   73MOL   C20526269   2.280   7.147   4.170 -0.5477 -0.6760  0.0314
   73MOL   H20626270   2.022   0.102   4.163 -1.3235  0.1512 -1.2915
   73MOL   H20726271   1.918   7.681   4.181  0.4020 -3.2369  4.8840
   73MOL   H20826272   2.220   7.675   4.172  0.5261  0.0698 -0.5398
   73MOL   H20926273   2.019   7.450   4.141 -1.1865 -0.7002  1.4111
   73MOL   H21026274   2.105   7.490   4.289 -0.0054 -1.5505 -0.8958
   73MOL   H21126275   2.309   7.422   4.235 -0.1655  0.3164  0.3239
   73MOL   H21226276   2.292   7.412   4.064  1.0110 -0.6751  0.6719
   73MOL   H21326277   2.102   7.248   4.087 -5.0921  3.7464  3.1439
   73MOL   H21426278   2.118   7.261   4.257 -0.5878  0.9119  0.0800
   73MOL   H21526279   2.316   7.148   4.067  3.1515  1.5468  1.2830
   73MOL   H21626280   2.368   7.179   4.226 -1.3624  2.5902 -0.4929
   73MOL   H21726281   2.235   7.050   4.195  0.2713 -1.1483 -0.3278
   73MOL   C21826282   2.108   7.629   3.984 -0.0284 -0.5030  0.0979
   73MOL   C21926283   2.195   7.723   3.904 -0.1473  0.1625  0.0568
   73MOL   C22026284   2.344   7.704   3.948 -0.0734 -0.2431 -0.0351
   73MOL   C22126285   2.440   0.024   3.838  1.0477  0.2547 -0.6257
   73MOL   C22226286   2.592   0.008   3.866  0.1106 -0.5984  0.2130
   73MOL   C22326287   2.676   0.041   3.740 -0.1617  0.0683 -0.5271
   73MOL   H22426288   2.143   7.531   3.954  2.5707  0.8556 -1.4703
   73MOL   H22526289   2.005   7.649   3.954 -0.1111  0.4050  0.9885
   73MOL   H22626290   2.185   7.684   3.803  2.5220 -0.8085  0.1374
   73MOL   H22726291   2.359   7.598   3.970 -2.7684 -0.8754 -1.0718
   73MOL   H22826292   2.365   0.031   4.040  1.0959  0.4087 -0.6677
   73MOL   H22926293   2.427   0.127   3.804  0.0782 -0.4882 -2.6277
   73MOL   H23026294   2.423   7.700   3.743 -0.9044  0.1961 -0.2657
   73MOL   H23126295   2.630   0.068   3.949 -2.9541  1.2252  0.3519
   73MOL   H23226296   2.615   7.629   3.879  1.9994 -0.4665 -1.6461
   73MOL   H23326297   2.677   0.149   3.722  3.0037  0.2424  0.4060
   73MOL   H23426298   2.647   7.725   3.644 -0.7147  1.3367 -0.9525
   73MOL   H23526299   2.780   0.011   3.749 -0.4644 -0.9832 -0.5088
   73MOL   C23626300   2.159   0.143   3.913 -0.7643 -0.0140  0.0561
   73MOL   C23726301   2.014   0.184   3.876 -0.8059  1.1231  1.1159
   73MOL   C23826302   1.979   0.135   3.729  1.0662 -0.1207 -0.2544
   73MOL   C23926303   2.083   0.169   3.633  0.3493  0.1237  0.7174
   73MOL   C24026304   2.055   0.170   3.482  0.0598 -0.2723  0.7995
   73MOL   C24126305   2.134   0.278   3.415  0.0858  0.9543 -0.5051
   73MOL   H24226306   2.194   0.166   4.014  1.9466 -4.1118  0.1710
   73MOL   H24326307   2.234   0.201   3.859  0.8550 -2.3030 -0.2613
   73MOL   H24426308   1.944   0.134   3.944 -1.0892  1.7021  1.2593
   73MOL   H24526309   1.968   0.027   3.734  2.1013 -0.3383 -2.2458
   73MOL   H24626310   1.887   0.185   3.699  1.4559  2.7789  2.9650
   73MOL   H24726311   2.172   0.108   3.648 -0.8493 -1.5226  1.2319
   73MOL   H24826312   2.128   0.264   3.663 -1.4071  1.8158 -1.7977
   73MOL   H24926313   2.067   0.069   3.443 -1.0534 -0.8083  1.8167
   73MOL   H25026314   1.953   0.204   3.464  0.6100  0.2694 -1.4469
   73MOL   H25126315   2.107   0.378   3.447 -0.6394  0.6295 -0.0743
   73MOL   H25226316   2.239   0.267   3.442 -0.0854 -1.6059 -0.7609
   73MOL   H25326317   2.110   0.268   3.309 -1.8343  0.2397 -0.0227
   73MOL   C25426318   1.987   0.331   3.900  0.6232  0.6489  0.1843
   73MOL   C25526319   1.995   0.387   4.048 -0.1110 -0.2659  0.1325
   73MOL   C25626320   1.853   0.412   4.102 -0.1343 -0.2171  0.5438
   73MOL   C25726321   1.848   0.445   4.249  0.1796 -0.5088 -0.3359
   73MOL   C25826322   1.713   0.411   4.321  0.0677 -0.4217 -0.5915
   73MOL   C25926323   1.608   0.506   4.267 -0.3318  0.0635 -0.5346
   73MOL   H26026324   1.881   0.351   3.886  0.1969 -0.8813  1.0930
   73MOL   H26126325   2.046   0.391   3.831 -0.8821  0.9993 -0.8075
   73MOL   H26226326   2.045   0.315   4.112  1.1746  1.0029  0.5720
   73MOL   H26326327   1.808   0.489   4.040  1.6136 -1.0873 -1.8648
   73MOL   H26426328   1.791   0.322   4.093  0.6756 -0.8684  1.3208
   73MOL   H26526329   1.927   0.386   4.297 -1.8011 -2.1327  1.0183
   73MOL   H26626330   1.861   0.551   4.270 -1.2099 -0.4034  0.0415
   73MOL   H26726331   1.716   0.445   4.424 -3.7358  0.9030 -0.8143
   73MOL   H26826332   1.685   0.306   4.314  0.1626 -0.7711  3.3576
   73MOL   H26926333   1.591   0.498   4.159  0.9836  0.3210 -0.7737
   73MOL   H27026334   1.628   0.608   4.297 -1.0067  0.0422 -0.0029
   73MOL   H27126335   1.512   0.477   4.310 -1.2513  2.9366 -0.5896
   73MOL   C27226336   2.090   0.511   4.044  0.2188 -0.6480  0.2009
   73MOL   C27326337   2.245   0.490   4.051 -0.0754 -0.0349 -0.5187
   73MOL   C27426338   2.290   0.428   4.184  0.7876  0.0872 -0.2677
   73MOL   C27526339   2.258   0.524   4.302 -0.2268  0.2852  0.5210
   73MOL   C27626340   2.281   0.472   4.437  0.3869  0.5010 -0.1499
   73MOL   C27726341   2.275   0.582   4.546 -0.4905  0.3797 -0.3021
   73MOL   H27826342   2.066   0.570   3.955  1.6602 -0.9523 -0.4012
   73MOL   H27926343   2.063   0.587   4.118 -0.4426 -0.9720  0.2962
   73MOL   H28026344   2.256   0.417   3.971  1.4560  0.3973 -0.7199
   73MOL   H28126345   2.394   0.395   4.183  0.7274 -0.1859  1.2648
   73MOL   H28226346   2.246   0.330   4.202  1.9900 -0.5482 -0.7097
   73MOL   H28326347   2.150   0.535   4.300 -0.1285  1.1867 -0.0265
   73MOL   H28426348   2.301   0.621   4.279 -0.6628  0.6529  1.2262
   73MOL   H28526349   2.205   0.395   4.454  0.1510  0.7894  0.1202
   73MOL   H28626350   2.378   0.425   4.444 -0.6052 -2.2790 -3.8892
   73MOL   H28726351   2.171   0.615   4.554 -1.2720 -1.4679 -2.4421
   73MOL   H28826352   2.292   0.525   4.637 -1.2780  0.9676  0.2194
   73MOL   H28926353   2.341   0.664   4.516 -0.1826 -0.7422 -2.8419
   73MOL   C29026354   2.328   0.609   4.015 -0.6143 -0.4341  0.4350
   73MOL   C29126355   2.366   0.621   3.864  0.1701  0.1118 -0.1296
   73MOL   C29226356   2.251   0.651   3.762 -0.0896  0.5073 -0.0474
   73MOL   C29326357   2.154   0.763   3.772 -0.3477  0.6165  0.0904
   73MOL   C29426358   2.036   0.731   3.675 -0.6785  0.4903  0.4892
   73MOL   C29526359   2.066   0.694   3.532 -0.3241 -0.1973 -0.6174
   73MOL   H29626360   2.421   0.602   4.071  0.1164  2.2047 -0.3982
   73MOL   H29726361   2.276   0.699   4.046 -1.0677 -0.1266 -1.1792
   73MOL   H29826362   2.421   0.530   3.839  3.5320  1.5577  1.6955
   73MOL   H29926363   2.185   0.566   3.784  1.2590 -0.3344  0.8471
   73MOL   H30026364   2.288   0.635   3.660  0.5445  0.7331  0.1450
   73MOL   H30126365   2.124   0.769   3.877  1.0484 -0.8887  0.6067
   73MOL   H30226366   2.193   0.860   3.742  0.7599 -0.2072 -1.1739
   73MOL   H30326367   1.972   0.820   3.665 -2.7684 -1.0646 -0.4419
   73MOL   H30426368   1.979   0.657   3.731 -1.1609  1.1498  0.8798
   73MOL   H30526369   2.136   0.614   3.509 -1.5487 -1.4209 -0.1262
   73MOL   H30626370   2.115   0.781   3.488  1.8341 -2.3274 -2.5155
   73MOL   H30726371   1.972   0.669   3.483 -0.2763  0.5939 -1.1189
   73MOL   C30826372   2.476   0.724   3.831  0.0243  1.0588  0.3096
   73MOL   C30926373   2.620   0.709   3.890  0.1430 -0.4529  0.2407
   73MOL   C31026374   2.696   0.845   3.884  0.0271 -0.8826 -0.0755
   73MOL   C31126375   2.708   0.921   3.747  0.0077 -0.2224  0.1793
   73MOL   C31226376   2.775   1.056   3.757 -0.3914 -0.1570  0.3945
   73MOL   C31326377   2.777   1.129   3.623  1.1830  0.4273  0.0578
   73MOL   H31426378   2.482   0.722   3.722  1.7563 -2.3350  0.3908
   73MOL   H31526379   2.444   0.826   3.854  0.7602  1.2431  0.5492
   73MOL   H31626380   2.622   0.677   3.994  0.4565 -1.2627 -0.0088
   73MOL   H31726381   2.797   0.834   3.925  0.6117 -0.6896 -1.4487
   73MOL   H31826382   2.648   0.923   3.943 -1.6174 -0.0575 -2.4505
   73MOL   H31926383   2.607   0.923   3.705 -0.5912  0.4715  1.6136
   73MOL   H32026384   2.765   0.856   3.682 -1.0779  0.1931 -1.2235
   73MOL   H32126385   2.719   1.121   3.825 -0.2581  1.3168 -0.8755
   73MOL   H32226386   2.881   1.050   3.782  0.0228 -0.1065 -1.2954
   73MOL   H32326387   2.681   1.140   3.574  0.0962 -1.7248  1.6174
   73MOL   H32426388   2.823   1.070   3.544 -0.5959  0.5126 -1.0642
   73MOL   H32526389   2.818   1.229   3.638  0.7487  0.5954  0.1431
   73MOL   C32626390   2.704   0.595   3.829  0.2786  0.0539 -0.0819
   73MOL   C32726391   2.800   0.527   3.935  0.1075  0.6916  0.0725
   73MOL   C32826392   2.725   0.439   4.040  0.0275  0.5366  0.8735
   73MOL   C32926393   2.787   0.438   4.182 -0.7865  0.1797 -0.1344
   73MOL   C33026394   2.685   0.396   4.288 -0.8084 -0.4913 -0.7940
   73MOL   C33126395   2.744   0.372   4.427  0.1944 -0.1861  0.1633
   73MOL   H33226396   2.757   0.634   3.742 -0.7589  0.4043 -0.5637
   73MOL   H33326397   2.632   0.524   3.789  0.3520  0.8613 -1.6734
   73MOL   H33426398   2.855   0.606   3.987 -1.5625  1.1519  1.2085
   73MOL   H33526399   2.620   0.467   4.041  0.4095  2.5166 -2.6583
   73MOL   H33626400   2.722   0.336   4.003 -2.1970  0.5876  0.8669
   73MOL   H33726401   2.814   0.542   4.199 -0.8347  0.2334 -0.3846
   73MOL   H33826402   2.877   0.378   4.167 -0.6494 -0.3436  2.5358
   73MOL   H33926403   2.616   0.481   4.286  1.1421  1.1292 -0.3894
   73MOL   H34026404   2.641   0.303   4.252  2.5185 -2.3118 -0.2893
   73MOL   H34126405   2.668   0.330   4.493  0.3905 -1.1002 -0.1843
   73MOL   H34226406   2.780   0.466   4.469  0.2527  1.6700 -3.7845
   73MOL   H34326407   2.827   0.305   4.406  0.0377  0.1442 -1.5649
   73MOL   C34426408   2.906   0.437   3.865  0.2836 -0.1762 -0.7632
   73MOL   C34526409   3.012   0.514   3.787 -0.9185 -0.3934  0.5165
   73MOL   C34626410   3.100   0.612   3.862  0.1755 -0.7485 -0.1350
   73MOL   C34726411   3.162   0.709   3.760  0.5721 -0.2558 -0.1047
   73MOL   C34826412   3.243   0.813   3.829  0.0835  0.2215  0.5853
   73MOL   C34926413   3.280   0.935   3.744 -0.2871  1.0370  0.2447
   73MOL   H35026414   2.954   0.373   3.938 -0.8383 -0.2668 -0.0860
   73MOL   H35126415   2.853   0.378   3.790 -1.3875  0.0913  0.1822
   73MOL   H35226416   2.967   0.563   3.700  1.3468 -0.2534 -0.6113
   73MOL   H35326417   3.034   0.671   3.925  1.0977 -1.0445  1.1304
   73MOL   H35426418   3.173   0.559   3.925 -0.3028  1.1653  2.1076
   73MOL   H35526419   3.217   0.649   3.688  1.0175 -0.0231  0.0379
   73MOL   H35626420   3.086   0.759   3.700  2.2971 -0.6533 -2.6967
   73MOL   H35726421   3.190   0.854   3.915  0.6882 -0.1324  1.1314
   73MOL   H35826422   3.333   0.771   3.873  0.7784 -1.8864 -2.6478
   73MOL   H35926423   3.205   0.995   3.694 -0.0332  0.3992 -0.9035
   73MOL   H36026424   3.331   1.005   3.811  1.2568 -1.9082  2.3197
   73MOL   H36126425   3.357   0.915   3.670  0.0308  0.4642  0.7164
   73MOL   H36226426   3.072   0.426   3.763 -0.2575 -0.4418  2.2181
   74MOL     C126427   7.565   0.611   3.889  0.1971 -0.3151 -0.0502
   74MOL     C226428   7.426   0.668   3.856  0.3732 -0.7254 -0.2868
   74MOL     C326429   7.319   0.602   3.941  0.9647 -0.0102  0.5163
   74MOL     C426430   7.302   0.449   3.938  0.0655 -0.2877  0.0250
   74MOL     C526431   7.167   0.404   3.989  0.8528  0.2168 -0.6269
   74MOL     C626432   7.127   0.429   4.139 -0.1410  0.1791  0.0873
   74MOL     H726433   7.578   0.589   3.995  1.4387 -0.0436 -0.1365
   74MOL     H826434   7.578   0.512   3.846 -0.1984  0.1160 -1.1806
   74MOL     H926435   7.421   0.776   3.870  0.9468 -0.8465  0.8990
   74MOL    H1026436   7.219   0.642   3.925  2.2104  3.5072  1.1425
   74MOL    H1126437   7.332   0.645   4.041  0.5591  0.2692  0.4515
   74MOL    H1226438   7.387   0.404   3.990  0.2996 -1.2716 -1.1737
   74MOL    H1326439   7.317   0.420   3.833 -0.5838  1.1418 -0.4693
   74MOL    H1426440   7.079   0.423   3.928 -0.2561  1.8170  1.3665
   74MOL    H1526441   7.176   0.296   3.976  2.7396  0.0752  1.4321
   74MOL    H1626442   7.073   0.524   4.143  0.9071  0.7164  2.1309
   74MOL    H1726443   7.216   0.439   4.200  1.3839  0.1023 -2.0483
   74MOL    H1826444   7.062   0.352   4.180 -1.3706  0.8970 -0.4680
   74MOL    H1926445   7.651   0.671   3.858  2.6847 -2.9952  1.2790
   74MOL    C2026446   7.406   0.656   3.703  0.0742 -0.1405  0.0451
   74MOL    C2126447   7.272   0.719   3.645 -0.5558  0.4127 -0.1982
   74MOL    C2226448   7.246   0.867   3.690  0.1320 -0.1382  0.5737
   74MOL    C2326449   7.115   0.925   3.628  0.6796 -1.0215  0.5872
   74MOL    C2426450   7.053   1.051   3.698 -0.8705  0.3607 -0.4216
   74MOL    C2526451   7.148   1.166   3.671  0.4749 -0.5060  0.5062
   74MOL    H2626452   7.414   0.550   3.677  2.9379 -0.0660  0.4965
   74MOL    H2726453   7.492   0.707   3.660 -0.4018 -0.1715 -0.9634
   74MOL    H2826454   7.180   0.672   3.679 -1.1886  0.6347 -1.5862
   74MOL    H2926455   7.326   0.925   3.643 -1.1857  0.4190 -1.0189
   74MOL    H3026456   7.255   0.888   3.796 -1.5833 -1.4185  0.9898
   74MOL    H3126457   7.045   0.847   3.656  0.6027 -1.0142  0.4118
   74MOL    H3226458   7.121   0.936   3.520  1.2514 -1.1733  0.6019
   74MOL    H3326459   6.948   1.070   3.676 -1.1274 -0.1119  0.3720
   74MOL    H3426460   7.051   1.037   3.806 -0.1054  0.5754 -0.3786
   74MOL    H3526461   7.252   1.136   3.688  1.0276  2.0797  1.8684
   74MOL    H3626462   7.135   1.193   3.566 -0.8215 -0.1515  0.7559
   74MOL    H3726463   7.123   1.251   3.734  0.0436 -0.4328  0.2338
   74MOL    C3826464   7.274   0.704   3.485 -0.0684 -0.9011 -0.2895
   74MOL    C3926465   7.317   0.564   3.436  0.0057  0.5725 -0.5715
   74MOL    C4026466   7.232   0.457   3.507 -0.0355 -0.4096 -0.5012
   74MOL    C4126467   7.302   0.321   3.515 -0.5011 -0.9266  0.7396
   74MOL    C4226468   7.206   0.204   3.553  0.8248 -0.3663  0.6453
   74MOL    C4326469   7.288   0.080   3.574  0.0217  0.1418  0.0535
   74MOL    H4426470   7.344   0.782   3.456 -1.1976  0.4311  0.5384
   74MOL    H4526471   7.172   0.726   3.452  0.0562 -1.2871 -0.9388
   74MOL    H4626472   7.420   0.545   3.466  0.0178 -0.3076 -1.1640
   74MOL    H4726473   7.197   0.483   3.607  2.4787  1.0947  0.0138
   74MOL    H4826474   7.134   0.439   3.463  0.5036 -0.0301 -1.8746
   74MOL    H4926475   7.366   0.297   3.430 -0.2547 -0.2074  0.7178
   74MOL    H5026476   7.373   0.333   3.597  0.4901  0.4952 -0.2829
   74MOL    H5126477   7.139   0.229   3.636 -1.0359  1.0930 -1.2662
   74MOL    H5226478   7.131   0.182   3.478 -0.4376 -0.7839  2.0004
   74MOL    H5326479   7.250   0.026   3.661 -2.7106 -3.0246 -2.9085
   74MOL    H5426480   7.395   0.093   3.587 -0.1914  1.2907  0.7526
   74MOL    H5526481   7.267   0.011   3.493  0.3785 -1.7730  1.5596
   74MOL    C5626482   7.311   0.570   3.284  0.4593 -0.0010 -0.2011
   74MOL    C5726483   7.439   0.623   3.210  0.6301  1.2432  0.2761
   74MOL    C5826484   7.400   0.640   3.057  0.6686 -0.0601  0.0208
   74MOL    C5926485   7.496   0.720   2.972  0.0939 -1.2485  0.7205
   74MOL    C6026486   7.473   0.719   2.823 -0.2963 -0.1845 -0.1425
   74MOL    C6126487   7.544   0.825   2.742  0.9864  0.8964  0.5580
   74MOL    H6226488   7.293   0.469   3.248 -0.3792  0.2232 -0.4262
   74MOL    H6326489   7.217   0.617   3.254 -0.4655 -1.2737  0.6442
   74MOL    H6426490   7.442   0.728   3.238 -1.7570  1.0818  1.2484
   74MOL    H6526491   7.378   0.541   3.017  1.3127 -0.7440  1.3338
   74MOL    H6626492   7.307   0.696   3.052  1.2758  0.8045 -2.2321
   74MOL    H6726493   7.595   0.679   2.993  1.2222 -0.1242 -2.1266
   74MOL    H6826494   7.490   0.820   3.015  0.7775 -0.1025 -1.7461
   74MOL    H6926495   7.502   0.622   2.783 -0.3762 -1.1389  2.0323
   74MOL    H7026496   7.368   0.724   2.795  0.2584 -2.3704 -2.8820
   74MOL    H7126497   7.652   0.821   2.751  1.1734  3.1102 -0.4340
   74MOL    H7226498   7.522   0.819   2.635  1.0858  1.0638  0.5286
   74MOL    H7326499   7.517   0.927   2.769  0.6593  1.6641 -2.5064
   74MOL    C7426500   7.571   0.547   3.239 -0.4711  0.1758 -0.4087
   74MOL    C7526501   7.659   0.614   3.351  0.8960 -0.2273  0.2338
   74MOL    C7626502   0.031   0.515   3.406  0.1331 -0.2384 -0.0033
   74MOL    C7726503   7.706   0.394   3.476 -1.0783 -0.1481 -0.5988
   74MOL    C7826504   0.089   0.314   3.555 -0.0382 -0.3001 -0.2422
   74MOL    C7926505   0.023   0.211   3.652 -0.5046  0.1874 -0.1501
   74MOL    H8026506   7.541   0.452   3.283 -1.7139  0.9726  0.4932
   74MOL    H8126507   7.628   0.526   3.148 -2.0333  0.3578 -1.4473
   74MOL    H8226508   7.602   0.647   3.438  0.8315  0.9750 -0.2529
   74MOL    H8326509   0.104   0.478   3.335  0.5597 -0.9018  0.7719
   74MOL    H8426510   0.100   0.568   3.472 -0.0318 -0.6646  0.5202
   74MOL    H8526511   7.626   0.420   3.546 -0.5236  1.1714 -0.4298
   74MOL    H8626512   7.674   0.322   3.401 -2.3516 -1.7108  1.3816
   74MOL    H8726513   0.137   0.396   3.608 -0.8134 -0.4350  0.7050
   74MOL    H8826514   0.158   0.276   3.480  2.7729  0.8327  1.6881
   74MOL    H8926515   7.664   0.159   3.609  1.9881 -1.5707 -3.2471
   74MOL    H9026516   0.091   0.136   3.692  0.8123  1.0896 -0.6551
   74MOL    H9126517   7.716   0.272   3.736 -1.6114  1.7956 -1.7176
   74MOL    C9226518   0.007   0.726   3.281  0.6587 -0.1201 -0.6122
   74MOL    C9326519   0.062   0.837   3.369 -0.1002  0.4975  0.3589
   74MOL    C9426520   0.172   0.907   3.274  0.6616 -0.2745 -0.6949
   74MOL    C9526521   0.277   0.992   3.344 -0.1625 -0.1624  0.3761
   74MOL    C9626522   0.386   1.013   3.244  0.0119 -0.1419  0.1936
   74MOL    C9726523   0.502   1.094   3.298 -0.7470  0.0701 -1.1181
   74MOL    H9826524   0.086   0.675   3.226  0.9920  0.8781 -1.0711
   74MOL    H9926525   7.676   0.778   3.205  0.0810 -0.3704 -0.3465
   74MOL   H10026526   0.107   0.793   3.458 -1.0372  0.7965  0.9921
   74MOL   H10126527   0.125   0.981   3.209  1.1818  1.0540  0.4115
   74MOL   H10226528   0.227   0.835   3.214  1.5892 -1.1082  1.1016
   74MOL   H10326529   0.231   1.086   3.372  0.6444  0.0458  1.0286
   74MOL   H10426530   0.316   0.948   3.436  1.8022  0.5469 -0.0971
   74MOL   H10526531   0.438   0.925   3.205  3.9002  2.2672 -0.3537
   74MOL   H10626532   0.344   1.070   3.162 -0.2999  1.0598  1.1910
   74MOL   H10726533   0.595   1.078   3.243 -0.4710 -3.1711  0.1644
   74MOL   H10826534   0.476   1.200   3.299 -3.8585 -0.5881  3.4447
   74MOL   H10926535   0.519   1.078   3.404 -2.3147  2.1408 -0.5370
   74MOL   C11026536   7.673   0.928   3.412  0.8819  0.1843 -0.2055
   74MOL   C11126537   7.699   1.031   3.531 -0.7691  0.0364 -0.3584
   74MOL   C11226538   7.691   0.953   3.659 -1.2465 -0.0782 -0.9396
   74MOL   C11326539   0.012   1.027   3.776 -0.1422  0.3174  0.2636
   74MOL   C11426540   7.723   0.956   3.911  0.0515 -0.2669  0.4622
   74MOL   C11526541   0.064   1.019   4.025 -0.2883  0.3076  0.1951
   74MOL   H11626542   7.648   0.981   3.320 -2.5454 -0.2428  0.4486
   74MOL   H11726543   7.583   0.871   3.436  0.0869  1.2682 -0.5853
   74MOL   H11826544   0.073   1.072   3.528 -1.7826  2.5337 -2.6438
   74MOL   H11926545   0.026   0.864   3.648  0.5647  1.0810 -0.1982
   74MOL   H12026546   7.590   0.913   3.668 -1.6584  1.3171  0.7873
   74MOL   H12126547   7.680   1.118   3.784 -0.1251  0.2643  0.9931
   74MOL   H12226548   0.118   1.055   3.772 -0.1154  0.3162  0.8699
   74MOL   H12326549   0.036   0.856   3.894  2.4051  0.8639 -0.9604
   74MOL   H12426550   7.618   0.947   3.936 -0.6026  1.3822 -1.5002
   74MOL   H12526551   0.032   1.122   4.036  1.4518  0.7197  1.6368
   74MOL   H12626552   0.033   0.974   4.120  1.8119  0.2218  0.8809
   74MOL   H12726553   0.171   1.026   4.005 -0.1582 -1.0061  0.3729
   74MOL   C12826554   7.601   1.149   3.524  0.0873  0.4061 -0.5304
   74MOL   C12926555   7.648   1.266   3.440  0.8043  0.9766  0.1453
   74MOL   C13026556   0.032   1.352   3.509 -0.1158 -0.8076 -0.3953
   74MOL   C13126557   0.115   1.446   3.414 -0.3059 -0.4851  0.1310
   74MOL   C13226558   0.218   1.528   3.496  0.0852  0.1338  0.3664
   74MOL   C13326559   0.285   1.634   3.400  0.0373 -0.5657 -0.2391
   74MOL   H13426560   7.583   1.194   3.622  0.7236 -0.2388 -0.1174
   74MOL   H13526561   7.507   1.107   3.487 -2.8953  1.6865  4.9751
   74MOL   H13626562   7.701   1.235   3.350 -1.4217  1.7725 -1.4720
   74MOL   H13726563   7.723   1.404   3.598  1.8212 -1.4854  0.8132
   74MOL   H13826564   0.097   1.284   3.564 -1.1846 -0.6212  1.1478
   74MOL   H13926565   0.049   1.520   3.371  1.5503  0.9361 -0.3574
   74MOL   H14026566   0.155   1.384   3.333  0.0650  1.1265 -0.9419
   74MOL   H14126567   0.167   1.577   3.579  0.6936 -0.1632  0.9238
   74MOL   H14226568   0.294   1.463   3.541  1.8420  1.9391  0.1077
   74MOL   H14326569   0.218   1.712   3.365  0.3500  0.1230  0.6984
   74MOL   H14426570   0.324   1.590   3.308  0.2723 -1.1146  0.1224
   74MOL   H14526571   0.374   1.678   3.445  0.8792 -2.1039 -0.3749
   74MOL   C14626572   7.530   1.353   3.395  0.1536 -0.3116  0.4318
   74MOL   C14726573   7.451   1.308   3.269  0.3108 -0.9645  0.2628
   74MOL   C14826574   7.347   1.198   3.288  0.2432  0.8030  0.4819
   74MOL   C14926575   7.226   1.221   3.194  0.0735  0.3710 -0.1424
   74MOL   C15026576   7.123   1.111   3.189  0.6406  0.0512  0.5370
   74MOL   C15126577   7.183   0.977   3.160 -0.6883 -0.0067  0.4131
   74MOL   H15226578   7.453   1.378   3.468 -2.3024 -0.4868 -2.0321
   74MOL   H15326579   7.583   1.447   3.376 -1.0620  0.1597 -0.6493
   74MOL   H15426580   7.381   1.391   3.266  0.7665 -0.3634  3.7044
   74MOL   H15526581   7.319   1.193   3.394 -1.2191  1.4275  0.1409
   74MOL   H15626582   7.391   1.099   3.272  0.3103  0.6358  1.6581
   74MOL   H15726583   7.175   1.314   3.217 -0.0871  1.2729 -3.8406
   74MOL   H15826584   7.249   1.242   3.090  1.1194 -0.5894 -0.1136
   74MOL   H15926585   7.059   1.139   3.105 -0.2674  0.1738  1.2612
   74MOL   H16026586   7.057   1.099   3.275 -0.2763  0.9274 -0.0229
   74MOL   H16126587   7.236   0.925   3.238 -0.3685 -1.2619 -0.6270
   74MOL   H16226588   7.112   0.903   3.122 -2.2120  0.3618  2.4702
   74MOL   H16326589   7.248   0.987   3.073 -0.3151 -3.2855  0.2658
   74MOL   C16426590   7.540   1.281   3.138 -0.8423  0.0155  0.1068
   74MOL   C16526591   7.641   1.395   3.094  0.4232 -0.7447  0.5289
   74MOL   C16626592   0.024   1.348   3.003 -0.0382 -0.5686  0.2999
   74MOL   C16726593   7.713   1.296   2.862  0.3426 -0.7245  0.4816
   74MOL   C16826594   0.096   1.260   2.763 -0.8387 -0.1747 -0.3502
   74MOL   C16926595   0.034   1.187   2.647 -0.2461  0.1734  0.1052
   74MOL   H17026596   7.596   1.189   3.155  0.1399  0.4471 -0.7125
   74MOL   H17126597   7.477   1.257   3.053  2.1625  0.4063 -2.3257
   74MOL   H17226598   7.697   1.435   3.178 -0.4996 -0.8509  1.2074
   74MOL   H17326599   0.061   1.259   3.055 -1.5842 -0.7131  1.1976
   74MOL   H17426600   0.091   1.433   2.996  0.4079 -0.8032  1.4669
   74MOL   H17526601   7.647   1.370   2.816 -1.6406 -2.3051  0.7034
   74MOL   H17626602   7.642   1.216   2.882  0.4307 -1.2273 -1.1422
   74MOL   H17726603   0.173   1.207   2.819  0.0072  2.0192  0.6319
   74MOL   H17826604   0.150   1.352   2.739  0.8685 -0.6067  1.6280
   74MOL   H17926605   7.687   1.112   2.677 -2.3482  2.5757  1.1591
   74MOL   H18026606   0.106   1.129   2.590  0.4285  0.5277  0.5871
   74MOL   H18126607   7.721   1.267   2.585 -1.4595 -1.7346 -1.6486
   74MOL   C18226608   7.552   1.515   3.039 -0.3307 -0.3741 -0.2754
   74MOL   C18326609   7.624   1.649   3.016  0.0848 -0.3050  0.1984
   74MOL   C18426610   7.688   1.718   3.137 -0.4612  0.4323 -0.3545
   74MOL   C18526611   7.586   1.774   3.232  0.4341 -0.1421 -0.0463
   74MOL   C18626612   7.646   1.815   3.368  0.1444  0.3045  0.6545
   74MOL   C18726613   0.015   1.931   3.363 -0.3238  0.6435 -0.2880
   74MOL   H18826614   7.512   1.482   2.943  0.2322 -1.9134  0.0162
   74MOL   H18926615   7.458   1.536   3.090 -0.2834 -0.2484 -0.2391
   74MOL   H19026616   7.701   1.623   2.944 -0.4297  0.8102 -0.7747
   74MOL   H19126617   0.034   1.657   3.191  1.2390  0.5362 -2.4668
   74MOL   H19226618   0.030   1.797   3.109  1.4061 -0.6544  1.0674
   74MOL   H19326619   7.510   1.701   3.259 -1.2323  1.9330  1.0054
   74MOL   H19426620   7.542   1.860   3.183  0.4277  0.8089  1.5683
   74MOL   H19526621   7.705   1.735   3.413 -1.7412 -0.7807  1.2691
   74MOL   H19626622   7.571   1.830   3.446  1.7054 -0.3362  2.3311
   74MOL   H19726623   7.692   2.024   3.337  0.7953  0.8903 -1.5641
   74MOL   H19826624   0.094   1.916   3.290  0.1940  0.4100  0.3120
   74MOL   H19926625   0.067   1.956   3.456 -1.1751  1.9468 -0.1449
   74MOL   C20026626   7.536   1.746   2.935 -0.2700  0.1666 -0.1180
   74MOL   C20126627   7.530   1.725   2.776  0.1594 -0.1537 -0.2795
   74MOL   C20226628   7.408   1.800   2.716  0.1823  0.1161 -0.0544
   74MOL   C20326629   7.271   1.756   2.776 -0.3302 -0.0531 -0.5134
   74MOL   C20426630   7.161   1.775   2.677  0.2843 -0.4886  0.6900
   74MOL   C20526631   7.162   1.699   2.542 -0.0254  0.2220 -0.4131
   74MOL   H20626632   7.566   1.850   2.948  1.2072 -0.5351  2.2967
   74MOL   H20726633   7.433   1.743   2.971  0.3425 -2.5674  1.5734
   74MOL   H20826634   7.498   1.621   2.770 -1.6579  0.3436  0.4646
   74MOL   H20926635   7.404   1.783   2.609 -0.1475  1.4184 -0.2542
   74MOL   H21026636   7.423   1.907   2.730 -2.1308  0.5494 -0.6959
   74MOL   H21126637   7.262   1.818   2.865  0.7805 -1.6129  0.7077
   74MOL   H21226638   7.255   1.655   2.814  4.1790 -0.8422 -0.3828
   74MOL   H21326639   7.152   1.882   2.656 -1.1490 -0.7843 -0.2874
   74MOL   H21426640   7.066   1.752   2.726  0.4268  1.3209  1.8693
   74MOL   H21526641   7.161   1.590   2.550  2.2358  0.1620 -0.6205
   74MOL   H21626642   7.074   1.716   2.480 -0.1906 -3.1814 -1.2421
   74MOL   H21726643   7.246   1.734   2.483 -0.2363  0.3714 -0.6255
   74MOL   C21826644   7.655   1.741   2.683 -0.0515  0.6248 -0.3482
   74MOL   C21926645   7.722   1.887   2.694  0.2491 -0.3043 -0.0362
   74MOL   C22026646   0.062   1.925   2.561  0.4591  0.2423  0.7612
   74MOL   C22126647   7.702   1.967   2.442  0.3564 -0.1692  0.2469
   74MOL   C22226648   0.031   1.983   2.301 -0.1958 -0.3407 -0.4505
   74MOL   C22326649   7.657   2.027   2.196  0.1731 -0.7578  0.2569
   74MOL   H22426650   7.719   1.655   2.705 -3.1354 -1.5694  0.3262
   74MOL   H22526651   7.620   1.718   2.583 -1.2204 -0.7113  0.3320
   74MOL   H22626652   7.643   1.960   2.708  1.4186  0.8665  0.5577
   74MOL   H22726653   0.122   1.840   2.531  1.2897  1.3234 -0.6993
   74MOL   H22826654   0.133   2.007   2.578  0.3241  0.5959 -0.3440
   74MOL   H22926655   7.658   2.065   2.461  0.6008  0.4345 -2.1192
   74MOL   H23026656   7.623   1.893   2.434 -0.6136  0.6718  1.7861
   74MOL   H23126657   0.110   2.059   2.301  0.3945 -0.9127 -2.2285
   74MOL   H23226658   0.076   1.889   2.271 -1.1826 -0.2473 -2.3345
   74MOL   H23326659   7.574   1.958   2.198 -1.1074  0.7039 -0.9682
   74MOL   H23426660   7.710   2.022   2.100 -2.3991  0.9158 -1.3221
   74MOL   H23526661   7.615   2.127   2.207 -0.1556 -0.7792 -0.6887
   74MOL   C23626662   0.092   1.904   2.819 -0.7217  0.5554  0.2597
   74MOL   C23726663   0.122   2.056   2.863  0.3229  0.7842 -0.1308
   74MOL   C23826664   0.265   2.066   2.905 -0.4443  0.4857  0.8193
   74MOL   C23926665   0.367   2.067   2.789 -0.6213  0.1075  0.0635
   74MOL   C24026666   0.515   2.048   2.833 -0.7162  0.3552 -0.4324
   74MOL   C24126667   0.535   1.933   2.932  0.2545  0.0095 -0.1614
   74MOL   H24226668   0.058   1.851   2.909 -0.1241  0.5224  0.4708
   74MOL   H24326669   0.191   1.861   2.800  0.5222  2.6204  1.8199
   74MOL   H24426670   0.110   2.125   2.779  0.7400  2.5211  1.2165
   74MOL   H24526671   0.272   2.163   2.954  0.6381 -0.1531  1.9441
   74MOL   H24626672   0.283   1.986   2.976 -3.0172 -0.2936  0.6403
   74MOL   H24726673   0.358   2.155   2.726  0.0935  0.4312  0.3976
   74MOL   H24826674   0.330   1.988   2.725 -2.2195  0.3316  0.6943
   74MOL   H24926675   0.574   2.029   2.744  0.9251 -1.6236  1.0413
   74MOL   H25026676   0.550   2.143   2.874 -0.1129 -0.6277  1.3710
   74MOL   H25126677   0.487   1.973   3.022  1.8801  0.7061  0.4187
   74MOL   H25226678   0.489   1.839   2.904  2.3786 -0.8101 -0.9566
   74MOL   H25326679   0.641   1.926   2.956  0.9959  2.6122 -2.3789
   74MOL   C25426680   0.020   2.095   2.971 -0.2679  0.5382  0.2022
   74MOL   C25526681   0.018   2.254   2.991  0.3788  0.8233 -0.1380
   74MOL   C25626682   0.013   2.289   3.138  0.8655  0.1149 -0.2519
   74MOL   C25726683   0.147   2.261   3.216 -0.1544  0.1760 -0.6988
   74MOL   C25826684   0.135   2.265   3.370 -0.2147 -0.7972 -0.3893
   74MOL   C25926685   0.263   2.195   3.428  0.2674 -0.6344 -0.2665
   74MOL   H26026686   0.046   2.051   3.067 -1.1560 -0.0660  0.1719
   74MOL   H26126687   7.645   2.065   2.946  0.1112 -0.2845 -0.3905
   74MOL   H26226688   0.102   2.306   2.945 -0.0983 -0.2985 -2.3503
   74MOL   H26326689   7.713   2.394   3.143  1.6285  0.3338 -0.5838
   74MOL   H26426690   7.654   2.247   3.190 -0.6468  3.2933 -0.1101
   74MOL   H26526691   0.193   2.165   3.194 -0.6755  0.1710 -1.8548
   74MOL   H26626692   0.213   2.339   3.180  1.1521 -1.2044 -1.3508
   74MOL   H26726693   0.041   2.214   3.394  0.8471 -1.8040  1.7836
   74MOL   H26826694   0.128   2.369   3.402 -0.0669 -1.5930  2.4193
   74MOL   H26926695   0.284   2.222   3.531 -0.0523 -0.1301 -0.3303
   74MOL   H27026696   0.353   2.226   3.376 -0.4634  1.1276 -0.5274
   74MOL   H27126697   0.259   2.086   3.418 -0.6671 -0.5658 -0.6733
   74MOL   C27226698   7.619   2.302   2.929 -0.9943  0.3699  0.4806
   74MOL   C27326699   7.603   2.302   2.776 -0.4760 -0.5565  0.0920
   74MOL   C27426700   7.714   2.387   2.703 -0.0425 -0.4241  0.0479
   74MOL   C27526701   7.707   2.385   2.547  0.3764  0.1992  0.0104
   74MOL   C27626702   0.097   2.460   2.484  0.1415  0.1583  0.3152
   74MOL   C27726703   0.072   2.608   2.463  0.5398  0.0446 -0.4502
   74MOL   H27826704   7.535   2.245   2.968 -0.1451 -0.4280  1.1656
   74MOL   H27926705   7.615   2.406   2.961 -1.5490  0.2658  0.7480
   74MOL   H28026706   7.613   2.201   2.735  1.0580 -0.6957  0.7768
   74MOL   H28126707   0.085   2.360   2.741  0.6211  0.0148 -1.3319
   74MOL   H28226708   7.707   2.491   2.734  2.6223 -0.0426 -0.5739
   74MOL   H28326709   7.617   2.426   2.501  1.1873  2.3689  0.2861
   74MOL   H28426710   7.723   2.283   2.511  2.3303  0.9681 -1.3443
   74MOL   H28526711   0.186   2.439   2.544  1.5527 -0.2744 -1.8392
   74MOL   H28626712   0.116   2.406   2.391  0.4265 -1.1271  1.1089
   74MOL   H28726713   0.131   2.662   2.388 -2.7374  3.3763 -0.8018
   74MOL   H28826714   7.696   2.615   2.427 -1.9301 -0.3206  5.9113
   74MOL   H28926715   0.086   2.672   2.550 -0.9766  0.9223 -0.8233
   74MOL   C29026716   7.462   2.361   2.731  0.3288  0.0931 -0.7728
   74MOL   C29126717   7.353   2.270   2.690 -0.2119  0.6755  0.1737
   74MOL   C29226718   7.387   2.181   2.562 -0.6464  0.0561 -0.7440
   74MOL   C29326719   7.274   2.143   2.471  0.1146 -0.8838 -0.0737
   74MOL   C29426720   7.313   2.033   2.368 -0.4218 -0.7047 -0.2149
   74MOL   C29526721   7.193   1.967   2.292 -0.1379 -0.0152 -0.1335
   74MOL   H29626722   7.470   2.428   2.646 -0.0460 -0.8080 -1.5264
   74MOL   H29726723   7.431   2.435   2.804  1.0776 -1.8794  1.6448
   74MOL   H29826724   7.279   2.340   2.651 -2.0432 -0.6399  1.2304
   74MOL   H29926725   7.428   2.092   2.611 -1.8274  0.2010  0.5414
   74MOL   H30026726   7.473   2.221   2.509 -0.1563 -0.2458 -0.1847
   74MOL   H30126727   7.190   2.112   2.533  1.4654 -2.9075  0.8153
   74MOL   H30226728   7.246   2.237   2.424 -1.6542 -1.2223  0.2680
   74MOL   H30326729   7.359   1.949   2.421 -0.4926 -0.9305 -0.5111
   74MOL   H30426730   7.384   2.066   2.292 -0.1092 -0.0117  0.3758
   74MOL   H30526731   7.121   1.908   2.349  0.1136 -2.6254 -2.4495
   74MOL   H30626732   7.237   1.891   2.228 -2.2459 -0.1604 -1.4456
   74MOL   H30726733   7.137   2.038   2.232 -2.7684 -2.0205 -0.1285
   74MOL   C30826734   7.289   2.183   2.800 -0.0165 -0.1940  0.1186
   74MOL   C30926735   7.208   2.247   2.916  0.8405 -0.2096  0.0410
   74MOL   C31026736   7.168   2.156   3.043 -0.4016  0.5867  0.4640
   74MOL   C31126737   7.290   2.153   3.141  0.0510  0.1545  0.1100
   74MOL   C31226738   7.249   2.060   3.254 -0.0641  0.3228 -0.0271
   74MOL   C31326739   7.332   2.064   3.377  0.0052 -0.4354  0.3349
   74MOL   H31426740   7.229   2.102   2.758  0.4499  0.3717 -1.6905
   74MOL   H31526741   7.370   2.128   2.848 -0.7433 -1.2876  0.1109
   74MOL   H31626742   7.286   2.313   2.954 -0.0657  0.0299  1.5038
   74MOL   H31726743   7.115   2.064   3.021 -2.7008  1.2580  2.9162
   74MOL   H31826744   7.095   2.213   3.101  0.7176  2.2582  0.2809
   74MOL   H31926745   7.301   2.258   3.169  0.7138 -0.0628  0.6939
   74MOL   H32026746   7.386   2.115   3.106  0.5458 -0.3478  1.9181
   74MOL   H32126747   7.144   2.043   3.278  0.3004  0.1041  1.5090
   74MOL   H32226748   7.268   1.961   3.213 -1.5560  0.4983 -1.1795
   74MOL   H32326749   7.316   2.163   3.419 -0.2389 -0.9339  1.4638
   74MOL   H32426750   7.440   2.049   3.373  0.0266 -0.3462  0.5764
   74MOL   H32526751   7.295   1.982   3.439  0.6222 -0.2882  0.8997
   74MOL   C32626752   7.082   2.316   2.847 -0.0758  0.0568 -0.0306
   74MOL   C32726753   7.021   2.430   2.926  1.0403  0.3291  0.7162
   74MOL   C32826754   7.103   2.563   2.886 -0.5486 -0.7653 -0.1007
   74MOL   C32926755   7.090   2.669   2.999  0.3002 -0.1184 -0.3830
   74MOL   C33026756   7.164   2.796   2.975  0.2819  0.5560 -0.4288
   74MOL   C33126757   7.131   2.908   3.072 -0.2415 -0.3031  0.1165
   74MOL   H33226758   7.013   2.234   2.832  0.0348  0.1082 -0.8729
   74MOL   H33326759   7.114   2.351   2.748  1.6923  3.1354  1.5383
   74MOL   H33426760   7.029   2.413   3.034  0.8555  1.2829  0.8763
   74MOL   H33526761   7.210   2.540   2.880 -0.3368  0.6306 -2.0698
   74MOL   H33626762   7.092   2.607   2.787  0.8675  1.8197  0.8144
   74MOL   H33726763   7.119   2.622   3.093 -0.9814 -3.5903 -1.6190
   74MOL   H33826764   6.982   2.685   3.009  0.1386 -1.4184  0.1550
   74MOL   H33926765   7.273   2.783   2.980  0.3272  0.3924 -1.5602
   74MOL   H34026766   7.152   2.835   2.874 -0.8685  1.6980  0.1471
   74MOL   H34126767   7.139   2.885   3.178 -0.9578  2.3325  0.7771
   74MOL   H34226768   7.030   2.945   3.055 -0.5271 -0.2813  1.7784
   74MOL   H34326769   7.199   2.991   3.053 -0.6066 -0.0710 -0.1810
   74MOL   C34426770   6.872   2.448   2.895  0.0184  0.2418  0.1934
   74MOL   C34526771   6.780   2.332   2.941 -0.2348 -0.5325 -0.0343
   74MOL   C34626772   6.633   2.367   2.924  0.5150  0.4540  0.0943
   74MOL   C34726773   6.588   2.484   3.027 -0.0106  0.5719  0.4746
   74MOL   C34826774   6.438   2.517   3.033  0.1369 -0.8904  0.5562
   74MOL   C34926775   6.353   2.424   3.111 -0.8017 -0.0440  0.6824
   74MOL   H35026776   6.843   2.522   2.970 -1.3728 -0.4010  0.3267
   74MOL   H35126777   6.854   2.475   2.791  1.5070 -2.7837 -0.9179
   74MOL   H35226778   6.801   2.306   3.044  2.5590  1.3535 -0.0891
   74MOL   H35326779   6.607   2.401   2.824  0.8235 -0.9595 -0.4842
   74MOL   H35426780   6.581   2.272   2.940 -1.1861  1.2621 -0.5704
   74MOL   H35526781   6.620   2.454   3.127 -0.7855 -0.1592  0.5125
   74MOL   H35626782   6.648   2.569   2.995 -1.9277  1.4226 -0.9679
   74MOL   H35726783   6.440   2.618   3.076  2.2448  0.2502 -2.0306
   74MOL   H35826784   6.410   2.525   2.928  2.2000  0.4471  0.0627
   74MOL   H35926785   6.395   2.414   3.211 -0.1239  2.0673  0.6222
   74MOL   H36026786   6.253   2.466   3.119 -1.0061 -0.5002  0.5518
   74MOL   H36126787   6.351   2.321   3.075  2.3223 -0.2127  0.7872
   74MOL   H36226788   6.813   2.241   2.891  2.9132  1.3542 -1.5315
   75MOL     C126789   1.156   5.069   6.561 -0.0103 -0.1288  0.0122
   75MOL     C226790   1.170   4.937   6.645  0.2964 -0.1148 -0.4352
   75MOL     C326791   1.327   4.906   6.651  0.3412 -0.1558 -0.1182
   75MOL     C426792   1.379   4.816   6.762 -0.1019 -0.0933  0.1006
   75MOL     C526793   1.535   4.813   6.760  0.2657 -0.5627  0.1482
   75MOL     C626794   1.602   4.722   6.868 -0.5992  0.1604 -0.3802
   75MOL     H726795   1.211   5.152   6.606 -2.4413  1.9363 -0.7124
   75MOL     H826796   1.176   5.060   6.455  2.8032  1.7275  0.3265
   75MOL     H926797   1.141   4.963   6.747  0.5216 -0.4080 -0.2960
   75MOL    H1026798   1.370   5.004   6.673  0.2570 -0.4514  1.3671
   75MOL    H1126799   1.356   4.880   6.549 -2.1148  3.6236 -1.9219
   75MOL    H1226800   1.336   4.718   6.744  1.1179 -1.7417  5.1671
   75MOL    H1326801   1.338   4.844   6.859  1.1060 -0.2741  0.6773
   75MOL    H1426802   1.572   4.786   6.661 -0.8797 -1.4686 -0.0383
   75MOL    H1526803   1.565   4.914   6.788 -2.5935 -0.1232  1.7568
   75MOL    H1626804   1.708   4.701   6.863 -0.3663  0.6406  1.7369
   75MOL    H1726805   1.556   4.623   6.874 -0.0705 -0.0608  0.1454
   75MOL    H1826806   1.585   4.765   6.967  0.2142 -0.0516 -0.1466
   75MOL    H1926807   1.055   5.105   6.576  0.0580 -0.0096  0.1919
   75MOL    C2026808   1.087   4.826   6.571 -0.2964  0.0211  0.1022
   75MOL    C2126809   0.931   4.840   6.564  0.4733 -0.8162  0.0200
   75MOL    C2226810   0.880   4.711   6.498 -0.6235 -0.1972  0.6283
   75MOL    C2326811   0.936   4.679   6.362 -0.0571  0.6566  0.0069
   75MOL    C2426812   0.850   4.580   6.281 -0.4861  0.1211  0.4325
   75MOL    C2526813   0.932   4.537   6.160 -0.3992 -0.0902  0.3984
   75MOL    H2626814   1.110   4.740   6.633  1.4018 -0.4605 -1.1666
   75MOL    H2726815   1.132   4.810   6.473 -3.0089 -2.9369 -0.7497
   75MOL    H2826816   0.926   4.927   6.499  2.4502 -1.8996 -1.6464
   75MOL    H2926817   0.773   4.725   6.483 -0.9696 -0.2454  2.8933
   75MOL    H3026818   0.893   4.628   6.567  0.5150  0.2454  0.9607
   75MOL    H3126819   1.036   4.637   6.365 -0.0610  0.7158  1.4830
   75MOL    H3226820   0.943   4.769   6.300 -0.0677  0.9699  0.4580
   75MOL    H3326821   0.831   4.486   6.334 -0.8478 -0.2140 -0.2826
   75MOL    H3426822   0.755   4.616   6.244 -0.0109  0.2253 -0.7203
   75MOL    H3526823   0.942   4.620   6.090 -0.7523 -0.2337  0.1779
   75MOL    H3626824   1.031   4.497   6.183 -0.0596  1.8229  2.3634
   75MOL    H3726825   0.882   4.456   6.106 -0.9015  0.5428 -0.0883
   75MOL    C3826826   0.871   4.878   6.693  0.0204  0.5363 -0.0260
   75MOL    C3926827   0.721   4.917   6.709 -0.4647 -0.3704  0.0325
   75MOL    C4026828   0.665   4.902   6.856 -0.2965 -0.0169 -0.2303
   75MOL    C4126829   0.653   4.756   6.898 -0.6044  0.7905 -0.0499
   75MOL    C4226830   0.631   4.751   7.052  0.1937  0.2511 -0.1203
   75MOL    C4326831   0.604   4.612   7.102 -0.5851 -0.6638  0.1103
   75MOL    H4426832   0.932   4.964   6.721  0.8169  0.2842 -0.9756
   75MOL    H4526833   0.905   4.807   6.768  0.4130 -0.4820 -1.1573
   75MOL    H4626834   0.663   4.843   6.653 -3.1483  1.1764  0.6572
   75MOL    H4726835   0.730   4.946   6.932  0.0004  2.4971 -1.9106
   75MOL    H4826836   0.577   4.963   6.874 -1.0129 -0.8958 -0.7041
   75MOL    H4926837   0.566   4.708   6.851  1.5961 -3.2821 -0.1224
   75MOL    H5026838   0.745   4.708   6.865 -0.4121  0.2747  1.2278
   75MOL    H5126839   0.717   4.785   7.110  0.1403  1.5105 -0.7575
   75MOL    H5226840   0.557   4.828   7.075  0.5185  1.1601 -1.9475
   75MOL    H5326841   0.567   4.615   7.205  0.6612 -0.5582  0.5533
   75MOL    H5426842   0.692   4.550   7.086  1.2627  2.0007 -0.3044
   75MOL    H5526843   0.520   4.579   7.040 -0.5192  1.1214 -0.9713
   75MOL    C5626844   0.700   5.062   6.669 -1.1212 -0.1354  0.2154
   75MOL    C5726845   0.552   5.095   6.633  0.2126 -0.1246  0.4066
   75MOL    C5826846   0.517   5.112   6.482 -1.1301 -0.2292  0.6861
   75MOL    C5926847   0.587   5.009   6.390 -0.3735 -0.2623  0.8121
   75MOL    C6026848   0.588   5.054   6.241 -0.0623  0.0431  0.3030
   75MOL    C6126849   0.616   4.929   6.154 -0.5079 -0.3179  0.3047
   75MOL    H6226850   0.734   5.130   6.747 -0.6660 -0.5613  0.3890
   75MOL    H6326851   0.761   5.104   6.589 -0.3567  0.6829  1.2132
   75MOL    H6426852   0.498   5.005   6.662  1.9514 -1.6507 -0.8753
   75MOL    H6526853   0.409   5.118   6.474 -0.8586  4.2594 -1.4942
   75MOL    H6626854   0.535   5.215   6.451  0.1714 -0.6944 -0.1440
   75MOL    H6726855   0.525   4.919   6.392 -1.3481  0.4258  2.0727
   75MOL    H6826856   0.688   4.985   6.423  0.0714 -0.7617 -0.8431
   75MOL    H6926857   0.500   5.111   6.212  0.5394  0.4416 -0.7817
   75MOL    H7026858   0.667   5.129   6.232 -0.5076  0.3917 -0.8088
   75MOL    H7126859   0.715   4.890   6.178 -0.2671 -0.3945 -0.8243
   75MOL    H7226860   0.540   4.851   6.168 -0.6934 -0.2376 -0.2429
   75MOL    H7326861   0.597   4.962   6.053 -1.0555 -0.9727  0.1828
   75MOL    C7426862   0.507   5.204   6.726  0.0025 -0.2188  0.1598
   75MOL    C7526863   0.356   5.231   6.736  0.0490 -0.0379  0.5774
   75MOL    C7626864   0.275   5.109   6.791 -0.4201  0.1180  0.4514
   75MOL    C7726865   0.117   5.116   6.772 -0.3862  0.0809  0.1714
   75MOL    C7826866   0.050   4.978   6.795  0.1580 -0.8441 -0.2717
   75MOL    C7926867   0.038   4.942   6.941  0.4779 -0.2703  0.2910
   75MOL    H8026868   0.547   5.185   6.826 -1.1886  2.0071  1.0984
   75MOL    H8126869   0.566   5.285   6.683 -2.4394  1.6234  0.1311
   75MOL    H8226870   0.311   5.268   6.644  2.1095  0.8629 -0.0797
   75MOL    H8326871   0.302   5.024   6.728  1.6880  0.4138  0.9153
   75MOL    H8426872   0.295   5.069   6.890 -0.3394 -0.1644  0.3224
   75MOL    H8526873   0.072   5.187   6.840 -1.1416  0.9570 -1.2168
   75MOL    H8626874   0.104   5.155   6.671  4.1667  0.6864 -0.3090
   75MOL    H8726875   0.098   4.901   6.735 -0.0766  0.2445 -1.8900
   75MOL    H8826876   7.676   4.983   6.754  0.6743 -1.1483 -1.6101
   75MOL    H8926877   0.129   4.888   6.972  0.2679  0.1417  1.6877
   75MOL    H9026878   0.028   5.030   7.004  1.7735  1.2072 -1.5328
   75MOL    H9126879   7.671   4.888   6.950  0.0016  0.4834 -0.1840
   75MOL    C9226880   0.343   5.355   6.824 -0.4268 -0.8210 -0.1224
   75MOL    C9326881   0.228   5.451   6.803  0.3905  0.0655 -0.3491
   75MOL    C9426882   0.207   5.547   6.924 -0.0340  0.7059  0.3204
   75MOL    C9526883   0.186   5.475   7.061 -0.7141 -0.2005  0.3897
   75MOL    C9626884   0.172   5.563   7.188 -0.6657 -0.1956 -0.2048
   75MOL    C9726885   0.170   5.494   7.318  0.0069  0.2000  0.2175
   75MOL    H9826886   0.361   5.319   6.925  0.6674 -0.5474 -0.2079
   75MOL    H9926887   0.432   5.416   6.810 -0.9857 -0.1338 -0.6751
   75MOL   H10026888   0.144   5.383   6.791  1.4591 -1.6464  1.5529
   75MOL   H10126889   0.118   5.607   6.907 -0.5080 -0.0052  0.3120
   75MOL   H10226890   0.297   5.609   6.929 -0.1881  0.9049  0.6247
   75MOL   H10326891   0.092   5.421   7.056 -1.3676  1.0020 -0.3502
   75MOL   H10426892   0.270   5.407   7.079 -0.3175 -0.0238 -0.7404
   75MOL   H10526893   0.260   5.624   7.169 -2.5567  2.1281 -1.9334
   75MOL   H10626894   0.083   5.627   7.184 -1.6853 -1.4797  1.3712
   75MOL   H10726895   0.069   5.480   7.356  0.4831 -0.9359  1.0938
   75MOL   H10826896   0.209   5.392   7.317  0.9001  0.5368  0.4745
   75MOL   H10926897   0.207   5.555   7.400  1.9648  0.6733 -0.9826
   75MOL   C11026898   0.241   5.543   6.676 -0.6445  0.5388  0.5210
   75MOL   C11126899   0.109   5.606   6.633  0.2549  0.4578 -0.2563
   75MOL   C11226900   7.722   5.501   6.624  0.4051 -0.5885 -0.3649
   75MOL   C11326901   0.017   5.394   6.519  0.3169  1.0779 -0.1238
   75MOL   C11426902   7.611   5.313   6.498 -0.7029 -0.3944 -0.2698
   75MOL   C11526903   7.602   5.204   6.391  0.7931 -0.5516  0.5838
   75MOL   H11626904   0.311   5.625   6.691  1.3042 -1.3325  1.8814
   75MOL   H11726905   0.274   5.476   6.597  2.5415  1.1484  1.2836
   75MOL   H11826906   0.083   5.672   6.715  1.7200 -1.0572  1.4672
   75MOL   H11926907   7.630   5.551   6.592 -0.2071 -0.4709  1.5384
   75MOL   H12026908   7.695   5.454   6.718 -0.6357 -2.4491 -1.5749
   75MOL   H12126909   0.095   5.325   6.551 -1.4029 -0.1772  1.4214
   75MOL   H12226910   0.044   5.432   6.420  1.9827  0.0224 -0.1040
   75MOL   H12326911   7.530   5.386   6.492 -0.3381  0.0924  0.5217
   75MOL   H12426912   7.614   5.246   6.584 -3.0079 -1.0797 -0.6983
   75MOL   H12526913   7.513   5.142   6.401  1.5924 -1.6593  0.9473
   75MOL   H12626914   7.592   5.248   6.291 -0.9364 -1.2225  0.4512
   75MOL   H12726915   7.683   5.131   6.388  0.6522 -0.8020  2.5258
   75MOL   C12826916   0.125   5.689   6.501  0.1921 -0.0462  0.0882
   75MOL   C12926917   0.015   5.791   6.464 -0.1338  0.1667  0.3612
   75MOL   C13026918   0.060   5.869   6.335 -0.4099  0.3012  0.2117
   75MOL   C13126919   7.696   5.845   6.214 -0.2388 -0.3482  0.0943
   75MOL   C13226920   7.547   5.868   6.227 -0.1062 -0.0090 -0.6820
   75MOL   C13326921   7.466   5.846   6.103 -0.3869  0.0492 -0.4793
   75MOL   H13426922   0.159   5.619   6.426 -0.9118 -1.0044  0.4770
   75MOL   H13526923   0.211   5.754   6.519 -0.3504  0.7723 -0.2359
   75MOL   H13626924   7.654   5.733   6.437 -0.5131  1.6746 -1.7480
   75MOL   H13726925   0.071   5.973   6.366 -0.7456  0.3508  0.1571
   75MOL   H13826926   0.156   5.826   6.306 -0.6713 -1.1861  1.4668
   75MOL   H13926927   7.715   5.743   6.180  1.4169  0.3303 -1.0319
   75MOL   H14026928   0.008   5.896   6.126  1.1310 -0.7975  0.4177
   75MOL   H14126929   7.514   5.807   6.311 -0.0776 -0.7687 -1.2180
   75MOL   H14226930   7.524   5.962   6.278 -2.0245 -1.6895  1.6987
   75MOL   H14326931   7.486   5.747   6.062 -0.1157 -0.1581  0.1550
   75MOL   H14426932   7.483   5.923   6.027  0.5604  1.1823  0.8599
   75MOL   H14526933   7.360   5.845   6.129 -0.0049  0.6940  1.1644
   75MOL   C14626934   7.706   5.888   6.583 -0.2111 -0.3106  0.4636
   75MOL   C14726935   7.583   5.974   6.577 -0.8691 -1.0749  0.4323
   75MOL   C14826936   7.622   6.124   6.581  0.6867  0.1276  0.2803
   75MOL   C14926937   7.520   6.232   6.548 -0.6971  0.3268  0.3437
   75MOL   C15026938   7.569   6.380   6.546 -0.2308  0.2950  0.1873
   75MOL   C15126939   7.498   6.477   6.444  0.7201  0.0513  0.8692
   75MOL   H15226940   7.684   5.816   6.662  0.7604 -0.9153  0.1910
   75MOL   H15326941   0.075   5.931   6.610 -0.4316 -0.1389  0.9701
   75MOL   H15426942   7.548   5.963   6.475  1.2023 -2.5936 -0.1407
   75MOL   H15526943   7.697   6.137   6.503 -0.9849  0.1627 -1.3465
   75MOL   H15626944   7.663   6.140   6.681 -0.2305 -1.1899  0.8866
   75MOL   H15726945   7.474   6.216   6.450  0.8124  1.1616 -0.5223
   75MOL   H15826946   7.434   6.228   6.614  0.8597 -0.2064  2.3754
   75MOL   H15926947   7.676   6.377   6.526 -0.3513  1.1507 -0.6285
   75MOL   H16026948   7.559   6.415   6.649  2.8002 -1.6647  1.2117
   75MOL   H16126949   7.490   6.431   6.346 -0.1290  1.7023  0.1580
   75MOL   H16226950   7.396   6.506   6.470  0.6117  0.9759 -0.5762
   75MOL   H16326951   7.556   6.569   6.439 -1.5275  1.4320 -0.5260
   75MOL   C16426952   7.472   5.942   6.678 -0.4961 -0.0016  0.4027
   75MOL   C16526953   7.392   5.813   6.641  0.0128 -0.2820  1.0985
   75MOL   C16626954   7.353   5.729   6.761  0.0978 -0.1640  0.2615
   75MOL   C16726955   7.464   5.680   6.848  0.3251  0.2909  0.3406
   75MOL   C16826956   7.427   5.561   6.940  0.0566  0.0535 -0.2468
   75MOL   C16926957   7.541   5.539   7.040 -0.1059 -0.0333 -0.7936
   75MOL   H17026958   7.513   5.932   6.778  1.5248 -0.1808 -0.4210
   75MOL   H17126959   7.404   6.027   6.682 -2.4399 -1.1965 -4.0356
   75MOL   H17226960   7.460   5.749   6.585  2.4269  0.6066  2.9095
   75MOL   H17326961   7.303   5.642   6.719  0.6242  0.2255 -1.1944
   75MOL   H17426962   7.288   5.783   6.830 -0.7406  0.5864 -1.0963
   75MOL   H17526963   7.481   5.760   6.919 -3.3464  1.0559  0.4387
   75MOL   H17626964   7.554   5.657   6.790  0.6125  0.6666  0.6327
   75MOL   H17726965   7.399   5.466   6.894 -0.8588  0.8536 -1.3604
   75MOL   H17826966   7.335   5.595   6.988 -0.0443  1.8227 -1.6428
   75MOL   H17926967   7.615   5.487   6.981  0.2866 -1.0239  0.5469
   75MOL   H18026968   7.505   5.479   7.123  0.9292 -0.1382 -0.4107
   75MOL   H18126969   7.586   5.635   7.068 -3.3761  1.1446  0.6794
   75MOL   C18226970   7.275   5.861   6.556  0.6960 -0.5273 -0.3819
   75MOL   C18326971   7.185   5.748   6.493 -0.0556 -0.3827 -0.5551
   75MOL   C18426972   7.245   5.650   6.397  0.2121  0.5057  1.0132
   75MOL   C18526973   7.163   5.531   6.364  0.2860  0.6603  0.0089
   75MOL   C18626974   7.243   5.399   6.315  0.1760 -0.2138  0.5374
   75MOL   C18726975   7.159   5.280   6.274  0.0041  0.0030  0.0258
   75MOL   H18826976   7.217   5.930   6.616  0.5007 -0.7739 -0.2900
   75MOL   H18926977   7.313   5.912   6.467 -2.8690 -0.2542 -1.8243
   75MOL   H19026978   7.146   5.701   6.583  0.2343 -3.5180 -2.0008
   75MOL   H19126979   7.252   5.691   6.296 -2.2048  0.1865  0.6715
   75MOL   H19226980   7.344   5.612   6.421 -0.0090 -0.9772 -0.3213
   75MOL   H19326981   7.087   5.541   6.286  1.8179 -1.8211 -1.8615
   75MOL   H19426982   7.107   5.499   6.452  2.4040  0.4369  1.2986
   75MOL   H19526983   7.315   5.369   6.392  0.0712 -0.0949  0.6844
   75MOL   H19626984   7.301   5.414   6.224  0.0891 -0.8290  0.3798
   75MOL   H19726985   7.100   5.225   6.347 -0.9436 -1.0921 -1.5168
   75MOL   H19826986   7.213   5.199   6.225 -0.1790  0.0016 -0.1758
   75MOL   H19926987   7.087   5.305   6.196  0.4883  2.5283  0.3675
   75MOL   C20026988   7.058   5.818   6.434 -0.1685  0.7959  0.1059
   75MOL   C20126989   6.918   5.753   6.443 -0.4731  0.7553 -0.2610
   75MOL   C20226990   6.862   5.721   6.585 -0.1086 -0.3052 -0.7732
   75MOL   C20326991   6.833   5.841   6.675 -0.7075  0.2140 -0.8683
   75MOL   C20426992   6.801   5.794   6.819 -0.0751  0.1096  0.1134
   75MOL   C20526993   6.929   5.775   6.909 -0.0343  0.4844  0.1848
   75MOL   H20626994   7.084   5.832   6.329 -4.0988  0.4993 -0.9748
   75MOL   H20726995   7.046   5.914   6.483  1.9351 -0.4584  3.1894
   75MOL   H20826996   6.924   5.651   6.406  1.1161  0.0945  1.7174
   75MOL   H20926997   6.937   5.652   6.625 -0.0282  1.8816  3.0838
   75MOL   H21026998   6.776   5.653   6.584 -0.2852 -0.1330  0.7514
   75MOL   H21126999   6.752   5.905   6.640  0.2502  2.2509  0.5880
   75MOL   H21227000   6.924   5.900   6.670 -0.2557 -0.5188 -1.3840
   75MOL   H21327001   6.744   5.701   6.827 -0.9766  0.3491 -2.8032
   75MOL   H21427002   6.740   5.873   6.861  2.0014  0.9287  1.6315
   75MOL   H21527003   6.974   5.870   6.938  1.5851 -0.0723 -0.4372
   75MOL   H21627004   6.893   5.726   6.999  0.1625 -0.3476 -0.1827
   75MOL   H21727005   7.005   5.712   6.863 -1.1142  0.0132 -0.9920
   75MOL   C21827006   6.807   5.818   6.351 -0.3499  0.1250 -0.5397
   75MOL   C21927007   6.687   5.725   6.316  0.3576 -0.4129  0.2661
   75MOL   C22027008   6.727   5.636   6.201 -0.3213 -0.2522  0.0274
   75MOL   C22127009   6.647   5.516   6.178  0.1630 -0.8557 -0.1974
   75MOL   C22227010   6.688   5.409   6.071 -0.3936 -0.0658  0.5652
   75MOL   C22327011   6.588   5.292   6.062  0.9122 -0.1995 -0.2942
   75MOL   H22427012   6.789   5.909   6.408 -1.4942 -0.9738  0.8799
   75MOL   H22527013   6.851   5.844   6.254  0.8276 -0.3860 -0.1559
   75MOL   H22627014   6.657   5.659   6.397 -1.5542 -0.4334 -0.4392
   75MOL   H22727015   6.833   5.615   6.217 -0.2618  1.2737  1.8690
   75MOL   H22827016   6.728   5.692   6.108 -0.5892 -2.2070 -1.1697
   75MOL   H22927017   6.546   5.550   6.156 -0.0277  0.2891  2.3550
   75MOL   H23027018   6.634   5.465   6.273  0.7634 -1.7216 -0.5653
   75MOL   H23127019   6.707   5.464   5.978  1.6361 -1.0031  0.3919
   75MOL   H23227020   6.782   5.363   6.102 -0.9812 -1.5841  0.1283
   75MOL   H23327021   6.588   5.251   6.163  0.9369 -0.4433 -0.3925
   75MOL   H23427022   6.618   5.228   5.979  0.0926 -0.3983 -0.4441
   75MOL   H23527023   6.488   5.325   6.032  1.4497  0.1822 -1.7189
   75MOL   C23627024   6.567   5.821   6.291  0.4660  0.2207 -0.1916
   75MOL   C23727025   6.502   5.883   6.420 -0.1919 -0.5080  0.1808
   75MOL   C23827026   6.437   5.779   6.505 -0.6335  0.3844 -0.5873
   75MOL   C23927027   6.441   5.810   6.655  0.3791 -0.4223  0.7947
   75MOL   C24027028   6.400   5.688   6.739 -0.5615 -0.0280  0.3158
   75MOL   C24127029   6.258   5.657   6.735  0.4193  0.1249  0.0741
   75MOL   H24227030   6.608   5.899   6.228 -0.4886  1.4825  0.7140
   75MOL   H24327031   6.490   5.765   6.237  0.3998  1.2512 -1.1855
   75MOL   H24427032   6.583   5.924   6.481 -0.7596  1.0635 -0.0889
   75MOL   H24527033   6.337   5.767   6.464  0.1523  1.8429 -3.0484
   75MOL   H24627034   6.481   5.681   6.489  1.0032  0.5345  2.5360
   75MOL   H24727035   6.382   5.897   6.685 -2.2774 -2.2026  0.8748
   75MOL   H24827036   6.542   5.833   6.690  0.7947  0.0073 -0.6827
   75MOL   H24927037   6.462   5.605   6.706  1.4446  2.3179 -1.9766
   75MOL   H25027038   6.422   5.717   6.842 -1.6812  1.6922  0.0896
   75MOL   H25127039   6.200   5.747   6.750  0.1621  0.5323 -3.0191
   75MOL   H25227040   6.226   5.607   6.643  0.1538 -0.4047  0.4497
   75MOL   H25327041   6.238   5.602   6.828  0.1589 -0.5237 -0.3583
   75MOL   C25427042   6.404   6.002   6.393  0.5508 -0.5431 -0.1520
   75MOL   C25527043   6.422   6.123   6.490 -0.3458  0.5364 -0.4344
   75MOL   C25627044   6.293   6.210   6.499  0.1309  0.3922  0.0682
   75MOL   C25727045   6.217   6.227   6.365  0.7010 -0.5984  0.0022
   75MOL   C25827046   6.113   6.340   6.370 -0.0437  0.2653 -0.3152
   75MOL   C25927047   6.006   6.327   6.260  0.8376  0.6389  0.6289
   75MOL   H26027048   6.302   5.969   6.376  0.4216 -1.0435  1.5702
   75MOL   H26127049   6.433   6.045   6.297  2.7656 -0.7889  0.3723
   75MOL   H26227050   6.443   6.083   6.589 -2.6428  0.4503  0.0575
   75MOL   H26327051   6.231   6.169   6.578  1.4135  1.5322  1.7140
   75MOL   H26427052   6.318   6.314   6.521  1.8037  0.2726 -1.1621
   75MOL   H26527053   6.298   6.247   6.295 -0.6685  0.7587 -1.2560
   75MOL   H26627054   6.171   6.140   6.320  0.1593 -0.8014  0.9210
   75MOL   H26727055   6.155   6.438   6.348  0.5206  0.1122  0.0543
   75MOL   H26827056   6.069   6.332   6.470  1.4450 -1.1238  0.2537
   75MOL   H26927057   5.987   6.422   6.210  1.9153  2.2801  3.2700
   75MOL   H27027058   5.915   6.276   6.293  1.2233  0.4681  1.4391
   75MOL   H27127059   6.058   6.276   6.179 -1.8015  0.2846 -0.8971
   75MOL   C27227060   6.544   6.213   6.453  0.0999  0.1915  0.7271
   75MOL   C27327061   6.603   6.301   6.569 -0.1806 -0.7879  0.3351
   75MOL   C27427062   6.669   6.422   6.516  0.4112  0.4487  0.4372
   75MOL   C27527063   6.567   6.535   6.496  0.1530  0.2871 -0.7534
   75MOL   C27627064   6.609   6.658   6.428  0.1356  0.6689  0.0728
   75MOL   C27727065   6.505   6.764   6.427  0.4767  0.0677 -0.4669
   75MOL   H27827066   6.623   6.144   6.424 -0.9767 -0.9758  0.5377
   75MOL   H27927067   6.513   6.260   6.360  1.3830 -1.2484 -0.4694
   75MOL   H28027068   6.518   6.336   6.628 -0.1612  1.5680 -1.0147
   75MOL   H28127069   6.724   6.398   6.425 -1.0937  0.0983 -0.3935
   75MOL   H28227070   6.734   6.470   6.589 -0.9442  1.2955  1.1197
   75MOL   H28327071   6.526   6.552   6.596  1.3133  0.1428 -0.2438
   75MOL   H28427072   6.483   6.499   6.438  0.6831  1.4923 -2.3003
   75MOL   H28527073   6.689   6.697   6.491  1.2690 -0.4796 -0.6049
   75MOL   H28627074   6.655   6.625   6.334 -0.1497  0.6049 -0.0430
   75MOL   H28727075   6.548   6.859   6.396  1.1527  0.3335  1.2183
   75MOL   H28827076   6.426   6.736   6.357 -0.0557  0.3551  0.0149
   75MOL   H28927077   6.459   6.781   6.525  1.0642 -0.5512 -0.0884
   75MOL   C29027078   6.701   6.220   6.660  0.1672 -0.7868  0.0460
   75MOL   C29127079   6.738   6.286   6.797  0.0578  0.7909  0.2431
   75MOL   C29227080   6.618   6.281   6.902  0.6948 -0.1588 -0.4927
   75MOL   C29327081   6.650   6.342   7.039  0.4086  0.1172 -0.5496
   75MOL   C29427082   6.511   6.345   7.121 -0.0400  0.5228 -0.0225
   75MOL   C29527083   6.535   6.390   7.264 -0.3751  0.4600 -0.1870
   75MOL   H29627084   6.786   6.188   6.599 -1.2317 -0.9711 -1.8569
   75MOL   H29727085   6.665   6.121   6.688  1.5251 -1.1863  0.4191
   75MOL   H29827086   6.770   6.387   6.772  0.8085  0.9352  1.6894
   75MOL   H29927087   6.571   6.183   6.911 -1.8210  0.6704 -3.8062
   75MOL   H30027088   6.535   6.335   6.857 -1.0867 -0.7507  2.0329
   75MOL   H30127089   6.730   6.284   7.085  0.1517  1.2152  1.3359
   75MOL   H30227090   6.692   6.441   7.021 -0.4390  0.1730 -2.2777
   75MOL   H30327091   6.459   6.250   7.108  0.8584 -0.0294  0.3823
   75MOL   H30427092   6.451   6.421   7.070  0.2925 -0.5230 -2.0202
   75MOL   H30527093   6.440   6.379   7.316  0.9171  0.1651  2.1872
   75MOL   H30627094   6.578   6.490   7.268  0.4056  0.1168  0.1211
   75MOL   H30727095   6.593   6.316   7.319 -1.8880 -0.6722 -0.0770
   75MOL   C30827096   6.864   6.213   6.858 -0.5353  0.4244  0.0475
   75MOL   C30927097   6.953   6.319   6.923 -0.3337 -0.0428 -0.8987
   75MOL   C31027098   7.019   6.416   6.825 -0.0373 -0.0795 -0.2803
   75MOL   C31127099   7.089   6.344   6.710  0.3150 -0.5367  0.8539
   75MOL   C31227100   7.158   6.442   6.613 -0.2535  0.2458  0.1791
   75MOL   C31327101   7.086   6.559   6.556 -0.0833 -0.0592 -0.4056
   75MOL   H31427102   6.820   6.155   6.939  0.2505 -1.0703 -0.5670
   75MOL   H31527103   6.925   6.141   6.803 -1.5561 -1.0124  0.7706
   75MOL   H31627104   6.899   6.384   6.991  0.5407 -0.3460  0.1020
   75MOL   H31727105   7.089   6.482   6.877 -0.5091 -0.4532  0.8406
   75MOL   H31827106   6.947   6.486   6.781 -2.3423 -1.6487  0.8853
   75MOL   H31927107   7.008   6.299   6.652  2.0405 -0.6192 -1.5811
   75MOL   H32027108   7.154   6.262   6.743  2.6105  1.5893  1.7841
   75MOL   H32127109   7.243   6.476   6.672 -0.2009  2.6986 -1.2523
   75MOL   H32227110   7.200   6.382   6.532 -1.8168  0.8008 -1.0799
   75MOL   H32327111   7.069   6.641   6.626 -0.4770  1.9161 -2.7481
   75MOL   H32427112   6.988   6.530   6.518  0.2192 -1.9461  0.2050
   75MOL   H32527113   7.137   6.599   6.469 -1.5164 -1.6043 -2.0054
   75MOL   C32627114   7.066   6.257   7.004 -0.2533 -0.3296  0.4022
   75MOL   C32727115   7.034   6.221   7.158 -0.0713  0.8922  0.4169
   75MOL   C32827116   7.141   6.125   7.220  0.3565 -0.1549 -0.0017
   75MOL   C32927117   7.082   6.009   7.302  0.2873 -0.0648  0.3510
   75MOL   C33027118   7.190   5.937   7.389  0.1875 -0.2462  0.6019
   75MOL   C33127119   7.278   5.842   7.314 -0.4557  0.2721  0.7306
   75MOL   H33227120   7.144   6.332   7.011  0.2288 -0.8639  0.7452
   75MOL   H33327121   7.107   6.169   6.955 -0.5338 -0.8271  1.0483
   75MOL   H33427122   6.952   6.149   7.162 -0.9607  1.7504 -1.8476
   75MOL   H33527123   7.205   6.082   7.143 -2.2982  1.1966 -3.0687
   75MOL   H33627124   7.216   6.180   7.278 -0.1936 -0.5490  1.0929
   75MOL   H33727125   7.036   5.929   7.243  0.0410 -0.0015  0.4572
   75MOL   H33827126   7.005   6.050   7.367  0.3508  2.0404 -0.8329
   75MOL   H33927127   7.257   6.013   7.428  0.2787  0.4079 -0.7931
   75MOL   H34027128   7.139   5.890   7.473  0.6744 -2.7791 -0.4915
   75MOL   H34127129   7.214   5.773   7.259 -1.4215 -0.6681  2.9710
   75MOL   H34227130   7.347   5.782   7.374  1.1675  0.2518 -1.0819
   75MOL   H34327131   7.347   5.882   7.240  2.2760 -1.9753  1.9429
   75MOL   C34427132   7.019   6.350   7.240  0.2988  0.1333 -0.5312
   75MOL   C34527133   6.940   6.335   7.369  0.2007  0.3895  0.3804
   75MOL   C34627134   6.892   6.477   7.425  0.6491 -0.2770  1.1440
   75MOL   C34727135   6.788   6.457   7.531 -0.5681  0.1523 -0.3308
   75MOL   C34827136   6.857   6.406   7.661  0.0194  0.3494  0.1230
   75MOL   C34927137   6.765   6.387   0.049  0.2030 -0.5949 -0.0560
   75MOL   H35027138   7.117   6.389   7.266  0.0582 -0.3014  1.0669
   75MOL   H35127139   6.976   6.434   7.184  2.2277  2.0785  0.8257
   75MOL   H35227140   6.992   6.272   7.440  1.2220  2.6838  1.7322
   75MOL   H35327141   6.979   6.535   7.459  0.0840  0.9992  0.4396
   75MOL   H35427142   6.850   6.550   7.356  0.7104 -1.7115 -0.4444
   75MOL   H35527143   6.739   6.553   7.550  0.9849  1.2325 -1.6211
   75MOL   H35627144   6.704   6.404   7.487 -1.3644  1.8159 -0.8899
   75MOL   H35727145   6.899   6.306   7.656  0.8104  0.5646  2.1094
   75MOL   H35827146   6.935   6.478   7.684 -0.8816  1.8368 -1.3548
   75MOL   H35927147   6.721   6.482   0.079 -0.1665 -0.1716 -1.8828
   75MOL   H36027148   6.680   6.322   0.030  0.0579 -0.6320  0.6983
   75MOL   H36127149   6.827   6.348   0.130 -1.8872 -0.4609  1.6344
   75MOL   H36227150   6.854   6.271   7.348  0.5274 -0.3758  1.3376
   76MOL     C127151   3.904   6.843   6.866  0.0177 -0.2930  0.3568
   76MOL     C227152   3.924   6.847   6.717  0.0324  0.3402  0.0094
   76MOL     C327153   3.914   6.699   6.665 -0.2887  0.1368 -0.0470
   76MOL     C427154   4.045   6.615   6.711  0.5199  0.3126  0.2938
   76MOL     C527155   4.040   6.467   6.688 -0.0694  0.2550 -0.2370
   76MOL     C627156   4.155   6.388   6.756 -0.3028  0.3689 -0.9744
   76MOL     H727157   3.818   6.780   6.889  1.0323 -1.6823  0.3887
   76MOL     H827158   3.996   6.802   6.907  1.7921  1.0076 -2.2002
   76MOL     H927159   3.841   6.903   6.675 -0.3492 -1.2835 -1.4630
   76MOL    H1027160   3.924   6.699   6.557 -0.1393 -1.4282 -0.0359
   76MOL    H1127161   3.823   6.646   6.692 -2.7490  3.3626 -1.6005
   76MOL    H1227162   4.062   6.626   6.818  0.4282  1.3150  0.2080
   76MOL    H1327163   4.144   6.647   6.679  2.1433 -2.1548  2.6692
   76MOL    H1427164   3.945   6.426   6.724  0.0226  0.3483  0.1132
   76MOL    H1527165   4.049   6.443   6.582  0.9648 -1.1528  0.1582
   76MOL    H1627166   4.255   6.412   6.720 -0.1864  0.8485 -0.3222
   76MOL    H1727167   4.140   6.281   6.742  2.0214 -0.1684  0.3646
   76MOL    H1827168   4.162   6.401   6.864 -1.8356  2.0171 -1.0514
   76MOL    H1927169   3.887   6.943   6.906  1.9032 -0.2031  0.9617
   76MOL    C2027170   4.042   6.927   6.668 -0.1000  0.0438  0.4417
   76MOL    C2127171   4.022   7.080   6.712  0.0074  0.3109  0.2473
   76MOL    C2227172   4.091   7.120   6.846 -0.3873  0.4213 -0.5654
   76MOL    C2327173   4.032   7.250   6.900 -0.6580 -0.3881  0.0991
   76MOL    C2427174   4.108   7.324   7.016  0.8874 -0.5422  0.4225
   76MOL    C2527175   4.076   7.471   7.025 -0.3204 -0.3801  0.6881
   76MOL    H2627176   4.033   6.920   6.560  2.5711 -0.7559  0.2403
   76MOL    H2727177   4.138   6.885   6.697 -0.2826 -0.2976  0.5516
   76MOL    H2827178   3.915   7.097   6.725 -0.2757 -3.1342  3.4145
   76MOL    H2927179   4.199   7.131   6.831  0.2261 -3.1334  0.7997
   76MOL    H3027180   4.076   7.054   6.932  0.6829 -1.1832 -1.5781
   76MOL    H3127181   3.928   7.232   6.930 -0.9333  1.6810  0.4992
   76MOL    H3227182   4.028   7.326   6.821 -1.6185  1.9095  2.2759
   76MOL    H3327183   4.082   7.274   7.109 -0.1890 -1.0329 -0.1224
   76MOL    H3427184   4.213   7.298   7.004  0.5521 -1.7427  0.0295
   76MOL    H3527185   4.104   7.518   6.931 -2.2014  0.0697  0.3260
   76MOL    H3627186   3.970   7.466   7.050  0.0332  2.0258  2.9228
   76MOL    H3727187   4.124   7.521   7.109 -0.1075 -3.0904  2.2462
   76MOL    C3827188   4.081   7.171   6.601 -0.5140  0.6221 -0.1100
   76MOL    C3927189   3.993   7.185   6.468 -0.1309 -0.3991 -0.7140
   76MOL    C4027190   3.857   7.253   6.507  0.6019  0.5390 -0.2549
   76MOL    C4127191   3.768   7.264   6.382  1.0867  0.2030 -0.0289
   76MOL    C4227192   3.621   7.300   6.409  0.5044  0.1676  0.4025
   76MOL    C4327193   3.538   7.294   6.282 -0.0081  0.7291  0.4298
   76MOL    H4427194   4.180   7.136   6.574 -1.1616  0.1898 -2.0248
   76MOL    H4527195   4.091   7.276   6.628  1.8262  0.4478 -0.2410
   76MOL    H4627196   3.956   7.084   6.447 -0.0157 -0.3529 -1.1594
   76MOL    H4727197   3.802   7.185   6.572 -0.7187  1.5132 -0.3413
   76MOL    H4827198   3.876   7.335   6.576  0.6057 -0.6011  1.1289
   76MOL    H4927199   3.819   7.337   6.319  0.9937 -0.3389 -0.7368
   76MOL    H5027200   3.769   7.167   6.334 -0.7304  1.5143 -2.8721
   76MOL    H5127201   3.580   7.225   6.477  0.6993 -0.9942 -0.7485
   76MOL    H5227202   3.605   7.401   6.447 -0.7930  0.8399 -1.8011
   76MOL    H5327203   3.585   7.353   6.203 -1.2464  0.4579 -0.5189
   76MOL    H5427204   3.436   7.332   6.288  0.1257  1.2303 -0.3770
   76MOL    H5527205   3.537   7.194   6.239  0.2499  1.2751 -0.8842
   76MOL    C5627206   4.073   7.256   6.355 -0.5343 -0.0311 -0.0848
   76MOL    C5727207   4.213   7.219   6.304 -0.0115  0.0013  0.2328
   76MOL    C5827208   4.249   7.307   6.189  0.1111 -0.4130 -0.5256
   76MOL    C5927209   4.231   7.461   6.198 -0.3681  0.1344 -0.5629
   76MOL    C6027210   4.315   7.546   6.086  0.2857 -0.1846  0.4496
   76MOL    C6127211   4.296   7.504   5.932 -0.4688  0.3843  0.3523
   76MOL    H6227212   4.016   7.247   6.263 -2.4704  0.9659  0.9799
   76MOL    H6327213   4.065   7.363   6.376  3.1252  0.9000 -2.8935
   76MOL    H6427214   4.283   7.231   6.386  0.5611  0.6896 -0.3532
   76MOL    H6527215   4.356   7.300   6.167  0.1817 -3.7751  0.6601
   76MOL    H6627216   4.193   7.280   6.100 -0.7063 -0.1590 -0.0971
   76MOL    H6727217   4.265   7.494   6.296 -1.9022  1.6360 -0.5133
   76MOL    H6827218   4.126   7.489   6.195 -0.3170  0.9033  2.7559
   76MOL    H6927219   4.286   7.651   6.091 -0.4015 -0.4262  1.6874
   76MOL    H7027220   4.420   7.546   6.114  0.2516  2.7360  0.7232
   76MOL    H7127221   4.189   7.514   5.913 -0.3116  0.6094 -0.4281
   76MOL    H7227222   4.317   7.577   5.854 -1.8690  0.0638 -0.3426
   76MOL    H7327223   4.335   7.407   5.903 -2.2634  0.3415 -2.1589
   76MOL    C7427224   4.213   7.068   6.270  0.4524 -0.4246 -0.0834
   76MOL    C7527225   4.335   6.991   6.230  0.2121 -0.1314  0.4577
   76MOL    C7627226   4.378   7.016   6.082  0.6497  0.5065  0.4011
   76MOL    C7727227   4.454   6.901   6.019 -0.2814 -0.3756  0.2905
   76MOL    C7827228   4.533   6.947   5.892  0.2989 -0.7391 -0.8616
   76MOL    C7927229   4.444   6.952   5.765 -0.5927 -0.4715  0.3184
   76MOL    H8027230   4.169   7.012   6.352  1.1600  0.4993  0.9392
   76MOL    H8127231   4.149   7.058   6.182 -0.6063  1.7114  0.4085
   76MOL    H8227232   4.315   6.884   6.243  2.1278 -0.4466  1.0893
   76MOL    H8327233   4.289   7.015   6.019  1.5394 -0.8112 -0.8692
   76MOL    H8427234   4.437   7.108   6.077  1.3725  0.1162  1.6139
   76MOL    H8527235   4.518   6.861   6.098  0.0273 -0.8793 -0.2029
   76MOL    H8627236   4.380   6.830   5.981 -0.5393  0.6250 -1.0974
   76MOL    H8727237   4.612   6.878   5.859 -0.1691 -0.5498 -2.3934
   76MOL    H8827238   4.584   7.041   5.910 -1.8011 -0.0074  1.3895
   76MOL    H8927239   4.498   6.947   5.670  0.2570 -0.5406  0.8067
   76MOL    H9027240   4.373   6.870   5.758 -1.3741  0.2232  0.0017
   76MOL    H9127241   4.386   7.045   5.764  1.3194  0.7617 -1.1261
   76MOL    C9227242   4.458   7.022   6.326  0.5993  0.7199  0.0545
   76MOL    C9327243   4.440   6.963   6.468 -0.4641  0.4841  0.1181
   76MOL    C9427244   4.419   6.807   6.491  0.6211 -0.8611  0.4868
   76MOL    C9527245   4.535   6.709   6.451 -0.4891  0.4610 -0.7602
   76MOL    C9627246   4.496   6.563   6.479  0.3717 -0.7043  0.2459
   76MOL    C9727247   4.593   6.457   6.422 -0.2392  0.0087  0.2966
   76MOL    H9827248   4.553   6.987   6.287  0.8557 -1.0031  2.1163
   76MOL    H9927249   4.451   7.130   6.336 -1.0382  0.5415  1.2615
   76MOL   H10027250   4.349   7.013   6.499 -1.0518 -0.2554 -0.4016
   76MOL   H10127251   4.328   6.784   6.435 -0.3532 -0.9828  2.1131
   76MOL   H10227252   4.380   6.806   6.592  0.1995  0.6041  0.3645
   76MOL   H10327253   4.578   6.727   6.353 -0.6843 -2.3715 -1.4312
   76MOL   H10427254   4.612   6.722   6.527 -0.5339 -0.4683 -0.5376
   76MOL   H10527255   4.488   6.555   6.587  0.7637 -0.4077  0.3000
   76MOL   H10627256   4.397   6.561   6.434 -0.0676 -1.9188  1.2533
   76MOL   H10727257   4.696   6.464   6.456 -0.5429  1.8731  0.8326
   76MOL   H10827258   4.559   6.359   6.458  0.7130 -1.1070 -1.7154
   76MOL   H10927259   4.600   6.461   6.313  0.7934 -0.9431  0.3115
   76MOL   C11027260   4.564   7.017   6.547 -0.1871 -0.2593 -0.5149
   76MOL   C11127261   4.583   6.975   6.695  0.2828  0.3182 -0.2557
   76MOL   C11227262   4.480   7.025   6.786  0.1813 -0.0918 -0.2445
   76MOL   C11327263   4.486   6.973   6.932  0.6001 -0.3104 -0.1910
   76MOL   C11427264   4.476   6.817   6.948 -0.3053 -0.4761 -0.3399
   76MOL   C11527265   4.335   6.764   6.907  0.1275 -0.4616  0.5999
   76MOL   H11627266   4.661   6.989   6.507  0.4721  1.6639 -0.3551
   76MOL   H11727267   4.559   7.126   6.537 -1.3714 -0.4589 -2.1909
   76MOL   H11827268   4.585   6.866   6.691  0.1023  0.2490  1.3884
   76MOL   H11927269   4.383   6.990   6.750 -0.2183  0.6974  0.0333
   76MOL   H12027270   4.480   7.134   6.773 -3.8231 -0.1976 -1.9345
   76MOL   H12127271   4.406   7.022   6.988 -0.3989 -0.2586 -1.6325
   76MOL   H12227272   4.572   7.016   6.982  0.5218  0.5097 -0.7429
   76MOL   H12327273   4.481   6.794   7.055  0.5734  1.0683 -0.0301
   76MOL   H12427274   4.553   6.758   6.898  0.3337 -0.1767  0.2720
   76MOL   H12527275   4.254   6.803   6.969 -0.2720 -0.9259  0.3726
   76MOL   H12627276   4.313   6.787   6.803 -0.1594 -2.3338  0.2235
   76MOL   H12727277   4.329   6.655   6.908  0.6118 -0.5176 -1.1213
   76MOL   C12827278   4.727   7.010   6.747 -0.0287  0.4219  0.2832
   76MOL   C12927279   4.778   7.156   6.732 -0.2048  0.0080 -0.5584
   76MOL   C13027280   4.927   7.141   6.733  0.4748 -0.4757 -0.2387
   76MOL   C13127281   4.996   7.095   6.605  1.0912  0.0843 -0.3288
   76MOL   C13227282   5.146   7.135   6.599 -0.1454  0.6459 -0.0825
   76MOL   C13327283   5.223   7.095   6.466 -0.3092 -0.3390 -0.4870
   76MOL   H13427284   4.797   6.948   6.691 -0.5421 -1.1650  1.3536
   76MOL   H13527285   4.746   6.975   6.848 -1.2162 -0.5833  0.1764
   76MOL   H13627286   4.742   7.199   6.638 -0.7781  1.6223  0.3749
   76MOL   H13727287   4.969   7.235   6.768 -0.7848 -0.3336  0.9176
   76MOL   H13827288   4.961   7.080   6.816 -0.0370 -0.0425  0.2866
   76MOL   H13927289   4.947   7.137   6.516 -0.6765  0.5521  0.8400
   76MOL   H14027290   4.988   6.987   6.593 -1.3949  0.2306 -0.2907
   76MOL   H14127291   5.152   7.241   6.623 -1.0841  0.7008 -0.0904
   76MOL   H14227292   5.192   7.088   6.686 -0.9293  0.2815  0.1340
   76MOL   H14327293   5.201   6.993   6.435  0.1799  0.3892 -3.3443
   76MOL   H14427294   5.331   7.085   6.479 -0.1843  0.8974 -0.4729
   76MOL   H14527295   5.202   7.151   6.375  0.0363  1.9677  0.7999
   76MOL   C14627296   4.735   7.242   6.866  0.4990 -0.3518  0.0637
   76MOL   C14727297   4.758   7.399   6.856  0.4646 -0.2989 -0.0894
   76MOL   C14827298   4.689   7.474   6.965  0.0666 -0.7752  0.4652
   76MOL   C14927299   4.735   7.424   7.105  0.0067  0.1714 -0.3622
   76MOL   C15027300   4.655   7.492   7.222 -0.1984 -0.1372  0.1222
   76MOL   C15127301   4.503   7.455   7.221  0.1487 -0.0576  0.1400
   76MOL   H15227302   4.632   7.221   6.896 -0.2250  0.2245 -1.9775
   76MOL   H15327303   4.802   7.201   6.942 -0.4602  0.0530  1.1539
   76MOL   H15427304   4.863   7.426   6.866 -0.2452  2.5353  0.2731
   76MOL   H15527305   4.582   7.486   6.954  0.1216  0.6033  1.2649
   76MOL   H15627306   4.722   7.577   6.954 -1.3065 -0.2960  0.7782
   76MOL   H15727307   4.712   7.318   7.117  1.6006 -0.1694 -0.2348
   76MOL   H15827308   4.841   7.445   7.115  0.0027  1.1261 -2.2349
   76MOL   H15927309   4.668   7.599   7.236 -0.1860 -0.0405 -0.6068
   76MOL   H16027310   4.696   7.448   7.313  0.6545 -1.6689 -0.9697
   76MOL   H16127311   4.471   7.358   7.185 -0.4635  0.0236  0.4448
   76MOL   H16227312   4.457   7.455   7.320 -0.3768  0.7192 -0.0939
   76MOL   H16327313   4.440   7.531   7.175 -2.5155 -2.0973  0.3098
   76MOL   C16427314   4.712   7.449   6.711  0.5380 -0.9224  0.3454
   76MOL   C16527315   4.824   7.513   6.618 -0.3658 -0.1946  0.1605
   76MOL   C16627316   4.771   7.538   6.478  0.0251 -0.1027  0.3946
   76MOL   C16727317   4.767   7.405   6.400  0.4423 -0.3839 -0.3588
   76MOL   C16827318   4.725   7.431   6.253  0.6100  0.1624 -0.2481
   76MOL   C16927319   4.702   7.295   6.187 -1.2924 -0.1247  0.2385
   76MOL   H17027320   4.642   7.379   6.665  0.0173 -0.2818  0.1475
   76MOL   H17127321   4.638   7.528   6.727  0.1308 -1.1027 -0.6097
   76MOL   H17227322   4.903   7.438   6.617  0.1325  0.3191  0.6095
   76MOL   H17327323   4.823   7.605   6.410  3.0206 -1.2674  1.4843
   76MOL   H17427324   4.670   7.579   6.478 -0.2185 -0.6912  0.6448
   76MOL   H17527325   4.691   7.339   6.442 -0.3507  1.4235  1.1324
   76MOL   H17627326   4.870   7.369   6.400  1.0630  1.3215 -1.6360
   76MOL   H17727327   4.796   7.494   6.200 -1.1216  1.1128 -1.4950
   76MOL   H17827328   4.626   7.478   6.252 -0.3720 -1.8475 -2.3996
   76MOL   H17927329   4.652   7.309   6.091 -1.2518  0.9961  0.3750
   76MOL   H18027330   4.644   7.233   6.255 -0.4349  0.9498  1.9851
   76MOL   H18127331   4.802   7.252   6.179 -0.8826  0.9136 -0.2485
   76MOL   C18227332   4.883   7.644   6.669  0.0962 -0.0494 -0.2439
   76MOL   C18327333   5.018   7.683   6.609  0.1423 -0.3447  0.4040
   76MOL   C18427334   5.137   7.606   6.684  0.4276  0.0416 -0.3074
   76MOL   C18527335   5.234   7.547   6.573 -0.6280  0.6383 -0.0760
   76MOL   C18627336   5.356   7.487   6.637 -1.1339  0.1060 -0.0176
   76MOL   C18727337   5.462   7.457   6.532  0.4517 -0.2064  0.9742
   76MOL   H18827338   4.798   7.708   6.646  0.8558  0.5423 -1.4409
   76MOL   H18927339   4.898   7.646   6.777  0.8568 -0.5851 -0.3270
   76MOL   H19027340   5.019   7.666   6.501  0.0637  0.9163  0.1963
   76MOL   H19127341   5.182   7.681   6.748  1.9955 -1.6346  0.5855
   76MOL   H19227342   5.111   7.526   6.753  0.8200  1.1538  1.1286
   76MOL   H19327343   5.266   7.624   6.503  2.3235 -0.0562  0.4716
   76MOL   H19427344   5.177   7.469   6.521  1.6497 -1.0817 -0.0348
   76MOL   H19527345   5.336   7.396   6.693  1.3342  0.5065  1.5924
   76MOL   H19627346   5.397   7.561   6.707  0.8564  0.5774 -1.6157
   76MOL   H19727347   5.444   7.356   6.495 -0.9472 -0.0842  1.2986
   76MOL   H19827348   5.565   7.471   6.567  0.4204  0.6745  0.7194
   76MOL   H19927349   5.441   7.526   6.450 -0.7678 -1.2739  0.3767
   76MOL   C20027350   5.038   0.108   6.643 -0.2645 -0.1161  0.2366
   76MOL   C20127351   4.946   0.197   6.559  0.5279  0.0423 -0.6208
   76MOL   C20227352   4.889   0.307   6.655 -0.7816  0.2038 -0.8257
   76MOL   C20327353   4.987   0.394   6.740 -0.3209  0.3418 -0.3295
   76MOL   C20427354   4.920   0.504   6.827 -0.3336  0.0057 -0.1001
   76MOL   C20527355   5.033   0.578   6.897  0.0115 -0.3203  0.5208
   76MOL   H20627356   5.141   0.139   6.630 -0.5785  1.0264  0.3702
   76MOL   H20727357   5.007   0.124   6.746 -1.6012 -1.5043  0.0775
   76MOL   H20827358   4.862   0.131   6.537  0.0869 -0.1169  1.3775
   76MOL   H20927359   4.812   0.263   6.718 -1.8845  1.2743 -1.4169
   76MOL   H21027360   4.846   0.381   6.588 -0.5471  2.1518  1.1078
   76MOL   H21127361   5.063   0.437   6.674 -1.2578  1.9971 -0.3684
   76MOL   H21227362   5.030   0.330   6.817  1.7915  2.5256  0.3889
   76MOL   H21327363   4.859   0.468   6.909 -0.2852  0.8320  0.2935
   76MOL   H21427364   4.865   0.572   6.763  1.7725  0.6862 -1.2293
   76MOL   H21527365   5.102   0.513   6.952  1.3081  2.4271  2.2334
   76MOL   H21627366   5.081   0.642   6.823 -1.4832  1.3928  1.0091
   76MOL   H21727367   4.987   0.644   6.971 -0.4752  0.3868 -0.4072
   76MOL   C21827368   5.016   0.256   6.431  0.0194 -0.3306 -0.3309
   76MOL   C21927369   4.928   0.276   6.303 -0.3166  0.4049 -0.5331
   76MOL   C22027370   4.920   0.156   6.214 -0.4441  0.7203  0.0140
   76MOL   C22127371   4.787   0.157   6.122  0.0443 -0.0758 -0.2379
   76MOL   C22227372   4.784   0.061   5.996 -0.4328 -0.2091 -0.8573
   76MOL   C22327373   4.893   0.096   5.891  0.2537  0.4753 -0.0012
   76MOL   H22427374   5.066   0.352   6.449 -1.6057  1.1106 -3.1548
   76MOL   H22527375   5.100   0.193   6.401  0.9667  0.7901 -0.0732
   76MOL   H22627376   4.824   0.288   6.336 -0.5031  0.2329 -1.0575
   76MOL   H22727377   4.923   0.062   6.269 -0.7590 -0.5248 -2.0340
   76MOL   H22827378   5.005   0.153   6.145 -1.1146 -1.2083 -0.7666
   76MOL   H22927379   4.763   0.254   6.077 -0.1999  0.4197  0.9360
   76MOL   H23027380   4.704   0.135   6.188 -0.6341  0.0111 -1.0603
   76MOL   H23127381   4.795   7.687   6.034 -0.8275  0.7028  1.7561
   76MOL   H23227382   4.684   0.074   5.954 -0.1702  1.9280 -0.8893
   76MOL   H23327383   4.865   0.060   5.792 -3.1230  2.1515  0.2788
   76MOL   H23427384   4.993   0.065   5.919 -0.1916 -0.1370  0.9354
   76MOL   H23527385   4.910   0.204   5.883  0.5235  0.5715  1.7407
   76MOL   C23627386   4.979   0.395   6.225  0.4294  0.3350  0.5727
   76MOL   C23727387   4.938   0.535   6.268 -0.1612  1.0103  0.1823
   76MOL   C23827388   4.806   0.590   6.214 -0.9700  0.0418 -0.7011
   76MOL   C23927389   4.793   0.639   6.066  0.4032  0.2772  0.4761
   76MOL   C24027390   4.714   0.554   5.969  0.2677 -0.1036 -0.2090
   76MOL   C24127391   4.770   0.567   5.828  0.5341  0.1680  0.0469
   76MOL   H24227392   5.087   0.393   6.207  0.6408  0.5360  1.8095
   76MOL   H24327393   4.938   0.390   6.124  2.8162  0.6893 -0.4457
   76MOL   H24427394   4.920   0.517   6.374  1.0781 -1.4816 -0.0113
   76MOL   H24527395   4.728   0.517   6.235  0.0037 -0.4572  1.3209
   76MOL   H24627396   4.785   0.674   6.280 -2.0658 -0.7087 -0.0742
   76MOL   H24727397   4.892   0.671   6.031  1.3851 -0.5064  2.4934
   76MOL   H24827398   4.753   0.740   6.055  2.7213  1.0430 -1.5893
   76MOL   H24927399   4.724   0.454   6.010  0.6323 -0.4904 -1.2191
   76MOL   H25027400   4.606   0.569   5.969  0.1840 -0.5984 -2.2991
   76MOL   H25127401   4.755   0.669   5.794 -0.0627  0.0716  0.0284
   76MOL   H25227402   4.875   0.547   5.804  0.4639  0.7556 -0.7815
   76MOL   H25327403   4.725   0.508   5.749  0.7528 -0.4743  0.3992
   76MOL   C25427404   5.058   0.631   6.257 -0.1068  0.3969  0.5090
   76MOL   C25527405   5.036   0.774   6.306 -0.1763  0.0441 -0.0561
   76MOL   C25627406   5.149   0.868   6.264  0.4313  0.0847 -0.2088
   76MOL   C25727407   5.172   0.876   6.120 -0.0172 -0.4805  1.0642
   76MOL   C25827408   5.276   0.992   6.086 -0.2568  0.4648 -0.4230
   76MOL   C25927409   5.312   0.995   5.933  0.2017  0.8651 -0.0239
   76MOL   H26027410   5.103   0.632   6.158 -1.9062  0.1066 -0.3385
   76MOL   H26127411   5.133   0.577   6.315 -0.6479 -1.5725 -0.5580
   76MOL   H26227412   4.951   0.825   6.260 -0.7272  0.9676  1.9196
   76MOL   H26327413   5.122   0.969   6.296  0.0195  0.3011 -1.2095
   76MOL   H26427414   5.243   0.848   6.316  1.5848  2.0277 -1.4790
   76MOL   H26527415   5.219   0.782   6.093 -0.2572 -0.7076  1.4390
   76MOL   H26627416   5.082   0.878   6.058  1.5044 -0.8331 -1.2240
   76MOL   H26727417   5.371   0.959   6.129 -1.4163 -0.5446  1.4088
   76MOL   H26827418   5.250   1.089   6.127 -2.3609 -0.9882  1.7766
   76MOL   H26927419   5.386   1.070   5.903  0.0138  0.0873 -2.5970
   76MOL   H27027420   5.214   1.007   5.887  0.1227 -4.2791 -1.6185
   76MOL   H27127421   5.346   0.897   5.898  0.1535 -0.5342  3.6211
   76MOL   C27227422   5.024   0.783   6.460 -0.3717 -0.1243 -0.2034
   76MOL   C27327423   4.985   0.919   6.528  0.0389 -0.1826 -0.7372
   76MOL   C27427424   5.002   0.906   6.676  0.2204 -0.7495  0.5084
   76MOL   C27527425   5.146   0.914   6.727 -0.2481 -0.3646  0.6124
   76MOL   C27627426   5.147   0.928   6.877  0.1958 -0.5167  0.6593
   76MOL   C27727427   5.281   0.880   6.944  0.2763  0.4136  0.0686
   76MOL   H27827428   4.950   0.712   6.497 -0.0852  0.5883  1.7554
   76MOL   H27927429   5.117   0.737   6.494 -0.5969  0.1682  0.8222
   76MOL   H28027430   5.048   1.000   6.492 -2.4144  0.5775 -3.5485
   76MOL   H28127431   4.946   0.818   6.707 -1.6590 -0.1161 -1.0257
   76MOL   H28227432   4.946   0.985   6.726  0.9773  0.2513 -0.1842
   76MOL   H28327433   5.184   1.002   6.676 -1.2616  1.1958  2.4524
   76MOL   H28427434   5.208   0.829   6.700 -1.0434 -1.1994  1.3503
   76MOL   H28527435   5.124   1.033   6.894 -2.6536 -1.3012  1.8147
   76MOL   H28627436   5.074   0.866   6.928  1.0507 -1.6978  0.4660
   76MOL   H28727437   5.256   0.876   7.050  0.8500 -1.0646  0.1566
   76MOL   H28827438   5.314   0.785   6.901 -2.0396 -0.2689 -0.2618
   76MOL   H28927439   5.358   0.955   6.931 -0.2572  0.9589  0.0257
   76MOL   C29027440   4.842   0.975   6.488  0.7719 -0.0433 -0.1799
   76MOL   C29127441   4.802   1.120   6.526  0.6605 -0.0100 -0.4245
   76MOL   C29227442   4.887   1.224   6.442 -0.4918  0.1344 -0.0032
   76MOL   C29327443   4.885   1.363   6.495  0.2154  0.6553 -0.2491
   76MOL   C29427444   4.988   1.464   6.438  0.1034  0.4511 -0.0575
   76MOL   C29527445   4.982   1.470   6.286 -0.1377  0.6793  0.0356
   76MOL   H29627446   4.772   0.911   6.542  0.6844 -0.4780 -0.7991
   76MOL   H29727447   4.817   0.962   6.383 -1.7045  1.8243  0.1422
   76MOL   H29827448   4.824   1.133   6.632 -0.0478 -0.1190 -0.2619
   76MOL   H29927449   4.862   1.222   6.336  3.7155 -0.8923 -1.0758
   76MOL   H30027450   4.993   1.199   6.448  0.1588  2.5859 -0.4793
   76MOL   H30127451   4.783   1.394   6.474 -0.3232  0.8565  2.3780
   76MOL   H30227452   4.899   1.354   6.603 -1.1226  2.3471  0.0871
   76MOL   H30327453   5.084   1.450   6.487 -0.7215  1.2461  1.8383
   76MOL   H30427454   4.953   1.561   6.472 -2.2025  0.2256 -1.6859
   76MOL   H30527455   5.048   1.549   6.250  0.4484  0.0070 -0.3796
   76MOL   H30627456   4.884   1.488   6.241  1.6529  2.4384 -3.4098
   76MOL   H30727457   5.021   1.380   6.240  0.7769  0.8713  0.4332
   76MOL   C30827458   4.646   1.149   6.502  0.0517  0.1583 -0.0997
   76MOL   C30927459   4.537   1.050   6.552 -0.8323  0.0493  0.3579
   76MOL   C31027460   4.410   1.076   6.470 -0.1376 -0.2135 -0.2213
   76MOL   C31127461   4.398   1.005   6.332 -0.1748 -0.3332  0.6001
   76MOL   C31227462   4.355   0.853   6.339  0.0894 -0.8750 -0.1000
   76MOL   C31327463   4.399   0.769   6.225  0.3648  0.1707  0.2492
   76MOL   H31427464   4.615   1.250   6.527  1.9987  1.0332 -1.0913
   76MOL   H31527465   4.628   1.161   6.395 -1.6690 -1.2860  0.0082
   76MOL   H31627466   4.555   0.949   6.515  0.2999  0.7762 -1.1052
   76MOL   H31727467   4.394   1.184   6.458  2.6617  0.2803  0.0846
   76MOL   H31827468   4.322   1.047   6.527  0.9619 -0.0289  1.5929
   76MOL   H31927469   4.493   1.023   6.282  0.8662  2.3190  3.3958
   76MOL   H32027470   4.324   1.062   6.275  2.4651  0.5315 -2.0902
   76MOL   H32127471   4.399   0.814   6.430  0.4956  1.2687  0.6583
   76MOL   H32227472   4.247   0.843   6.349 -0.2811  0.6012 -2.2983
   76MOL   H32327473   4.389   0.662   6.237  1.3743 -0.2896 -2.5002
   76MOL   H32427474   4.507   0.772   6.206  0.2756 -0.0665 -0.2956
   76MOL   H32527475   4.343   0.799   6.136 -0.3032 -1.4969  0.0990
   76MOL   C32627476   4.508   1.042   6.708 -0.1537  0.1061  0.0736
   76MOL   C32727477   4.614   0.975   6.797  0.4183  0.1108  0.3025
   76MOL   C32827478   4.642   1.051   6.928 -0.0551 -0.5239 -0.1295
   76MOL   C32927479   4.752   1.156   6.917 -0.2499  0.2429  0.6256
   76MOL   C33027480   4.758   1.244   7.042 -0.4689 -0.1916  0.6323
   76MOL   C33127481   4.819   1.159   7.161 -0.5527  0.0199 -0.6052
   76MOL   H33227482   4.414   0.991   6.729  0.2702 -0.0180  1.7872
   76MOL   H33327483   4.488   1.143   6.743 -0.4880  0.1785 -0.3245
   76MOL   H33427484   4.708   0.974   6.741  1.4032 -3.3215  1.8618
   76MOL   H33527485   4.551   1.107   6.949  1.1844  1.2768  0.4463
   76MOL   H33627486   4.643   0.977   7.008 -1.2122 -1.1094 -0.6460
   76MOL   H33727487   4.744   1.219   6.828  2.2410  0.0271  0.2180
   76MOL   H33827488   4.847   1.106   6.900 -0.3138  0.8152 -1.6114
   76MOL   H33927489   4.835   1.320   7.028 -1.2734  0.2434 -1.7486
   76MOL   H34027490   4.661   1.290   7.059  0.2948  1.6459  0.1930
   76MOL   H34127491   4.741   1.087   7.189 -0.0894  0.2544  1.3849
   76MOL   H34227492   4.846   1.205   7.256  1.6916 -0.7909 -0.8184
   76MOL   H34327493   4.905   1.092   7.148 -0.2303  0.3461 -0.1624
   76MOL   C34427494   4.585   0.820   6.827 -0.8076 -0.4646 -0.0232
   76MOL   C34527495   4.573   0.737   6.699 -0.9838  0.5459 -0.5534
   76MOL   C34627496   4.560   0.585   6.727 -0.2162  0.2316 -0.9749
   76MOL   C34727497   4.543   0.516   6.588 -0.1494  0.2040 -0.4593
   76MOL   C34827498   4.527   0.365   6.584 -0.1858 -0.4684  0.0110
   76MOL   C34927499   4.492   0.317   6.438  0.3232 -0.2478 -0.1748
   76MOL   H35027500   4.665   0.776   6.885  1.0896 -0.9915 -2.9100
   76MOL   H35127501   4.495   0.807   6.887 -1.0803 -0.3072 -0.3962
   76MOL   H35227502   4.659   0.748   6.633 -0.1132 -1.8541  0.1230
   76MOL   H35327503   4.648   0.551   6.782 -0.9465  0.4079  0.3162
   76MOL   H35427504   4.471   0.568   6.786 -0.1242 -2.2980 -1.5091
   76MOL   H35527505   4.446   0.557   6.559 -1.0256 -1.1790  0.4837
   76MOL   H35627506   4.618   0.557   6.520  2.9152 -3.4623  0.5863
   76MOL   H35727507   4.619   0.319   6.619 -0.8184 -1.5814  0.2401
   76MOL   H35827508   4.445   0.338   6.651 -0.9808 -2.2032 -1.6054
   76MOL   H35927509   4.409   0.380   6.407 -0.3473 -0.7256  0.6362
   76MOL   H36027510   4.580   0.342   6.378  0.5704 -0.0573  0.2645
   76MOL   H36127511   4.463   0.212   6.434 -1.0138  0.0299  1.5413
   76MOL   H36227512   4.482   0.766   6.646 -1.2629 -0.8997 -0.8818
   77MOL     C127513   2.231   5.103   0.410 -0.3324 -0.7024 -0.4191
   77MOL     C227514   2.167   4.964   0.422  0.3544  0.1652  0.4202
   77MOL     C327515   2.159   4.930   0.575  0.1442  0.3035  1.1831
   77MOL     C427516   2.032   4.986   0.642 -0.3739  0.3085  0.4479
   77MOL     C527517   2.019   4.922   0.781 -1.0297 -0.1453  0.5909
   77MOL     C627518   1.896   4.967   0.853 -0.1667  0.1361 -0.3167
   77MOL     H727519   2.161   5.181   0.439  0.9952 -0.0347  1.0345
   77MOL     H827520   2.313   5.115   0.481 -0.5161  2.8026 -0.7232
   77MOL     H927521   2.071   4.976   0.372  0.7435  3.1231  0.2937
   77MOL    H1027522   2.247   4.974   0.620 -0.3736  1.3510  1.1877
   77MOL    H1127523   2.173   4.824   0.598  1.2042 -0.3313 -2.0453
   77MOL    H1227524   1.942   4.956   0.588 -0.4351  0.5833  0.3970
   77MOL    H1327525   2.039   5.093   0.657  1.6810  0.3099 -0.3036
   77MOL    H1427526   2.021   4.814   0.783  0.8418 -0.1291  0.3688
   77MOL    H1527527   2.098   4.950   0.851  0.8412 -2.2083 -0.6436
   77MOL    H1627528   1.807   4.987   0.792  0.0240  1.1083 -0.2831
   77MOL    H1727529   1.927   5.054   0.910 -0.0149  0.9108 -1.5626
   77MOL    H1827530   1.866   4.905   0.937  1.3333 -0.9930 -0.5874
   77MOL    H1927531   2.262   5.135   0.310 -1.1404 -1.7126 -0.9982
   77MOL    C2027532   2.238   4.843   0.343 -0.4043  0.3902  0.5105
   77MOL    C2127533   2.214   4.847   0.192 -0.1851  0.1217 -0.3092
   77MOL    C2227534   2.301   4.741   0.126  0.2061  0.1286 -0.4426
   77MOL    C2327535   2.438   4.799   0.084 -0.1455  0.3525 -0.0984
   77MOL    C2427536   2.445   4.894   7.687 -0.0251 -0.2481 -0.4282
   77MOL    C2527537   2.582   4.957   7.656 -0.3927 -0.1246  0.8187
   77MOL    H2627538   2.200   4.744   0.368  2.1554 -1.3867 -2.2629
   77MOL    H2727539   2.345   4.847   0.363 -0.5692 -1.5497  1.9792
   77MOL    H2827540   2.247   4.946   0.160  0.5283 -1.2743 -4.1388
   77MOL    H2927541   2.268   4.705   0.029  1.6844  1.1071 -1.3149
   77MOL    H3027542   2.307   4.660   0.198  1.3502  1.7945  1.3859
   77MOL    H3127543   2.504   4.714   0.066  0.9153  0.4162  3.1188
   77MOL    H3227544   2.482   4.837   0.177  2.5407  1.0270 -1.5821
   77MOL    H3327545   2.404   4.849   7.596 -0.1292  0.3499 -0.6820
   77MOL    H3427546   2.372   4.975   7.692  0.2500  0.2398 -3.3026
   77MOL    H3527547   2.563   5.021   7.571  1.9645 -2.4285 -1.5478
   77MOL    H3627548   2.623   5.019   0.009 -1.3878  2.8435 -0.9047
   77MOL    H3727549   2.660   4.886   7.629 -0.1572  0.0767  0.9657
   77MOL    C3827550   2.069   4.826   0.140 -0.0124 -0.7905  0.1954
   77MOL    C3927551   2.045   4.853   7.714 -0.8121 -0.1984 -0.5347
   77MOL    C4027552   1.966   4.732   7.671  0.5146 -0.1469  0.3774
   77MOL    C4127553   1.963   4.717   7.513 -0.3053  0.2094 -0.1781
   77MOL    C4227554   1.861   4.620   7.453  0.0124  0.4167  0.0920
   77MOL    C4327555   1.888   4.478   7.494  0.6198 -0.0121  0.5405
   77MOL    H4427556   1.989   4.870   0.199  2.2041 -1.1282  3.6029
   77MOL    H4527557   2.052   4.723   0.172  0.0643 -0.8548  0.0279
   77MOL    H4627558   2.137   4.861   7.656 -0.6769 -0.5025 -0.3588
   77MOL    H4727559   2.000   4.639   7.716 -0.0451 -0.7428 -0.4315
   77MOL    H4827560   1.865   4.743   7.711  0.7771 -0.6350  1.1788
   77MOL    H4927561   1.954   4.804   7.448 -0.3797 -1.4874 -2.4933
   77MOL    H5027562   2.058   4.674   7.482 -0.8037 -1.0852  0.0770
   77MOL    H5127563   1.764   4.651   7.493  1.7225  3.1664  2.3457
   77MOL    H5227564   1.857   4.618   7.344  1.3809  1.6905  0.0098
   77MOL    H5327565   1.822   4.403   7.449 -0.2101  1.0163  0.0111
   77MOL    H5427566   1.864   4.460   7.599 -1.4420 -2.3053 -0.2656
   77MOL    H5527567   1.985   4.434   7.473 -0.5872 -2.6616  0.2186
   77MOL    C5627568   1.969   4.987   7.691 -0.0277 -0.6743  0.3737
   77MOL    C5727569   2.054   5.116   7.700  0.3663 -0.0922 -0.4702
   77MOL    C5827570   1.976   5.253   7.721  0.3609 -0.1989  1.3489
   77MOL    C5927571   1.880   5.245   0.115  0.1610  0.1349 -0.7571
   77MOL    C6027572   1.838   5.376   0.176 -0.1345 -0.9197 -1.0022
   77MOL    C6127573   1.776   5.373   0.321 -0.3681 -0.5783 -0.4705
   77MOL    H6227574   1.908   4.985   7.601 -0.4968 -0.3888  0.6871
   77MOL    H6327575   1.905   4.997   0.051  1.4341  0.8421  1.3023
   77MOL    H6427576   2.105   5.117   0.069 -0.5301  0.2862  0.0192
   77MOL    H6527577   2.039   5.340   0.012  2.2152 -0.7716 -1.9862
   77MOL    H6627578   1.922   5.278   7.631  0.2861 -1.6847  0.9594
   77MOL    H6727579   1.922   5.192   0.201  2.6781  0.4494 -1.7490
   77MOL    H6827580   1.786   5.199   0.083  0.2090  0.2774 -1.0997
   77MOL    H6927581   1.928   5.437   0.185  0.7740 -2.2826 -0.6986
   77MOL    H7027582   1.765   5.420   0.108 -1.0914  0.5971  0.9822
   77MOL    H7127583   1.754   5.474   0.354  1.2972 -0.2199 -0.3779
   77MOL    H7227584   1.681   5.322   0.334 -1.7098  2.1646  0.9618
   77MOL    H7327585   1.847   5.332   0.393 -2.2500  0.0953  1.8328
   77MOL    C7427586   2.148   5.144   7.580 -0.4850 -0.1574 -0.6175
   77MOL    C7527587   2.102   5.102   7.441 -0.7497 -0.2370  0.6861
   77MOL    C7627588   1.975   5.163   7.385 -0.0447 -0.0505  0.2899
   77MOL    C7727589   1.974   5.310   7.359  0.6975 -0.5941  0.0943
   77MOL    C7827590   1.841   5.358   7.305  1.1169 -0.2179 -0.8644
   77MOL    C7927591   1.835   5.497   7.236  0.4392 -0.2350  0.1272
   77MOL    H8027592   2.177   5.249   7.581 -0.2815 -0.2108 -1.1315
   77MOL    H8127593   2.232   5.083   7.614 -0.5401  1.0574  1.7911
   77MOL    H8227594   2.086   4.995   7.447 -0.4801 -0.4615 -1.8032
   77MOL    H8327595   1.951   5.118   7.288 -0.1883  2.7792 -1.0374
   77MOL    H8427596   1.884   5.129   7.435  0.2445  0.0644  0.8971
   77MOL    H8527597   2.006   5.366   7.447  1.6167 -0.9099 -0.0445
   77MOL    H8627598   2.047   5.322   7.279 -0.0215  0.0258 -0.4734
   77MOL    H8727599   1.763   5.359   7.382  2.8806  1.5507  0.9706
   77MOL    H8827600   1.823   5.291   7.220 -0.4025 -1.6038  0.4990
   77MOL    H8927601   1.745   5.524   7.181  0.0129  1.1429  1.4718
   77MOL    H9027602   1.839   5.575   7.313  0.0251  0.0819 -0.1724
   77MOL    H9127603   1.919   5.522   7.171 -0.0803  0.6514 -0.1952
   77MOL    C9227604   2.223   5.105   7.346  0.4077  0.4813 -0.5346
   77MOL    C9327605   2.226   5.008   7.228  0.2145  0.2342 -0.4771
   77MOL    C9427606   2.272   5.079   7.096 -0.3355 -0.2264 -0.1831
   77MOL    C9527607   2.151   5.114   7.007 -0.0414 -0.0444  0.2500
   77MOL    C9627608   2.082   5.001   6.925 -0.2262 -0.3399  0.1951
   77MOL    C9727609   1.949   5.041   6.868  0.3556 -0.3819  0.1574
   77MOL    H9827610   2.234   5.208   7.312 -4.2448 -0.3181 -5.0340
   77MOL    H9927611   2.315   5.075   7.396  0.6630  0.9199 -0.7419
   77MOL   H10027612   2.121   4.978   7.233  0.3408  0.2271  3.1662
   77MOL   H10127613   2.340   5.016   7.039  0.1456 -0.8265  1.0421
   77MOL   H10227614   2.332   5.162   7.135  0.5558 -0.9086 -0.1102
   77MOL   H10327615   2.077   5.163   7.070  0.3734 -0.2831  0.9334
   77MOL   H10427616   2.189   5.189   6.938 -0.3913  0.0572  0.1683
   77MOL   H10527617   2.145   4.970   6.842 -2.9150 -1.3327 -1.5213
   77MOL   H10627618   2.083   4.909   6.984  0.6986 -0.7456 -0.4343
   77MOL   H10727619   1.892   4.956   6.830  0.2467  0.2764 -1.2056
   77MOL   H10827620   1.885   5.075   6.949 -1.1521  0.2884 -1.2955
   77MOL   H10927621   1.968   5.108   6.783  1.8932  0.1485  0.8938
   77MOL   C11027622   2.315   4.877   7.255  0.1279 -0.1845 -0.3968
   77MOL   C11127623   2.284   4.769   7.147 -0.4508 -0.1413  0.4336
   77MOL   C11227624   2.161   4.700   7.188 -0.2347  0.7499 -0.1484
   77MOL   C11327625   2.102   4.611   7.081 -0.7855  0.2847 -0.1489
   77MOL   C11427626   1.968   4.549   7.114 -0.0160  0.6156 -0.5006
   77MOL   C11527627   1.905   4.462   7.000 -1.0924  0.4074 -0.0691
   77MOL   H11627628   2.420   4.906   7.265  0.0243 -0.2032  0.7801
   77MOL   H11727629   2.301   4.831   7.353 -1.1521  0.0430 -0.4730
   77MOL   H11827630   2.267   4.807   7.046 -0.0360 -3.7520 -1.0706
   77MOL   H11927631   2.084   4.760   7.238 -1.1675 -0.5668  0.0369
   77MOL   H12027632   2.187   4.627   7.265 -0.0312 -0.4468 -1.3296
   77MOL   H12127633   2.173   4.531   7.060  0.7536  2.4228 -3.6363
   77MOL   H12227634   2.103   4.661   6.984  1.7164 -1.9140 -1.3202
   77MOL   H12327635   1.903   4.635   7.131  0.2875  0.6130  0.7247
   77MOL   H12427636   1.975   4.498   7.210 -1.4091 -1.6247 -1.5610
   77MOL   H12527637   1.942   4.360   7.003  3.6912  2.0362  0.8454
   77MOL   H12627638   1.797   4.453   7.007 -1.0568 -0.7121 -0.8541
   77MOL   H12727639   1.939   4.508   6.907  0.9467 -0.2541  0.3268
   77MOL   C12827640   2.400   4.669   7.151 -0.2137  1.2620 -0.1626
   77MOL   C12927641   2.528   4.708   7.068  0.7089  0.0523  0.4785
   77MOL   C13027642   2.516   4.653   6.919 -0.5123 -0.4504 -0.1191
   77MOL   C13127643   2.435   4.743   6.816  0.4445 -0.1584 -0.2739
   77MOL   C13227644   2.431   4.704   6.669 -0.2246  0.3200  1.1761
   77MOL   C13327645   2.376   4.815   6.583 -0.5623 -0.0718  0.0582
   77MOL   H13427646   2.365   4.571   7.120 -0.6375  1.3998 -0.1341
   77MOL   H13527647   2.425   4.657   7.256 -0.9082  1.1180 -0.0118
   77MOL   H13627648   2.539   4.816   7.067  0.9339  0.0250 -1.0353
   77MOL   H13727649   2.612   4.636   6.870  0.4078  0.7670  1.2117
   77MOL   H13827650   2.482   4.550   6.927 -1.0082 -0.1246  2.3080
   77MOL   H13927651   2.487   4.839   6.819 -2.0450  1.3764 -3.3706
   77MOL   H14027652   2.332   4.758   6.850  0.9384 -0.7278  1.5506
   77MOL   H14127653   2.530   4.672   6.636 -0.0130  1.7833  0.3482
   77MOL   H14227654   2.362   4.620   6.659  1.8644 -1.4571  1.2863
   77MOL   H14327655   2.269   4.818   6.604 -0.8634 -1.5999 -1.1741
   77MOL   H14427656   2.394   4.783   6.481 -1.1959 -2.1658  0.5654
   77MOL   H14527657   2.429   4.908   6.599 -2.3835  1.2794 -1.5212
   77MOL   C14627658   2.661   4.653   7.132 -0.1510  0.0527 -0.3415
   77MOL   C14727659   2.708   4.696   7.272 -0.3869 -0.2902 -0.2088
   77MOL   C14827660   2.755   4.837   7.280 -0.0112  0.2120 -0.3948
   77MOL   C14927661   2.854   4.884   7.174 -0.0063  0.0002 -0.0578
   77MOL   C15027662   2.932   5.007   7.222 -0.1018  0.7894  0.0036
   77MOL   C15127663   3.057   5.035   7.137  0.4296  0.9348  0.4633
   77MOL   H15227664   2.657   4.544   7.126  2.5982 -0.1231  0.1994
   77MOL   H15327665   2.745   4.673   7.065 -0.4230  0.7107 -0.4849
   77MOL   H15427666   2.624   4.696   7.342 -0.4416 -0.7548 -0.2747
   77MOL   H15527667   2.796   4.846   7.380  3.3256  1.5683 -1.8237
   77MOL   H15627668   2.673   4.908   7.275 -0.3453 -0.1467 -0.0801
   77MOL   H15727669   2.924   4.804   7.150 -0.5211 -0.6560  0.5711
   77MOL   H15827670   2.797   4.898   7.082 -0.8796  2.9360  0.8698
   77MOL   H15927671   2.942   5.010   7.330  0.4845 -0.1038 -0.0260
   77MOL   H16027672   2.864   5.092   7.210  0.1855  0.9959 -0.1564
   77MOL   H16127673   3.037   5.050   7.031  3.7866  0.0246 -0.3923
   77MOL   H16227674   3.109   5.118   7.185  0.8257 -0.4283  2.4627
   77MOL   H16327675   3.124   4.949   7.152 -0.0210  0.6068  0.5966
   77MOL   C16427676   2.801   4.587   7.342  0.1257 -0.0926  0.1890
   77MOL   C16527677   2.796   4.582   7.497 -0.0820 -0.4929  0.1476
   77MOL   C16627678   2.694   4.483   7.546 -0.6619  0.0443 -0.7756
   77MOL   C16727679   2.551   4.497   7.486  0.5265  0.1460  0.5304
   77MOL   C16827680   2.443   4.404   7.544  0.0448  0.3470 -0.0403
   77MOL   C16927681   2.307   4.425   7.475  0.2392  0.0447  0.4912
   77MOL   H17027682   2.767   4.488   7.311 -1.7675  0.4517  0.4682
   77MOL   H17127683   2.896   4.596   7.290 -0.4571 -0.2994 -0.9258
   77MOL   H17227684   2.775   4.688   7.512  2.2286  0.0492 -0.2021
   77MOL   H17327685   2.680   4.493   7.653  2.5451  2.3789 -0.5080
   77MOL   H17427686   2.729   4.383   7.523  0.0425  0.4088 -1.3428
   77MOL   H17527687   2.552   4.482   7.378  1.4177 -0.8567  0.6643
   77MOL   H17627688   2.509   4.595   7.506  1.5284  0.5725  0.6103
   77MOL   H17727689   2.439   4.402   7.653  2.7202  1.2146  0.1096
   77MOL   H17827690   2.480   4.301   7.537  3.4892  1.4371  1.2046
   77MOL   H17927691   2.235   4.352   7.514 -0.0083  0.3644  0.6391
   77MOL   H18027692   2.322   4.409   7.369  3.0101  1.3107  0.6625
   77MOL   H18127693   2.286   4.530   7.494  0.8440  0.0831  0.9370
   77MOL   C18227694   2.931   4.539   7.558 -0.2982  0.9870 -0.1401
   77MOL   C18327695   3.035   4.653   7.566  0.2028  0.6136  0.0697
   77MOL   C18427696   3.168   4.603   7.623 -0.2897  0.6806  0.2306
   77MOL   C18527697   3.299   4.661   7.562  0.1181 -0.3787 -0.4204
   77MOL   C18627698   3.421   4.600   7.638 -0.0587 -0.3258  0.4818
   77MOL   C18727699   3.550   4.642   7.561  0.1740  0.0653  0.3513
   77MOL   H18827700   2.911   4.499   7.657 -1.0484 -0.2814 -0.8004
   77MOL   H18927701   2.970   4.454   7.502 -0.0732  1.1381 -0.2161
   77MOL   H19027702   3.059   4.702   7.472 -4.3548  0.6085 -1.2170
   77MOL   H19127703   3.170   4.615   0.004 -1.4117  2.3036  0.0836
   77MOL   H19227704   3.167   4.494   7.617 -0.5418  0.7388 -0.8672
   77MOL   H19327705   3.304   4.769   7.578  0.3518 -0.5103  0.3714
   77MOL   H19427706   3.315   4.636   7.457  2.4816  3.5183 -1.1065
   77MOL   H19527707   3.419   4.492   7.654  0.5629 -0.0781  2.3919
   77MOL   H19627708   3.426   4.642   0.012  2.0661 -0.0871  0.3109
   77MOL   H19727709   3.578   4.581   7.475  0.9253  0.2801  0.4327
   77MOL   H19827710   3.632   4.638   7.634 -1.6288 -1.5133  2.3475
   77MOL   H19927711   3.551   4.744   7.522  1.9449 -0.4916 -1.1512
   77MOL   C20027712   2.981   4.773   7.650  0.1784 -0.0443  0.1288
   77MOL   C20127713   3.076   4.889   7.693  0.3509  0.1276 -1.0976
   77MOL   C20227714   3.086   4.996   7.589  0.0966 -0.0208 -0.8375
   77MOL   C20327715   3.199   5.094   7.608 -0.4607  0.2573 -0.0159
   77MOL   C20427716   3.183   5.217   7.510 -0.2650  0.3618 -0.2660
   77MOL   C20527717   3.274   5.333   7.560  0.1769 -0.0436 -0.5834
   77MOL   H20627718   2.943   4.732   0.016  1.3569 -1.6887 -0.0965
   77MOL   H20727719   2.898   4.825   7.603  0.5396 -0.2835 -0.7774
   77MOL   H20827720   3.166   4.847   0.012  0.0717  0.1872 -0.4942
   77MOL   H20927721   2.991   5.048   7.587 -0.5616 -1.2395 -1.9493
   77MOL   H21027722   3.094   4.948   7.492  1.1239 -1.2360 -0.1703
   77MOL   H21127723   3.295   5.043   7.596 -0.3191  0.2928  0.9434
   77MOL   H21227724   3.212   5.127   7.711  1.8181  0.8322 -0.4600
   77MOL   H21327725   3.079   5.249   7.519 -0.7740 -1.4896  0.4592
   77MOL   H21427726   3.202   5.191   7.406 -0.0459 -2.7880  0.5289
   77MOL   H21527727   3.276   5.419   7.493 -0.4188 -0.1905 -0.7922
   77MOL   H21627728   3.249   5.363   7.662  1.1188  0.6804 -0.5605
   77MOL   H21727729   3.374   5.291   7.567  0.2322  0.2405  0.4720
   77MOL   C21827730   3.012   4.964   0.091  0.0494  1.1221  0.4544
   77MOL   C21927731   3.030   4.891   0.227  0.0638 -0.8577  0.9281
   77MOL   C22027732   2.910   4.928   0.319 -0.4087 -0.1824  0.1848
   77MOL   C22127733   2.769   4.874   0.284 -0.2675  0.2240 -0.4936
   77MOL   C22227734   2.668   4.916   0.385 -0.6070 -0.1640 -0.0998
   77MOL   C22327735   2.634   5.064   0.368 -0.0291  0.5787 -0.4234
   77MOL   H22427736   3.043   5.068   0.106 -0.1271  0.8933  2.4793
   77MOL   H22527737   2.905   4.977   0.072  0.0586 -1.8687 -1.8927
   77MOL   H22627738   3.013   4.784   0.212  1.7480 -1.1093  0.7278
   77MOL   H22727739   2.916   5.036   0.331  0.0822 -0.0069 -1.6000
   77MOL   H22827740   2.938   4.895   0.420 -0.9149  2.0859  1.1030
   77MOL   H22927741   2.759   4.766   0.280 -0.8347  0.2183  0.9286
   77MOL   H23027742   2.740   4.897   0.181 -1.9776  1.3132  0.2143
   77MOL   H23127743   2.582   4.849   0.379 -0.3889 -0.3768 -0.8391
   77MOL   H23227744   2.696   4.888   0.487 -1.5408 -0.2881  0.1335
   77MOL   H23327745   2.601   5.078   0.265 -0.2354  2.0969 -0.1724
   77MOL   H23427746   2.717   5.131   0.391  0.6378 -0.6101  0.6668
   77MOL   H23527747   2.548   5.099   0.427  1.3348  0.1377  1.9026
   77MOL   C23627748   3.162   4.906   0.302 -0.3232  0.5312 -0.3570
   77MOL   C23727749   3.210   5.050   0.345  0.0635  0.5105 -0.9606
   77MOL   C23827750   3.328   5.102   0.259  0.0164  0.3873 -0.4061
   77MOL   C23927751   3.462   5.047   0.300 -0.8216 -0.0776  0.1545
   77MOL   C24027752   3.560   5.055   0.183  0.3101 -0.0027 -0.1079
   77MOL   C24127753   3.547   4.953   0.073  0.2379 -0.1506  0.1750
   77MOL   H24227754   3.155   4.849   0.394 -0.8193  0.6841 -0.2966
   77MOL   H24327755   3.230   4.848   0.241 -1.2077 -1.0771  0.1664
   77MOL   H24427756   3.125   5.111   0.315  0.2454  0.9113 -0.6603
   77MOL   H24527757   3.316   5.075   0.154 -0.5925 -0.4570 -0.1242
   77MOL   H24627758   3.328   5.211   0.263 -0.8232  0.4873 -2.4471
   77MOL   H24727759   3.459   4.943   0.334  3.2211 -0.1063  0.7443
   77MOL   H24827760   3.502   5.098   0.388 -2.3557 -0.0729  0.8515
   77MOL   H24927761   3.540   5.155   0.145 -5.9180 -1.2677 -0.7364
   77MOL   H25027762   3.660   5.062   0.227 -0.5406  3.6934  1.5021
   77MOL   H25127763   3.630   4.950   0.002 -1.6097 -1.2623 -2.0310
   77MOL   H25227764   3.539   4.850   0.107  0.9596 -0.0838  0.5520
   77MOL   H25327765   3.456   4.964   0.015 -0.2698 -2.2254  0.5296
   77MOL   C25427766   3.236   5.062   0.502 -0.3841 -0.6253 -0.4973
   77MOL   C25527767   3.264   5.201   0.560 -0.6774  0.0069  0.0311
   77MOL   C25627768   3.324   5.184   0.702  0.6066 -0.1921  0.5423
   77MOL   C25727769   3.477   5.180   0.692 -0.4185  0.3195 -0.8272
   77MOL   C25827770   3.542   5.200   0.829 -0.3765  0.1251 -0.1897
   77MOL   C25927771   3.687   5.163   0.848 -0.1827 -0.0084 -0.1859
   77MOL   H26027772   3.323   4.998   0.520 -1.1113 -1.4568  0.0864
   77MOL   H26127773   3.154   5.022   0.561 -0.1795  0.6799  0.6921
   77MOL   H26227774   3.330   5.246   0.486  0.3377 -1.0198  0.2939
   77MOL   H26327775   3.296   5.267   0.767  0.7222 -0.5086  1.0051
   77MOL   H26427776   3.286   5.093   0.749  1.3024 -0.4730  0.5709
   77MOL   H26527777   3.518   5.084   0.660  3.2714  1.5261  0.0371
   77MOL   H26627778   3.509   5.257   0.622  1.1647  2.2604  1.9392
   77MOL   H26727779   3.484   5.163   0.913  0.1391  0.7418  0.4489
   77MOL   H26827780   3.531   5.307   0.848  0.9669  0.3412 -0.5512
   77MOL   H26927781   3.749   5.200   0.766  1.5938  2.0071  1.9704
   77MOL   H27027782   3.700   5.056   0.863  0.3171 -0.0760 -1.0100
   77MOL   H27127783   3.724   5.201   0.943  1.5229 -1.8972 -0.0502
   77MOL   C27227784   3.141   5.293   0.560  0.0430 -0.7131  0.0170
   77MOL   C27327785   3.169   5.439   0.595 -0.0698  0.1479 -0.0137
   77MOL   C27427786   3.036   5.509   0.628  0.4161 -0.0916  0.6891
   77MOL   C27527787   2.929   5.506   0.519  0.0389  0.4121 -0.2899
   77MOL   C27627788   2.807   5.580   0.572 -0.5572  0.8843 -0.4477
   77MOL   C27727789   2.675   5.562   0.502 -0.7047  0.1157 -0.9122
   77MOL   H27827790   3.092   5.287   0.462 -0.5277 -3.3717  0.4209
   77MOL   H27927791   3.069   5.243   0.625 -2.0983  3.2950  0.9153
   77MOL   H28027792   3.229   5.455   0.684 -1.7440 -0.2703  1.2246
   77MOL   H28127793   3.053   5.609   0.667  0.4615  0.8894 -1.7828
   77MOL   H28227794   2.998   5.451   0.712 -0.0890  1.6478  1.6671
   77MOL   H28327795   2.903   5.404   0.489  0.9884 -0.0965  0.5562
   77MOL   H28427796   2.969   5.564   0.437  3.5214  0.1800  1.1536
   77MOL   H28527797   2.793   5.540   0.672 -0.1582 -1.8110 -1.4106
   77MOL   H28627798   2.831   5.686   0.582  1.4564  0.4537 -0.5276
   77MOL   H28727799   2.666   5.622   0.411  0.9050 -1.5778 -2.2291
   77MOL   H28827800   2.675   5.464   0.453  0.0663 -0.2615 -0.1799
   77MOL   H28927801   2.589   5.563   0.569  0.7348 -1.7453  1.0336
   77MOL   C29027802   3.247   5.510   0.481  0.6516  0.4245 -0.0093
   77MOL   C29127803   3.289   5.656   0.503  0.5886 -0.9178 -0.7101
   77MOL   C29227804   3.350   5.687   0.643  0.1447 -0.2620  0.1932
   77MOL   C29327805   3.495   5.632   0.668 -0.3642 -0.4176 -0.1327
   77MOL   C29427806   3.537   5.676   0.808  0.4559 -0.5734  0.2264
   77MOL   C29527807   3.605   5.815   0.805  0.6351 -0.8275 -1.0542
   77MOL   H29627808   3.189   5.483   0.393 -0.3033 -2.3399  1.3996
   77MOL   H29727809   3.337   5.452   0.461  1.2509  0.6192  2.0092
   77MOL   H29827810   3.197   5.714   0.498 -0.0262 -1.5547  2.4645
   77MOL   H29927811   3.281   5.677   0.727 -0.0843 -0.3045 -0.0024
   77MOL   H30027812   3.357   5.796   0.643  0.9807 -0.2952  1.4758
   77MOL   H30127813   3.493   5.523   0.667  0.4544 -0.4549  1.2488
   77MOL   H30227814   3.563   5.680   0.599  0.5095 -0.2400  0.8332
   77MOL   H30327815   3.611   5.624   0.868  0.6594  0.7063  1.1198
   77MOL   H30427816   3.453   5.685   0.877  1.9562 -1.3052  2.1991
   77MOL   H30527817   3.695   5.794   0.748  0.8851 -2.2632 -0.1451
   77MOL   H30627818   3.635   5.846   0.905 -1.3764  2.2882 -1.3346
   77MOL   H30727819   3.548   5.895   0.756 -1.7062 -0.9421  1.3690
   77MOL   C30827820   3.374   5.719   0.386 -0.0798  0.3056 -0.3718
   77MOL   C30927821   3.316   5.716   0.242 -0.0776 -0.6582  0.8643
   77MOL   C31027822   3.422   5.770   0.138 -0.1974 -0.2154  0.2992
   77MOL   C31127823   3.462   5.919   0.142  0.2847 -0.1279  0.9808
   77MOL   C31227824   3.539   5.963   0.014  0.5017  0.2578 -0.1868
   77MOL   C31327825   3.572   6.109   0.013  0.2393 -0.1108 -0.3803
   77MOL   H31427826   3.403   5.822   0.404 -1.9206  0.5858  1.2137
   77MOL   H31527827   3.477   5.684   0.387 -0.3179 -0.3755  0.6266
   77MOL   H31627828   3.302   5.611   0.219  0.4078 -1.1173  2.5620
   77MOL   H31727829   3.383   5.747   0.039 -2.7389 -1.2832  1.5154
   77MOL   H31827830   3.507   5.702   0.148  0.2124 -0.1549 -2.3919
   77MOL   H31927831   3.530   5.936   0.226  1.3032 -1.1055  0.3695
   77MOL   H32027832   3.371   5.979   0.138 -0.0564 -0.7388 -1.6346
   77MOL   H32127833   3.637   5.916   0.007 -0.5171 -1.9918  0.3252
   77MOL   H32227834   3.487   5.928   7.652 -2.0751  0.8109  1.0329
   77MOL   H32327835   3.660   6.130   0.073  0.7870  0.7804 -1.4665
   77MOL   H32427836   3.479   6.161   0.032 -0.7738 -2.0645  0.1030
   77MOL   H32527837   3.610   6.143   7.643  2.1937  2.4358  1.2155
   77MOL   C32627838   3.186   5.799   0.233 -0.2240 -0.6957  0.1077
   77MOL   C32727839   3.113   5.797   0.100  1.3034 -0.2209  0.0709
   77MOL   C32827840   3.072   5.660   0.048 -0.5063  0.2081 -0.0616
   77MOL   C32927841   2.972   5.584   0.127  0.2223  0.5881 -0.8318
   77MOL   C33027842   2.931   5.456   0.056  0.0443  0.7841 -0.0552
   77MOL   C33127843   2.811   5.391   0.133 -0.8837  0.0328 -1.2176
   77MOL   H33227844   3.205   5.900   0.268  0.0511 -0.7999  0.2619
   77MOL   H33327845   3.111   5.755   0.299 -2.1552 -0.2531 -1.7631
   77MOL   H33427846   3.180   5.846   0.029 -1.4292  0.1411 -2.3394
   77MOL   H33527847   3.033   5.670   7.674 -2.0520 -2.4654  0.2144
   77MOL   H33627848   3.162   5.600   0.037 -0.3791  0.0047  1.9587
   77MOL   H33727849   2.879   5.635   0.152 -0.5719 -1.4749  0.6050
   77MOL   H33827850   3.009   5.560   0.226 -3.3847  2.7558  1.1541
   77MOL   H33927851   2.899   5.479   7.681 -1.3031  3.3236  0.8962
   77MOL   H34027852   3.009   5.380   0.050 -0.1062  0.6662 -0.6362
   77MOL   H34127853   2.837   5.369   0.236 -0.6864 -0.9866 -1.4862
   77MOL   H34227854   2.770   5.303   0.085 -1.7571 -0.6488  0.7149
   77MOL   H34327855   2.729   5.462   0.140  0.3427  1.3702 -0.0046
   77MOL   C34427856   2.997   5.900   0.108 -0.0892 -0.0974 -0.4808
   77MOL   C34527857   3.043   6.038   0.078  0.0795  0.1488  0.3666
   77MOL   C34627858   2.932   6.148   0.102  0.0328  0.4511 -0.2896
   77MOL   C34727859   2.980   6.293   0.087  0.1004 -0.3675 -0.4379
   77MOL   C34827860   2.876   6.409   0.099  0.1516 -0.5195 -0.0689
   77MOL   C34927861   2.944   6.538   0.051  0.7455 -0.0326 -0.4011
   77MOL   H35027862   2.921   5.879   0.033  0.1037  0.0971 -0.7300
   77MOL   H35127863   2.954   5.895   0.208  1.3335 -1.0941  0.0856
   77MOL   H35227864   3.077   6.031   7.701 -1.4941  3.3803 -0.4251
   77MOL   H35327865   2.842   6.126   0.044  0.8500  1.5190 -2.0131
   77MOL   H35427866   2.893   6.132   0.202  0.5881  0.0670 -0.1322
   77MOL   H35527867   3.054   6.311   0.166 -0.1857  1.3174 -0.5336
   77MOL   H35627868   3.024   6.305   7.715 -0.8915  0.0610 -0.8339
   77MOL   H35727869   2.781   6.389   0.048 -2.0134  1.8733  2.8581
   77MOL   H35827870   2.859   6.429   0.205 -0.5740  1.8009 -0.5731
   77MOL   H35927871   2.988   6.532   7.678  1.2041  1.9583 -0.3379
   77MOL   H36027872   2.878   6.624   0.046 -0.3931 -0.7258  2.2227
   77MOL   H36127873   3.029   6.557   0.117 -0.1043 -1.1231  1.0216
   77MOL   H36227874   3.139   6.069   0.120  0.5613 -0.9030  0.0635
   78MOL     C127875   4.402   2.257   3.883  0.5911 -0.0642 -0.4675
   78MOL     C227876   4.261   2.205   3.897  0.8797 -0.2786  0.1106
   78MOL     C327877   4.164   2.312   3.842  0.5553 -0.3796 -0.0682
   78MOL     C427878   4.012   2.280   3.846 -0.3954 -0.3413  0.7677
   78MOL     C527879   3.971   2.157   3.773  0.8404 -0.1249  1.1518
   78MOL     C627880   3.812   2.146   3.787 -0.2078  0.2380  0.4228
   78MOL     H727881   4.432   2.347   3.938  0.2255 -0.2314  0.0110
   78MOL     H827882   4.480   2.185   3.908  1.6806  1.0807 -0.5177
   78MOL     H927883   4.239   2.112   3.844  3.1044  0.1610 -1.6587
   78MOL    H1027884   4.182   2.332   3.736 -1.0845 -1.4494 -0.5602
   78MOL    H1127885   4.193   2.400   3.900  1.4949 -1.1079  0.5798
   78MOL    H1227886   3.955   2.360   3.798  1.9573  1.2391  0.5449
   78MOL    H1327887   3.979   2.268   3.949  1.0859  0.8714  1.3921
   78MOL    H1427888   4.013   2.163   3.673 -0.8917 -1.7125  0.3001
   78MOL    H1527889   4.017   2.069   3.819  0.5445 -1.0626 -0.3164
   78MOL    H1627890   3.760   2.235   3.752  0.0556 -0.5942 -2.2533
   78MOL    H1727891   3.773   2.128   3.886 -1.2233  0.6961  0.1078
   78MOL    H1827892   3.785   2.068   3.716 -2.7205  2.9418 -1.7167
   78MOL    H1927893   4.421   2.273   3.777 -0.0035 -1.1140 -0.7404
   78MOL    C2027894   4.234   2.183   4.054  0.0177  0.5590 -0.3903
   78MOL    C2127895   4.247   2.032   4.081  0.0201  0.0867 -0.3362
   78MOL    C2227896   4.386   1.977   4.044  0.2161  0.5752 -0.2005
   78MOL    C2327897   4.505   2.032   4.138  0.3687 -0.6904  0.1486
   78MOL    C2427898   4.649   2.022   4.078  0.5679 -0.4783 -0.3436
   78MOL    C2527899   4.770   2.050   4.167  0.5133 -0.1778  0.5423
   78MOL    H2627900   4.135   2.220   4.079 -0.7035 -0.6216 -1.4381
   78MOL    H2727901   4.300   2.248   4.111  0.1408 -1.1704  1.5000
   78MOL    H2827902   4.171   1.985   4.019 -2.6632  0.0539  2.8344
   78MOL    H2927903   4.416   1.998   3.941 -2.0909 -0.3782 -1.0956
   78MOL    H3027904   4.388   1.869   4.053  1.6485  0.5562 -0.6031
   78MOL    H3127905   4.511   1.968   4.226  1.9756 -2.7586 -1.4170
   78MOL    H3227906   4.484   2.134   4.170 -1.6882 -0.9266 -0.3704
   78MOL    H3327907   4.665   1.923   4.037 -3.5591 -2.2694  2.0817
   78MOL    H3427908   4.638   2.101   4.004 -0.7866 -0.5413 -0.2279
   78MOL    H3527909   4.854   2.022   4.103 -0.2366  1.5928 -1.2523
   78MOL    H3627910   4.785   2.149   4.209 -0.0346  0.6172 -1.1283
   78MOL    H3727911   4.775   1.979   4.250  0.9755  1.0923  1.6176
   78MOL    C3827912   4.216   1.996   4.233  0.8939  0.0918  0.0314
   78MOL    C3927913   4.069   1.987   4.280  0.0923 -0.7491 -0.0296
   78MOL    C4027914   3.997   1.885   4.194  0.1873  0.5630 -0.0312
   78MOL    C4127915   3.840   1.902   4.212  0.0531 -0.8429  0.9713
   78MOL    C4227916   3.762   1.813   4.115  0.1639 -0.4162 -0.3231
   78MOL    C4327917   3.618   1.844   4.134 -0.5691  0.2916 -0.1696
   78MOL    H4427918   4.270   2.061   4.302  2.0491  0.1766 -0.9291
   78MOL    H4527919   4.261   1.898   4.248  1.6767  0.1903 -1.6111
   78MOL    H4627920   4.025   2.084   4.255 -1.0440 -1.5603 -1.2713
   78MOL    H4727921   4.006   1.902   4.086 -3.1521  1.4367 -0.2181
   78MOL    H4827922   4.030   1.782   4.204  1.6801  1.1315  0.9423
   78MOL    H4927923   3.812   1.881   4.316 -2.3670 -1.6431  0.2011
   78MOL    H5027924   3.821   2.007   4.190  2.9179 -0.4078  0.4983
   78MOL    H5127925   3.797   1.834   4.014 -1.5302  0.5410 -0.7323
   78MOL    H5227926   3.775   1.707   4.136 -0.8837 -0.1136  1.9647
   78MOL    H5327927   3.606   1.881   4.236  0.4869 -0.1020  0.1001
   78MOL    H5427928   3.557   1.760   4.101 -0.5014 -0.2590  1.0759
   78MOL    H5527929   3.594   1.921   4.061  1.2424  0.8857 -0.1578
   78MOL    C5627930   4.059   1.965   4.434  0.3196 -0.4252 -0.0394
   78MOL    C5727931   4.074   2.099   4.515  0.3636 -0.6669  0.1759
   78MOL    C5827932   4.156   2.076   4.648  0.3677 -0.5412 -0.6849
   78MOL    C5927933   4.107   1.974   4.755  0.6004 -0.2328 -0.1430
   78MOL    C6027934   4.203   1.960   4.879 -0.9143 -0.2007  0.1512
   78MOL    C6127935   4.149   1.855   4.970 -0.0960 -0.7291  0.0662
   78MOL    H6227936   3.967   1.920   4.471  2.2013 -2.1346  2.8506
   78MOL    H6327937   4.139   1.898   4.467  1.5910  0.9779 -0.2419
   78MOL    H6427938   4.129   2.170   4.454 -1.4478  0.4735 -0.1573
   78MOL    H6527939   4.255   2.038   4.623  0.1464 -1.5405 -0.0778
   78MOL    H6627940   4.177   2.169   4.700  2.9565 -0.8841 -1.0854
   78MOL    H6727941   4.091   1.876   4.711 -2.0157  0.5358 -0.9848
   78MOL    H6827942   4.016   2.023   4.791  0.2656  1.1856 -2.8032
   78MOL    H6927943   4.301   1.929   4.845 -1.1440  0.3647 -1.0680
   78MOL    H7027944   4.212   2.058   4.927 -2.3673  0.3932 -0.7520
   78MOL    H7127945   4.210   1.850   5.060  2.2831 -2.5165 -1.5630
   78MOL    H7227946   4.050   1.884   5.004  0.2976 -0.2170  0.7933
   78MOL    H7327947   4.139   1.757   4.924 -0.2193 -1.2315  1.1626
   78MOL    C7427948   3.932   2.159   4.544 -0.3200  0.2856 -0.0418
   78MOL    C7527949   3.921   2.298   4.623 -0.2199 -0.3600 -0.5851
   78MOL    C7627950   3.976   2.408   4.531  0.1258  0.3321  0.3759
   78MOL    C7727951   3.916   2.431   4.393 -0.1245 -0.5073 -0.2165
   78MOL    C7827952   3.994   2.537   4.314  0.0634 -0.1099 -0.3208
   78MOL    C7927953   3.935   2.568   4.173  0.4061 -0.3578  0.1330
   78MOL    H8027954   3.873   2.171   4.453 -1.3399  1.8204  0.7841
   78MOL    H8127955   3.868   2.090   4.599 -1.3878 -0.4061 -2.0918
   78MOL    H8227956   3.974   2.297   4.718 -0.9825 -1.5087 -0.1673
   78MOL    H8327957   3.976   2.504   4.584  0.9990  2.7483 -3.7609
   78MOL    H8427958   4.080   2.386   4.510 -0.4450  0.0959 -2.2956
   78MOL    H8527959   3.909   2.343   4.328 -0.2298  0.2126 -1.1985
   78MOL    H8627960   3.812   2.462   4.395 -0.9668 -3.0492 -1.7476
   78MOL    H8727961   4.098   2.507   4.306  0.4405  1.3972 -1.3594
   78MOL    H8827962   4.001   2.635   4.362 -4.0837  0.1885 -0.1092
   78MOL    H8927963   3.947   2.478   4.112  3.7918  0.0021  0.1715
   78MOL    H9027964   3.834   2.609   4.183 -0.4376 -2.5016  0.6957
   78MOL    H9127965   3.991   2.641   4.116  0.2800  0.0813  0.5629
   78MOL    C9227966   3.771   2.310   4.675  0.2209  0.4665  0.5139
   78MOL    C9327967   3.735   2.445   4.742 -0.4190  0.0564  0.5814
   78MOL    C9427968   3.581   2.450   4.759  0.3204 -0.2434  0.0727
   78MOL    C9527969   3.498   2.488   4.630  0.8387 -0.1649 -0.0176
   78MOL    C9627970   3.344   2.485   4.659  0.4081 -0.3682  0.1496
   78MOL    C9727971   3.286   2.584   4.764 -1.4534 -0.2281  0.0391
   78MOL    H9827972   3.716   2.298   4.581 -1.7548  0.6775  1.6250
   78MOL    H9927973   3.741   2.230   4.742 -2.4754 -0.1883 -1.3623
   78MOL   H10027974   3.758   2.518   4.665 -1.0601  0.2587  0.5803
   78MOL   H10127975   3.561   2.524   4.837 -3.8182 -0.0255 -1.0626
   78MOL   H10227976   3.540   2.357   4.797  0.7801 -0.6795 -0.5085
   78MOL   H10327977   3.526   2.582   4.584 -0.4796  0.2481  0.0006
   78MOL   H10427978   3.503   2.426   4.540  0.6530  0.0124 -0.1504
   78MOL   H10527979   3.290   2.494   4.565 -1.3650  0.0266  1.1965
   78MOL   H10627980   3.320   2.383   4.689 -2.7157  0.1597 -0.3988
   78MOL   H10727981   3.310   2.690   4.753  0.1125 -0.6180 -0.5220
   78MOL   H10827982   3.178   2.569   4.760 -1.4978  0.2881 -0.7536
   78MOL   H10927983   3.316   2.556   4.865  0.1084  0.4734 -0.2174
   78MOL   C11027984   3.818   2.466   4.877  0.1286  0.2978  0.6204
   78MOL   C11127985   3.807   2.601   4.954 -0.3176  0.2351  0.1660
   78MOL   C11227986   3.804   2.720   4.859  0.1494 -0.2869  0.7404
   78MOL   C11327987   3.767   2.862   4.918 -0.0722  0.5251 -0.3592
   78MOL   C11427988   3.617   2.871   4.963  0.3851  0.1025 -0.0432
   78MOL   C11527989   3.519   2.851   4.850 -0.7291 -0.0584  0.1737
   78MOL   H11627990   3.818   2.381   4.945  1.0091  0.3198  0.6547
   78MOL   H11727991   3.924   2.461   4.851 -0.3886  0.4528 -1.6081
   78MOL   H11827992   3.701   2.590   4.977 -0.2553 -0.8430 -0.0484
   78MOL   H11927993   3.747   2.710   4.767 -0.2231  1.2172  0.7922
   78MOL   H12027994   3.907   2.728   4.825 -0.1194  1.7119  0.3298
   78MOL   H12127995   3.804   2.943   4.855  0.7975  1.1028  0.8767
   78MOL   H12227996   3.832   2.877   5.005  0.6340  0.7145 -0.9122
   78MOL   H12327997   3.597   2.964   5.016  0.8718 -0.0060  0.3360
   78MOL   H12427998   3.597   2.788   5.031 -0.2211 -0.9280 -1.4426
   78MOL   H12527999   3.531   2.752   4.805 -0.3635 -0.9409  2.1503
   78MOL   H12628000   3.414   2.849   4.880 -0.7585 -0.7460  0.0264
   78MOL   H12728001   3.526   2.929   4.774 -1.5187 -0.7677 -0.6413
   78MOL   C12828002   3.909   2.612   5.072 -0.3548  0.4485 -0.0765
   78MOL   C12928003   3.878   2.509   5.193  0.1268  0.3426  0.1564
   78MOL   C13028004   3.857   2.589   5.323 -0.7398  0.8150 -0.3405
   78MOL   C13128005   3.731   2.665   5.334 -0.4671 -0.0988 -0.4756
   78MOL   C13228006   3.732   2.775   5.439 -0.3008 -0.7187  0.4861
   78MOL   C13328007   3.739   2.727   5.587 -0.1602 -0.5352 -0.3965
   78MOL   H13428008   3.916   2.715   5.106  1.1285  0.4900 -0.4632
   78MOL   H13528009   4.007   2.583   5.034 -2.4028 -3.1120 -2.9112
   78MOL   H13628010   3.784   2.458   5.171 -1.8631  1.8446  4.5444
   78MOL   H13728011   3.850   2.524   5.411  3.0342 -2.4868 -2.3317
   78MOL   H13828012   3.944   2.655   5.333 -0.3966  0.1440  1.2340
   78MOL   H13928013   3.649   2.596   5.353 -0.3997 -0.4808 -1.5136
   78MOL   H14028014   3.706   2.702   5.234  0.3306 -1.3014 -1.1330
   78MOL   H14128015   3.808   2.848   5.409 -0.4283 -1.3403 -1.4437
   78MOL   H14228016   3.638   2.830   5.436 -0.0641 -0.3842 -1.6046
   78MOL   H14328017   3.817   2.652   5.599  1.4822  1.4038  1.4663
   78MOL   H14428018   3.641   2.693   5.621  0.6026 -0.0084  2.5206
   78MOL   H14528019   3.766   2.814   5.648 -1.6628  0.7662 -1.5503
   78MOL   C14628020   3.978   2.388   5.198 -0.1119  0.0225 -0.1297
   78MOL   C14728021   3.955   2.272   5.293 -0.3774 -0.1480 -0.2768
   78MOL   C14828022   4.070   2.167   5.273  0.3622  0.6882 -0.2080
   78MOL   C14928023   4.101   2.058   5.382 -0.1765 -0.1623 -0.2702
   78MOL   C15028024   4.086   2.090   5.534  0.2356 -0.9875  0.6467
   78MOL   C15128025   4.023   1.984   5.623 -0.3313  0.1063 -0.8294
   78MOL   H15228026   3.994   2.348   5.098  1.5210  0.9509 -0.2609
   78MOL   H15328027   4.076   2.426   5.229  0.8958 -1.5612 -1.2957
   78MOL   H15428028   3.976   2.307   5.394  0.5494  0.0261 -0.5224
   78MOL   H15528029   4.170   2.207   5.261  0.6406  0.0865  0.0916
   78MOL   H15628030   4.042   2.115   5.181 -1.8786 -1.5371  1.6516
   78MOL   H15728031   4.040   1.973   5.349 -0.2159  0.4160 -1.7028
   78MOL   H15828032   4.206   2.033   5.364  0.3235  0.1940  1.9560
   78MOL   H15928033   4.031   2.181   5.556  1.1898  0.2351 -1.7452
   78MOL   H16028034   4.185   2.119   5.572  1.3427  0.3474 -3.0572
   78MOL   H16128035   3.917   1.978   5.598 -0.6748 -1.7834  0.8944
   78MOL   H16228036   4.065   1.884   5.606 -1.4743 -0.3395 -1.0778
   78MOL   H16328037   4.032   2.025   5.724 -0.9723 -0.2290 -0.6278
   78MOL   C16428038   3.824   2.206   5.279  0.6041 -0.1305 -0.3866
   78MOL   C16528039   3.706   2.253   5.368 -0.6585  1.1049  0.1709
   78MOL   C16628040   3.570   2.182   5.329 -0.3635 -0.0825 -0.5645
   78MOL   C16728041   3.515   2.213   5.190  0.0825 -0.0293  0.0944
   78MOL   C16828042   3.375   2.150   5.153 -0.1561  0.0756  0.2446
   78MOL   C16928043   3.333   2.189   5.008  0.0125 -0.1305  0.3679
   78MOL   H17028044   3.807   2.224   5.173 -0.2283  3.3557  0.2825
   78MOL   H17128045   3.822   2.100   5.304 -0.3208 -0.0084  0.1089
   78MOL   H17228046   3.696   2.358   5.341  0.9610  0.9841 -0.9695
   78MOL   H17328047   3.499   2.231   5.396  1.5017  1.7261  0.1593
   78MOL   H17428048   3.568   2.076   5.353 -1.4397  0.2701  0.9669
   78MOL   H17528049   3.590   2.185   5.117  1.5040  1.8477  0.8049
   78MOL   H17628050   3.511   2.322   5.188  0.7468 -0.0082 -0.1909
   78MOL   H17728051   3.298   2.181   5.224 -1.4136 -0.6903 -0.7701
   78MOL   H17828052   3.384   2.042   5.156 -2.3047 -0.0868  1.2833
   78MOL   H17928053   3.235   2.150   4.980  0.2899 -1.3674  1.0998
   78MOL   H18028054   3.402   2.153   4.932 -1.5275 -0.8405 -0.7101
   78MOL   H18128055   3.322   2.295   4.984 -2.5040 -0.5241 -0.4238
   78MOL   C18228056   3.735   2.234   5.518 -0.8653 -0.3134 -1.2457
   78MOL   C18328057   3.619   2.273   5.625  0.0455 -0.4363 -0.0315
   78MOL   C18428058   3.566   2.418   5.601  1.0553 -0.5339 -0.2265
   78MOL   C18528059   3.422   2.431   5.649  0.5027 -0.4003 -0.0543
   78MOL   C18628060   3.374   2.576   5.682 -0.0733  0.8103 -0.3491
   78MOL   C18728061   3.228   2.590   5.714 -0.2594  0.5219  0.2347
   78MOL   H18828062   3.795   2.146   5.541  0.2712  0.4848 -1.0997
   78MOL   H18928063   3.809   2.308   5.547  1.3470 -1.8817 -2.7736
   78MOL   H19028064   3.538   2.201   5.610  0.6153 -0.6676 -2.1010
   78MOL   H19128065   3.618   2.489   5.665 -0.4553 -1.2012  1.8013
   78MOL   H19228066   3.567   2.444   5.496  1.5706 -1.3412 -0.4209
   78MOL   H19328067   3.407   2.373   5.740  0.8440 -1.7964 -0.8892
   78MOL   H19428068   3.359   2.377   5.578 -1.2812 -0.5426  1.5893
   78MOL   H19528069   3.381   2.629   5.587 -0.3834 -0.4676 -1.1010
   78MOL   H19628070   3.443   2.635   5.743  1.2591 -1.3208  0.2877
   78MOL   H19728071   3.210   2.541   5.810 -0.8668  1.0209  0.3803
   78MOL   H19828072   3.165   2.549   5.635 -0.7356  2.9003 -0.6685
   78MOL   H19928073   3.208   2.697   5.715  1.7397  0.9954 -3.1738
   78MOL   C20028074   3.671   2.250   5.765  0.1193 -0.6520 -0.0002
   78MOL   C20128075   3.706   2.100   5.808 -1.0392 -0.2579 -0.0900
   78MOL   C20228076   3.803   2.098   5.926 -0.4004  0.1111  0.2977
   78MOL   C20328077   3.737   2.136   6.061 -0.1612  0.2500  0.4298
   78MOL   C20428078   3.842   2.141   6.167  0.0304 -0.4261 -0.5225
   78MOL   C20528079   3.794   2.220   6.295 -0.1304  0.6851 -0.3978
   78MOL   H20628080   3.614   2.304   5.841 -0.9057  1.6166 -2.2957
   78MOL   H20728081   3.766   2.301   5.780 -1.0743  1.1583  1.7127
   78MOL   H20828082   3.770   2.057   5.731  1.0930 -0.2285  1.6197
   78MOL   H20928083   3.888   2.165   5.910  0.4082 -0.6244  1.4394
   78MOL   H21028084   3.849   2.000   5.936  0.3914  0.3611 -0.7103
   78MOL   H21128085   3.668   2.058   6.095  0.0728  0.2231  0.8377
   78MOL   H21228086   3.682   2.229   6.068 -1.4471 -0.4375 -0.2772
   78MOL   H21328087   3.927   2.197   6.126  0.3572  0.3051  1.1083
   78MOL   H21428088   3.887   2.048   6.200  1.3616  0.3345 -0.1240
   78MOL   H21528089   3.703   2.177   6.336 -0.0265  0.5211 -0.3399
   78MOL   H21628090   3.874   2.216   6.369  1.1160 -0.1813 -1.7547
   78MOL   H21728091   3.756   2.323   6.293  0.3625  0.9261  1.6640
   78MOL   C21828092   3.578   2.020   5.829 -0.0824  0.3533 -0.7187
   78MOL   C21928093   3.589   1.869   5.859  0.1262 -0.5773  0.0928
   78MOL   C22028094   3.675   1.796   5.753  0.4334 -0.9113 -0.6123
   78MOL   C22128095   3.612   1.797   5.617  0.5951 -0.7118  0.2462
   78MOL   C22228096   3.716   1.770   5.507  0.1238 -0.4396  0.6980
   78MOL   C22328097   3.807   1.639   5.531  0.1605 -0.2429 -0.2104
   78MOL   H22428098   3.516   2.063   5.907 -0.9248  0.0932 -1.2391
   78MOL   H22528099   3.519   2.033   5.739  0.5342 -1.4092 -1.3920
   78MOL   H22628100   3.638   1.851   5.954 -1.7750 -3.7274  0.5593
   78MOL   H22728101   3.689   1.691   5.781  1.9734 -0.0372  2.1467
   78MOL   H22828102   3.777   1.834   5.752 -0.3838  1.3445  0.1873
   78MOL   H22928103   3.554   1.885   5.587 -0.0820 -1.2991 -0.1736
   78MOL   H23028104   3.533   1.723   5.612 -0.2111 -0.1645  3.4357
   78MOL   H23128105   3.678   1.766   5.405 -1.0033 -1.4848  1.1436
   78MOL   H23228106   3.771   1.863   5.498 -2.7166  1.2485 -0.0164
   78MOL   H23328107   3.891   1.636   5.463  0.5930 -0.0388  0.3113
   78MOL   H23428108   3.746   1.548   5.524  0.1318 -0.1229 -1.5186
   78MOL   H23528109   3.851   1.638   5.631 -4.2411  1.1570  1.8889
   78MOL   C23628110   3.446   1.809   5.883  0.2878 -0.4984  0.5283
   78MOL   C23728111   3.441   1.677   5.958  0.4953  0.5376 -0.7128
   78MOL   C23828112   3.385   1.569   5.863  0.2625 -0.0290  0.1294
   78MOL   C23928113   3.393   1.418   5.904  0.3346  0.0010  0.4500
   78MOL   C24028114   3.335   1.325   5.794  0.6255 -0.5685 -0.0630
   78MOL   C24128115   3.438   1.281   5.682 -0.3462 -0.3483  0.5789
   78MOL   H24228116   3.398   1.884   5.946  0.0616 -0.2855  0.1003
   78MOL   H24328117   3.390   1.806   5.790 -0.1728 -1.3114  0.8269
   78MOL   H24428118   3.536   1.635   5.990 -0.6866 -1.6971  0.0348
   78MOL   H24528119   3.285   1.602   5.835  1.1766  1.9998 -0.8683
   78MOL   H24628120   3.445   1.573   5.772  1.2169 -2.8464  0.6061
   78MOL   H24728121   3.336   1.400   5.995 -1.6672 -0.6526 -0.8946
   78MOL   H24828122   3.498   1.392   5.917  0.4811 -0.5175 -1.5400
   78MOL   H24928123   3.300   1.232   5.840 -0.2471 -0.1519  0.1223
   78MOL   H25028124   3.236   1.360   5.763 -0.6334  0.1030  4.3142
   78MOL   H25128125   3.383   1.230   5.603  0.7399 -0.7126  0.0393
   78MOL   H25228126   3.507   1.359   5.647  0.3451 -1.9471 -1.7159
   78MOL   H25328127   3.506   1.202   5.713  0.9450 -0.2887 -1.9350
   78MOL   C25428128   3.348   1.692   6.084  0.0739  0.2250  0.2378
   78MOL   C25528129   3.409   1.677   6.225  0.0652  0.0408 -0.4367
   78MOL   C25628130   3.303   1.709   6.334  0.2692 -0.1137  0.2498
   78MOL   C25728131   3.172   1.627   6.314 -0.4979 -0.0487 -0.2119
   78MOL   C25828132   3.076   1.652   6.427  0.1165  0.0039  0.1387
   78MOL   C25928133   2.951   1.564   6.417  0.2188 -0.5187 -0.0570
   78MOL   H26028134   3.283   1.606   6.072  0.3178 -0.0635  0.9426
   78MOL   H26128135   3.277   1.775   6.083  1.2726  1.2729  0.6121
   78MOL   H26228136   3.438   1.573   6.238  0.2018  0.0655 -0.5364
   78MOL   H26328137   3.334   1.699   6.438 -0.5787 -1.7600  0.3562
   78MOL   H26428138   3.268   1.812   6.334  0.7638  0.0625 -0.6677
   78MOL   H26528139   3.128   1.639   6.215 -2.7368  2.2006  0.9961
   78MOL   H26628140   3.199   1.521   6.308  1.6064  0.5134 -1.0718
   78MOL   H26728141   3.040   1.754   6.414 -2.1695 -0.7108  0.5694
   78MOL   H26828142   3.121   1.647   6.526  1.5025 -0.6864 -0.5050
   78MOL   H26928143   2.873   1.603   6.484 -0.5541  0.8290 -1.7077
   78MOL   H27028144   2.963   1.461   6.451 -0.9963 -0.4845  0.5240
   78MOL   H27128145   2.883   1.558   6.332 -2.0870 -2.6964  1.8511
   78MOL   C27228146   3.534   1.762   6.242 -0.0018 -0.5600 -0.0522
   78MOL   C27328147   3.610   1.730   6.370 -0.3555 -0.2474  0.4180
   78MOL   C27428148   3.598   1.855   6.464  0.1928 -0.2500 -0.8202
   78MOL   C27528149   3.609   1.834   6.615 -0.0928 -0.8935 -0.5032
   78MOL   C27628150   3.597   1.972   6.694 -0.1224  0.2358  0.0554
   78MOL   C27728151   3.458   1.988   6.759  0.4094 -0.3849  0.1032
   78MOL   H27828152   3.594   1.739   6.154 -0.5281 -0.5130 -0.4316
   78MOL   H27928153   3.513   1.869   6.230 -0.6176 -0.6197  0.4535
   78MOL   H28028154   3.556   1.653   6.425  0.6608 -0.8554  0.5735
   78MOL   H28128155   3.503   1.906   6.442  0.4411  1.2227  1.3186
   78MOL   H28228156   3.669   1.934   6.437  1.7150 -1.4364 -0.2997
   78MOL   H28328157   3.704   1.785   6.637 -0.3232 -1.1502 -0.0906
   78MOL   H28428158   3.530   1.770   6.653 -0.4312  0.4925  1.2006
   78MOL   H28528159   3.674   1.965   6.771  0.8459  1.1662 -0.7965
   78MOL   H28628160   3.627   2.059   6.634 -1.4667  0.3282 -0.5018
   78MOL   H28728161   3.454   2.074   6.826  3.1868 -1.5119  1.7907
   78MOL   H28828162   3.380   2.001   6.684  0.8993 -1.8252 -0.6624
   78MOL   H28928163   3.432   1.898   6.816 -0.0295 -0.9415 -0.9619
   78MOL   C29028164   3.755   1.680   6.357  0.2968 -0.0290  0.3775
   78MOL   C29128165   3.768   1.541   6.312 -0.4429  0.5281  0.2381
   78MOL   C29228166   3.895   1.498   6.239  0.7239 -0.2677  0.2235
   78MOL   C29328167   3.898   1.526   6.082  0.0435 -0.8511 -1.1862
   78MOL   C29428168   3.818   1.429   5.997 -0.2458  0.2839 -0.0705
   78MOL   C29528169   3.867   1.405   5.857 -0.3645  1.3040  0.2433
   78MOL   H29628170   3.809   1.693   6.451  0.4004  0.9380  0.1887
   78MOL   H29728171   3.811   1.751   6.296 -4.8677  0.8123 -3.7572
   78MOL   H29828172   3.698   1.527   6.230 -0.4981  0.4987  0.2900
   78MOL   H29928173   3.915   1.391   6.243 -1.1017 -0.6033  1.2334
   78MOL   H30028174   3.985   1.544   6.280 -0.1479  0.9885  0.7581
   78MOL   H30128175   3.863   1.629   6.068  1.3070 -0.4029 -1.1101
   78MOL   H30228176   4.005   1.520   6.063  0.6697 -0.6684  1.9640
   78MOL   H30328177   3.718   1.471   5.980 -0.6364 -0.5058  0.2263
   78MOL   H30428178   3.810   1.330   6.042  1.1241 -0.4318 -1.3522
   78MOL   H30528179   3.970   1.372   5.853 -1.2273 -1.5876  0.6529
   78MOL   H30628180   3.858   1.493   5.793 -0.3840  1.8041  0.9150
   78MOL   H30728181   3.809   1.327   5.808 -1.4669  2.1664  0.1248
   78MOL   C30828182   3.710   1.442   6.413  1.2365 -0.2468 -0.2848
   78MOL   C30928183   3.768   1.421   6.553 -0.8884  0.0485 -0.0082
   78MOL   C31028184   3.910   1.363   6.559 -0.7392  0.1466 -0.0912
   78MOL   C31128185   3.974   1.377   6.696 -0.2282 -0.0246 -0.7096
   78MOL   C31228186   4.123   1.332   6.694 -0.2363 -0.0739  0.4047
   78MOL   C31328187   4.128   1.184   6.751  0.5545 -0.6977 -0.0343
   78MOL   H31428188   3.602   1.456   6.419  1.4496  0.8550  1.1327
   78MOL   H31528189   3.709   1.347   6.359  0.0503  0.0939 -0.9033
   78MOL   H31628190   3.769   1.524   6.589  1.0569 -0.1389  0.5522
   78MOL   H31728191   3.981   1.416   6.494  0.0375 -0.4144  0.2961
   78MOL   H31828192   3.913   1.261   6.520 -0.1168  0.0417  0.2134
   78MOL   H31928193   3.926   1.335   6.785  1.4386  0.7945  0.6232
   78MOL   H32028194   3.980   1.482   6.724  1.2727 -0.2960  0.0819
   78MOL   H32128195   4.175   1.332   6.598 -2.5034  3.4434 -0.8917
   78MOL   H32228196   4.180   1.391   6.766 -0.0517 -0.9018  0.9508
   78MOL   H32328197   4.066   1.109   6.702 -0.2151 -1.6748  2.3563
   78MOL   H32428198   4.097   1.203   6.854 -2.0150 -0.4915 -0.8082
   78MOL   H32528199   4.229   1.143   6.749  0.9853  0.4222 -2.0097
   78MOL   C32628200   3.678   1.352   6.646  0.5605 -0.2929 -0.6002
   78MOL   C32728201   3.635   1.207   6.598 -0.2198 -0.1528 -0.4804
   78MOL   C32828202   3.717   1.099   6.674  0.3793 -1.1720  0.3231
   78MOL   C32928203   3.711   0.968   6.602 -0.1004  0.0241 -0.4035
   78MOL   C33028204   3.772   0.860   6.685  0.8147  0.0619 -0.1725
   78MOL   C33128205   3.765   0.726   6.615 -0.4941 -0.0662  0.6255
   78MOL   H33228206   3.590   1.412   6.670  0.7443 -0.3137  0.1396
   78MOL   H33328207   3.722   1.337   6.745  1.5276 -1.7281 -1.2380
   78MOL   H33428208   3.655   1.186   6.493  1.7886 -0.7683 -0.0004
   78MOL   H33528209   3.822   1.123   6.693  0.3987 -1.4787  0.5956
   78MOL   H33628210   3.678   1.088   6.775  0.3469 -1.8886  0.2346
   78MOL   H33728211   3.747   0.981   6.500  3.3893 -2.3423  0.4396
   78MOL   H33828212   3.606   0.939   6.594  0.0864 -1.9705  3.2765
   78MOL   H33928213   3.875   0.886   6.706  0.3587  2.1693 -0.3979
   78MOL   H34028214   3.710   0.851   6.774 -1.6987  1.9688 -1.6515
   78MOL   H34128215   3.826   0.729   6.525 -1.7525 -1.0696 -0.2596
   78MOL   H34228216   3.666   0.695   6.584  0.8406 -1.4795 -2.4325
   78MOL   H34328217   3.814   0.651   6.678 -1.7607 -3.3199 -2.1744
   78MOL   C34428218   3.488   1.184   6.628 -0.7132  0.1017 -0.1732
   78MOL   C34528219   3.398   1.262   6.529 -0.2989  0.0944 -0.1818
   78MOL   C34628220   3.255   1.215   6.541  0.4459  0.3065  0.3284
   78MOL   C34728221   3.170   1.270   6.661 -0.8692 -0.6358 -0.7009
   78MOL   C34828222   3.057   1.167   6.688 -0.0509  0.2626  0.1537
   78MOL   C34928223   2.950   1.226   6.781  0.4840  0.6870 -0.2642
   78MOL   H35028224   3.460   1.079   6.614 -2.2065  0.4627 -0.0444
   78MOL   H35128225   3.475   1.213   6.732 -1.1155  0.1201 -0.2260
   78MOL   H35228226   3.434   1.253   6.427 -0.1442  0.5429 -0.1699
   78MOL   H35328227   3.202   1.218   6.446 -1.3501 -0.9192  1.2586
   78MOL   H35428228   3.259   1.107   6.550 -1.2401  0.1615 -0.5527
   78MOL   H35528229   3.226   1.288   6.753  0.2878 -1.6479 -1.1955
   78MOL   H35628230   3.142   1.370   6.627 -0.0818  0.7564  2.4740
   78MOL   H35728231   3.012   1.139   6.593  3.1692  0.1187 -1.4155
   78MOL   H35828232   3.102   1.077   6.729 -2.8778 -0.9935  0.5733
   78MOL   H35928233   2.895   1.147   6.831  0.9350  0.1055 -0.6804
   78MOL   H36028234   2.997   1.282   6.862 -1.1693  1.0587  0.4611
   78MOL   H36128235   2.889   1.290   6.717  2.4968  0.9176 -2.0304
   78MOL   H36228236   3.394   1.371   6.539  0.2158  0.3459 -2.4637
   79MOL     C128237   5.248   4.637   3.744 -0.1154  1.1047 -0.2609
   79MOL     C228238   5.225   4.521   3.646 -0.4513  0.1952  0.0503
   79MOL     C328239   5.259   4.380   3.691  0.1233  0.1918  0.1318
   79MOL     C428240   5.160   4.332   3.796 -0.8277 -0.0940  0.7074
   79MOL     C528241   5.185   4.181   3.834 -0.4012  0.2324 -0.0059
   79MOL     C628242   5.082   4.106   3.917 -0.1176  0.5029 -0.3509
   79MOL     H728243   5.354   4.651   3.762  0.3082 -0.2473 -1.6329
   79MOL     H828244   5.197   4.728   3.712 -1.7541 -0.3263 -1.8368
   79MOL     H928245   5.118   4.521   3.626 -0.7082 -0.6414  1.3886
   79MOL    H1028246   5.360   4.385   3.733  0.3166  0.7625 -0.4057
   79MOL    H1128247   5.254   4.311   3.607 -0.8114 -0.3368  0.6083
   79MOL    H1228248   5.069   4.351   3.740 -0.1161  4.2164  0.8602
   79MOL    H1328249   5.166   4.392   3.886 -0.1610 -0.1414  0.7033
   79MOL    H1428250   5.197   4.123   3.743  0.6199 -1.1628  0.9828
   79MOL    H1528251   5.280   4.167   3.887 -0.6835 -2.0766 -0.0511
   79MOL    H1628252   4.982   4.129   3.881 -1.4930 -0.1329  2.8376
   79MOL    H1728253   5.077   4.136   4.022 -1.2745 -1.8380  0.3127
   79MOL    H1828254   5.093   3.997   3.922  0.7617  0.6923  3.1943
   79MOL    H1928255   5.194   4.615   3.837  0.1766  1.3576 -0.0306
   79MOL    C2028256   5.293   4.541   3.506  0.2835 -0.2769 -0.5660
   79MOL    C2128257   5.248   4.664   3.423  0.5049 -0.0057  0.4162
   79MOL    C2228258   5.352   4.765   3.405 -0.5514 -0.3281  0.1819
   79MOL    C2328259   5.313   4.910   3.364  0.3288 -0.6558 -0.2236
   79MOL    C2428260   5.245   4.994   3.478  0.5748 -0.1563 -0.2649
   79MOL    C2528261   5.229   5.140   3.434  0.3944  0.3299  0.2592
   79MOL    H2628262   5.288   4.449   3.448 -0.8415 -1.7281  1.7424
   79MOL    H2728263   5.400   4.542   3.527 -0.4034  2.1749  3.4142
   79MOL    H2828264   5.180   4.720   3.488 -3.5596 -2.3957 -1.5513
   79MOL    H2928265   5.428   4.732   3.334  0.8451  0.3745  1.3305
   79MOL    H3028266   5.408   4.773   3.498 -1.7131  0.1505  0.8538
   79MOL    H3128267   5.250   4.891   3.277 -0.3340  1.6359 -0.2774
   79MOL    H3228268   5.397   4.966   3.323  0.4293  0.1216  1.0039
   79MOL    H3328269   5.142   4.960   3.488  0.2350  0.6452 -1.0411
   79MOL    H3428270   5.310   5.000   3.566  0.2206  1.8678 -0.1217
   79MOL    H3528271   5.323   5.194   3.430  1.3698 -1.2179  1.8444
   79MOL    H3628272   5.177   5.153   3.339 -0.4622  1.4146  0.8546
   79MOL    H3728273   5.164   5.191   3.505 -2.5962 -0.2584 -1.9328
   79MOL    C3828274   5.180   4.624   3.296  0.2028 -0.3851  0.2565
   79MOL    C3928275   5.054   4.532   3.308 -0.1028 -0.7796  0.6253
   79MOL    C4028276   4.919   4.613   3.296 -0.6957  0.1039 -0.3624
   79MOL    C4128277   4.902   4.714   3.406 -0.0848  0.8506  0.1120
   79MOL    C4228278   4.776   4.797   3.397  0.2262 -0.2129 -0.1558
   79MOL    C4328279   4.781   4.925   3.487 -0.4458 -0.8107 -0.6644
   79MOL    H4428280   5.268   4.582   3.246  0.2442 -0.3887  0.3324
   79MOL    H4528281   5.145   4.710   3.238  2.5287 -0.8745 -2.0154
   79MOL    H4628282   5.046   4.496   3.410  0.7031 -0.8362  0.6697
   79MOL    H4728283   4.919   4.665   3.200  0.9903  0.8772  0.0389
   79MOL    H4828284   4.830   4.551   3.303  0.4862 -1.5311  0.4241
   79MOL    H4928285   4.930   4.684   3.507  1.6807  0.8215 -0.3694
   79MOL    H5028286   4.984   4.786   3.406 -2.4859  3.6263 -0.5924
   79MOL    H5128287   4.781   4.825   3.292  1.8430 -1.1769 -0.3603
   79MOL    H5228288   4.685   4.737   3.391 -1.5610  2.5717 -2.3027
   79MOL    H5328289   4.875   4.973   3.462 -0.1233 -0.6097  0.8985
   79MOL    H5428290   4.781   4.907   3.594  0.4585  1.1259 -0.3302
   79MOL    H5528291   4.698   4.989   3.456  0.3504  0.9341  0.7467
   79MOL    C5628292   5.062   4.414   3.213  0.4432  0.0392 -0.3330
   79MOL    C5728293   4.968   4.296   3.251 -0.3857  0.4013 -0.0936
   79MOL    C5828294   5.032   4.217   3.372  0.3810 -0.3667 -0.0191
   79MOL    C5928295   4.934   4.098   3.416 -0.5084 -0.2709 -0.3224
   79MOL    C6028296   4.967   4.048   3.558 -0.4223  0.2429  0.5489
   79MOL    C6128297   4.875   3.932   3.613  0.4050 -0.5904 -0.9610
   79MOL    H6228298   5.046   4.461   3.116 -0.9259 -1.2479 -0.7564
   79MOL    H6328299   5.165   4.376   3.213  1.4631  2.7049 -0.6421
   79MOL    H6428300   4.869   4.328   3.282 -1.5718 -1.9782 -1.3655
   79MOL    H6528301   5.133   4.180   3.356  0.6205  0.7874 -1.2605
   79MOL    H6628302   5.030   4.277   3.463 -2.3493 -0.8315  0.2807
   79MOL    H6728303   4.933   4.011   3.349  0.6899 -0.9134  0.4742
   79MOL    H6828304   4.829   4.126   3.414 -0.2834  0.6120 -0.0443
   79MOL    H6928305   5.070   4.013   3.562 -0.9153 -1.3589 -0.3832
   79MOL    H7028306   4.964   4.123   3.637 -0.7722  0.1836  0.5920
   79MOL    H7128307   4.918   3.880   3.699 -2.2143 -1.3024 -0.0284
   79MOL    H7228308   4.779   3.964   3.652  2.0280  0.9387  1.9646
   79MOL    H7328309   4.857   3.846   3.548 -1.0887 -2.5526  1.9070
   79MOL    C7428310   4.960   4.210   3.121  0.6100  0.5225  0.3369
   79MOL    C7528311   4.835   4.240   3.044 -0.5883 -0.5060 -0.6968
   79MOL    C7628312   4.839   4.209   2.897 -0.1418  1.1101 -0.0839
   79MOL    C7728313   4.877   4.060   2.860  0.2769  0.4130 -0.3740
   79MOL    C7828314   4.897   4.031   2.713 -0.1274  0.2984 -0.2556
   79MOL    C7928315   4.922   3.885   2.663 -0.0497  0.3131  0.0345
   79MOL    H8028316   5.039   4.241   3.052  0.7642 -1.1304 -0.2535
   79MOL    H8128317   4.987   4.107   3.143  0.0609  0.0197 -1.2987
   79MOL    H8228318   4.821   4.348   3.045  0.9371 -0.3017  2.7454
   79MOL    H8328319   4.753   4.243   2.839 -1.1081  0.4915  0.9739
   79MOL    H8428320   4.911   4.278   2.852  1.4018 -0.7549 -0.5128
   79MOL    H8528321   4.969   4.037   2.914  0.8383  1.5629 -0.8216
   79MOL    H8628322   4.801   3.993   2.900 -0.8510  1.9890  0.1849
   79MOL    H8728323   4.979   4.097   2.682  1.5744 -1.5170  0.2783
   79MOL    H8828324   4.805   4.070   2.669  0.4602  0.8041 -1.0527
   79MOL    H8928325   5.018   3.839   2.685 -0.6785  0.0595  2.3025
   79MOL    H9028326   4.841   3.827   2.708 -0.8222 -0.3772 -2.1333
   79MOL    H9128327   4.902   3.882   2.556  3.0254 -0.1258 -0.5691
   79MOL    C9228328   4.712   4.171   3.114 -0.5301  0.2952  0.1084
   79MOL    C9328329   4.579   4.247   3.097 -0.1580 -0.3410  0.2256
   79MOL    C9428330   4.463   4.150   3.083  0.0180 -0.0327  0.7725
   79MOL    C9528331   4.437   4.062   3.205 -0.1639  0.0591  0.3829
   79MOL    C9628332   4.322   3.974   3.186  0.0448  0.5044  0.9391
   79MOL    C9728333   4.306   3.877   3.302  0.9181 -1.0950  0.1059
   79MOL    H9828334   4.708   4.073   3.066  0.0145  0.9643 -1.3311
   79MOL    H9928335   4.728   4.155   3.220 -2.2562 -3.0143 -0.0453
   79MOL   H10028336   4.594   4.295   3.001  0.9932  1.3219  1.2088
   79MOL   H10128337   4.478   4.081   3.000  0.0735  0.9521 -0.0312
   79MOL   H10228338   4.380   4.212   3.048  0.3927  0.4358  0.7240
   79MOL   H10328339   4.528   4.010   3.235  0.3747  0.4049 -0.6623
   79MOL   H10428340   4.424   4.130   3.289  0.2231 -1.1717  1.4600
   79MOL   H10528341   4.230   4.032   3.178  0.3654  0.8830 -0.0259
   79MOL   H10628342   4.331   3.913   3.097  0.8904 -0.4849  1.6902
   79MOL   H10728343   4.312   3.924   3.401  1.0446  2.2517 -1.4173
   79MOL   H10828344   4.210   3.830   3.281 -0.5104  1.0572  1.4839
   79MOL   H10928345   4.388   3.805   3.300 -0.0445 -2.1866 -0.2918
   79MOL   C11028346   4.568   4.353   3.206  0.1979 -0.2662  0.3127
   79MOL   C11128347   4.455   4.455   3.180  0.3718 -0.2361  0.2964
   79MOL   C11228348   4.484   4.561   3.071 -0.1180 -0.1118  0.5654
   79MOL   C11328349   4.592   4.661   3.114  0.3114 -0.1434  0.0377
   79MOL   C11428350   4.608   4.771   2.998  0.2296 -0.2843 -0.1107
   79MOL   C11528351   4.490   4.860   2.961  0.8087 -0.1816 -0.4707
   79MOL   H11628352   4.541   4.295   3.293 -0.3992 -1.2477 -0.5185
   79MOL   H11728353   4.666   4.397   3.229  0.1858 -0.5619  0.9358
   79MOL   H11828354   4.366   4.401   3.146  0.1832  0.2679 -0.0233
   79MOL   H11928355   4.400   4.623   3.039  1.6884  2.1887  0.1904
   79MOL   H12028356   4.515   4.505   2.983 -0.9708 -1.0563  0.8452
   79MOL   H12128357   4.681   4.605   3.140  0.0488  0.0794  1.4633
   79MOL   H12228358   4.561   4.712   3.205  1.6694  0.2297  0.3037
   79MOL   H12328359   4.635   4.727   2.902  1.7034  1.1201 -0.3691
   79MOL   H12428360   4.690   4.837   3.030 -0.0874  0.3680 -0.6340
   79MOL   H12528361   4.447   4.902   3.052 -1.5233 -0.5556 -1.3906
   79MOL   H12628362   4.530   4.933   2.891 -0.2343  0.7971 -0.0356
   79MOL   H12728363   4.410   4.799   2.919  1.5996 -1.3389 -0.3283
   79MOL   C12828364   4.406   4.525   3.307 -0.1804  0.0741 -0.5147
   79MOL   C12928365   4.302   4.636   3.289 -0.5427  0.0013 -0.5149
   79MOL   C13028366   4.291   4.719   3.418 -0.6768  0.3897  0.0159
   79MOL   C13128367   4.258   4.650   3.551 -0.0828  0.5144  0.0758
   79MOL   C13228368   4.247   4.741   3.678  0.6481  0.2091 -0.1906
   79MOL   C13328369   4.350   4.854   3.683  0.3006  0.1253 -0.2455
   79MOL   H13428370   4.495   4.566   3.355 -0.2592 -1.5534  1.0943
   79MOL   H13528371   4.368   4.446   3.372 -1.9901  0.9643 -0.4572
   79MOL   H13628372   4.334   4.706   3.212 -1.2991  1.3658  0.3952
   79MOL   H13728373   4.392   4.760   3.419 -0.5065 -0.0431  1.7892
   79MOL   H13828374   4.220   4.801   3.414 -0.2278  0.8612  1.4868
   79MOL   H13928375   4.318   4.561   3.568 -1.0074 -0.3093 -0.9251
   79MOL   H14028376   4.160   4.608   3.527 -0.7081  0.9603  1.7741
   79MOL   H14128377   4.153   4.797   3.681  0.9400  0.7546 -1.2160
   79MOL   H14228378   4.245   4.681   3.769 -1.7188 -1.2030 -1.1189
   79MOL   H14328379   4.354   4.905   3.587 -1.6868  0.1333 -0.3400
   79MOL   H14428380   4.453   4.819   3.696  0.4676  0.9857  0.7993
   79MOL   H14528381   4.319   4.928   3.756  0.3724  0.3101 -0.4027
   79MOL   C14628382   4.163   4.586   3.247  0.7680  0.2444 -0.0815
   79MOL   C14728383   4.048   4.690   3.235 -0.0981  0.2006 -0.7606
   79MOL   C14828384   3.926   4.625   3.168  0.7955  0.2480  0.0893
   79MOL   C14928385   3.847   4.518   3.237 -0.1784  0.2070  0.0379
   79MOL   C15028386   3.755   4.447   3.136  0.0055 -0.2387 -0.4114
   79MOL   C15128387   3.667   4.345   3.217  0.5105  0.5104 -0.0086
   79MOL   H15228388   4.173   4.523   3.158  0.6879  0.7151 -0.4236
   79MOL   H15328389   4.130   4.511   3.319  0.8703  0.1730 -0.1080
   79MOL   H15428390   4.022   4.720   3.336  1.5056 -0.2096 -0.2064
   79MOL   H15528391   3.960   4.588   3.071 -2.9812  1.5160 -1.8028
   79MOL   H15628392   3.848   4.697   3.144  0.3230  0.0768  1.1003
   79MOL   H15728393   3.913   4.437   3.269 -0.6072 -0.8543 -1.7168
   79MOL   H15828394   3.791   4.550   3.325 -0.4822 -1.6922  0.5617
   79MOL   H15928395   3.798   4.389   3.054 -1.8013  0.7500 -2.1108
   79MOL   H16028396   3.694   4.520   3.082 -1.8718 -1.3694  0.1689
   79MOL   H16128397   3.595   4.295   3.152  0.6366  0.3840 -0.0512
   79MOL   H16228398   3.713   4.258   3.264 -4.0776 -1.1627  1.6767
   79MOL   H16328399   3.604   4.401   3.286 -0.8295 -0.8359 -0.1275
   79MOL   C16428400   4.097   4.815   3.159 -0.3917 -0.1588  0.5532
   79MOL   C16528401   3.991   4.924   3.129  0.2453  0.1843 -0.2642
   79MOL   C16628402   3.931   4.984   3.256 -0.0027  0.8912 -0.0125
   79MOL   C16728403   4.029   5.052   3.352  0.0927  0.6450 -0.0239
   79MOL   C16828404   3.967   5.087   3.485  0.2508  0.0030 -0.1904
   79MOL   C16928405   4.071   5.153   3.579  0.9762  0.1896  0.2766
   79MOL   H17028406   4.190   4.849   3.204 -0.3594  1.2717 -0.5921
   79MOL   H17128407   4.138   4.781   3.065 -1.7827  0.7297 -0.4003
   79MOL   H17228408   3.909   4.887   3.067  0.3713 -0.9596  0.2513
   79MOL   H17328409   3.873   4.913   3.315  1.3004 -2.0508 -2.1656
   79MOL   H17428410   3.860   5.066   3.248  0.3017  1.3247  1.6081
   79MOL   H17528411   4.070   5.141   3.303  1.3577  0.7947  1.2712
   79MOL   H17628412   4.112   4.982   3.364 -1.3623 -1.0292  0.4543
   79MOL   H17728413   3.923   4.999   3.533  0.2442  0.0512 -0.1063
   79MOL   H17828414   3.878   5.146   3.462 -0.4300 -1.3352 -1.0336
   79MOL   H17928415   4.026   5.165   3.678 -1.4273 -2.9931 -0.3589
   79MOL   H18028416   4.107   5.246   3.535  0.4487 -0.7396 -2.1983
   79MOL   H18128417   4.158   5.091   3.601  1.3510 -0.4469 -2.8500
   79MOL   C18228418   4.039   5.032   3.036 -0.6974  0.1163 -0.4018
   79MOL   C18328419   3.936   5.121   2.969 -0.2697 -0.1896  0.9119
   79MOL   C18428420   3.928   5.086   2.816  0.5313  0.4841 -0.3755
   79MOL   C18528421   3.851   4.960   2.787  0.3249 -0.0104 -0.2634
   79MOL   C18628422   3.804   4.960   2.642  0.3558 -0.1794  0.1412
   79MOL   C18728423   3.693   4.860   2.607  0.0357 -0.1332  0.0674
   79MOL   H18828424   4.125   5.071   3.089 -1.2016 -0.0252  0.5249
   79MOL   H18928425   4.087   4.976   2.956 -0.2742 -0.4914  0.2743
   79MOL   H19028426   3.839   5.100   3.014 -1.8928  1.3818 -1.7648
   79MOL   H19128427   3.856   5.164   2.789  0.2162  0.7733  1.2060
   79MOL   H19228428   4.025   5.096   2.768  1.0345 -0.9354  0.3309
   79MOL   H19328429   3.759   4.964   2.847  0.3908 -0.0658 -0.1578
   79MOL   H19428430   3.899   4.869   2.824 -1.2380 -1.2406 -1.2185
   79MOL   H19528431   3.891   4.932   2.582  0.1388 -3.8813  1.4011
   79MOL   H19628432   3.764   5.059   2.620  1.3518  0.0815 -0.5140
   79MOL   H19728433   3.615   4.862   2.684  1.3733 -0.3932  1.4642
   79MOL   H19828434   3.735   4.760   2.606 -1.5190 -0.7857 -0.5693
   79MOL   H19928435   3.650   4.864   2.508  4.1189  0.9856 -1.7580
   79MOL   C20028436   3.982   5.270   2.990  0.4703  0.3355 -0.4928
   79MOL   C20128437   3.904   5.389   2.932  0.2517  0.6286  0.2943
   79MOL   C20228438   3.755   5.384   2.980 -0.6445  0.4913  0.1619
   79MOL   C20328439   3.717   5.412   3.123  0.3551 -0.1481 -0.2075
   79MOL   C20428440   3.575   5.349   3.161  0.0613 -0.3166  0.5987
   79MOL   C20528441   3.532   5.400   3.301 -0.3797  0.0205  0.1161
   79MOL   H20628442   4.088   5.281   2.965  0.7516  3.7692  1.8653
   79MOL   H20728443   3.984   5.287   3.098  0.6297  0.2656 -0.4837
   79MOL   H20828444   3.906   5.384   2.823  0.9602  0.1529  0.3239
   79MOL   H20928445   3.719   5.283   2.958  0.2047  0.3768 -0.7336
   79MOL   H21028446   3.698   5.445   2.910 -0.6396  0.1303 -0.1629
   79MOL   H21128447   3.723   5.520   3.136 -0.9569 -0.2495  1.3203
   79MOL   H21228448   3.796   5.380   3.191 -1.0377  1.8278  2.4555
   79MOL   H21328449   3.584   5.241   3.149 -0.7977 -0.3648  0.3423
   79MOL   H21428450   3.504   5.380   3.084  1.8828 -0.1283 -1.0592
   79MOL   H21528451   3.444   5.343   3.328 -0.3178  0.2249  0.7528
   79MOL   H21628452   3.612   5.370   3.368  0.0563  0.3689 -0.2438
   79MOL   H21728453   3.521   5.509   3.309 -0.0711  0.0307  0.3817
   79MOL   C21828454   3.972   5.521   2.966  0.6216  0.0983  0.3341
   79MOL   C21928455   3.921   5.637   2.878  0.3154 -0.1411 -0.1016
   79MOL   C22028456   3.990   5.628   2.739  0.0045 -0.5339  0.0300
   79MOL   C22128457   3.936   5.711   2.622 -0.2324 -0.6497  0.1680
   79MOL   C22228458   3.995   5.668   2.490 -0.4847 -0.3892 -0.6164
   79MOL   C22328459   3.926   5.744   2.375 -0.6836  0.1650  0.2478
   79MOL   H22428460   3.962   5.530   3.074 -1.0174 -1.4751  0.3574
   79MOL   H22528461   4.080   5.521   2.958  0.5548  0.5522 -0.6659
   79MOL   H22628462   3.814   5.632   2.859  0.1179  1.4805  0.4685
   79MOL   H22728463   3.986   5.524   2.707 -3.7420 -1.6824  3.7379
   79MOL   H22828464   4.096   5.647   2.752  0.4133 -2.2055 -0.8187
   79MOL   H22928465   3.959   5.814   2.648 -1.1657 -0.8750  1.9839
   79MOL   H23028466   3.827   5.713   2.617 -0.2911 -1.6026  0.8441
   79MOL   H23128467   4.104   5.679   2.495 -0.6071  0.4716  0.3076
   79MOL   H23228468   3.969   5.565   2.467  2.6398 -1.6323  1.1007
   79MOL   H23328469   3.979   5.708   2.286 -1.2144  1.9218 -0.7913
   79MOL   H23428470   3.960   5.848   2.379  0.3814 -0.2362  2.2354
   79MOL   H23528471   3.819   5.727   2.366 -0.5377  0.3724 -2.6420
   79MOL   C23628472   3.973   5.769   2.955  0.3353  0.1004  0.2305
   79MOL   C23728473   3.884   5.795   3.071 -1.1376  1.3578 -0.1038
   79MOL   C23828474   3.754   5.876   3.031 -0.2444 -0.1089  0.0282
   79MOL   C23928475   3.636   5.836   3.108 -0.3520 -0.7888 -1.1896
   79MOL   C24028476   3.507   5.917   3.078  0.0481 -0.3587 -0.1081
   79MOL   C24128477   3.380   5.868   3.148 -0.1764  0.4189  0.3299
   79MOL   H24228478   4.075   5.756   2.992  0.1679 -0.6119  0.4436
   79MOL   H24328479   3.966   5.865   2.903 -0.6562  0.6960  1.4533
   79MOL   H24428480   3.843   5.702   3.110 -2.3163  0.7505 -2.6948
   79MOL   H24528481   3.769   5.983   3.042 -1.5912  0.1772 -0.8101
   79MOL   H24628482   3.731   5.847   2.929 -2.1889 -0.7485  0.6204
   79MOL   H24728483   3.645   5.830   3.216  0.7503 -0.0910 -1.2324
   79MOL   H24828484   3.625   5.732   3.078  1.3409 -1.0465 -0.9654
   79MOL   H24928485   3.528   6.016   3.119 -3.5251 -0.2044  1.4515
   79MOL   H25028486   3.500   5.931   2.970  1.5945  1.2628 -0.0163
   79MOL   H25128487   3.380   5.760   3.135 -2.9598  0.6495 -2.4122
   79MOL   H25228488   3.389   5.897   3.253 -0.0579  1.0621  0.1472
   79MOL   H25328489   3.290   5.913   3.106 -0.2806 -0.2607 -0.1781
   79MOL   C25428490   3.953   5.855   3.196 -0.1603 -0.8093 -0.5277
   79MOL   C25528491   4.073   5.771   3.256 -0.3857 -0.0440  0.4176
   79MOL   C25628492   4.034   5.708   3.392  0.2076 -0.1002  0.0116
   79MOL   C25728493   3.923   5.601   3.383  0.3295  0.3691 -0.1697
   79MOL   C25828494   3.864   5.565   3.519 -0.1680 -0.1748  0.2301
   79MOL   C25928495   3.718   5.605   3.536 -0.1418  0.2447 -0.5039
   79MOL   H26028496   3.871   5.866   3.267  0.9446  2.0786  0.3822
   79MOL   H26128497   3.981   5.958   3.173 -1.4923 -0.4331 -0.4968
   79MOL   H26228498   4.094   5.690   3.186  0.5049  0.6445 -0.1119
   79MOL   H26328499   4.119   5.659   3.439 -1.9580 -1.5611  2.5552
   79MOL   H26428500   4.009   5.789   3.460  1.7479  1.5135 -1.3030
   79MOL   H26528501   3.844   5.647   3.324  1.0618  1.6955 -0.1438
   79MOL   H26628502   3.950   5.509   3.331 -2.6952  0.3677 -1.8330
   79MOL   H26728503   3.929   5.617   3.590 -0.8240  1.3733 -0.2788
   79MOL   H26828504   3.869   5.459   3.545 -0.8345 -0.3603 -0.3788
   79MOL   H26928505   3.653   5.523   3.504  0.5602 -0.1021 -1.0698
   79MOL   H27028506   3.687   5.699   3.491  0.2581  0.1090 -1.0712
   79MOL   H27128507   3.702   5.613   3.644  0.4118 -0.2486 -0.3796
   79MOL   C27228508   4.192   5.862   3.265 -0.3034  0.0493  0.0935
   79MOL   C27328509   4.324   5.780   3.287 -0.0773  0.2157  0.0059
   79MOL   C27428510   4.443   5.851   3.359 -0.0546  0.0650  0.6408
   79MOL   C27528511   4.430   5.863   3.511  0.7672  0.4513  0.6569
   79MOL   C27628512   4.544   5.929   3.574  0.3363 -0.3039 -0.1687
   79MOL   C27728513   4.530   5.946   3.719  0.3282 -1.0095 -0.3570
   79MOL   H27828514   4.210   5.922   3.175  0.2444  1.5182  1.1537
   79MOL   H27928515   4.162   5.933   3.342  1.6749  0.7545  0.2387
   79MOL   H28028516   4.301   5.689   3.343 -0.0771  0.2401  0.0458
   79MOL   H28128517   4.471   5.946   3.313 -1.5362 -0.7207 -1.9765
   79MOL   H28228518   4.532   5.793   3.335  0.1309  0.9078 -0.7560
   79MOL   H28328519   4.435   5.760   3.547  1.1922 -0.1187 -0.9559
   79MOL   H28428520   4.337   5.906   3.549 -1.2440 -0.8105 -2.5537
   79MOL   H28528521   4.630   5.870   3.541 -0.8863 -1.4722 -1.3772
   79MOL   H28628522   4.553   6.021   3.516 -0.9486 -0.4589 -0.6312
   79MOL   H28728523   4.449   6.017   3.739 -0.9246 -2.4107 -0.3230
   79MOL   H28828524   4.510   5.853   3.772 -2.3342  1.5952  3.5575
   79MOL   H28928525   4.615   5.991   3.769  1.2601  0.9784 -3.6356
   79MOL   C29028526   4.376   5.725   3.154  0.0256 -0.6352 -0.0666
   79MOL   C29128527   4.461   5.588   3.154 -0.0713 -0.3675  1.4416
   79MOL   C29228528   4.370   5.472   3.191 -0.2433  0.5150 -0.1299
   79MOL   C29328529   4.428   5.347   3.248 -0.4525 -0.2132  0.2629
   79MOL   C29428530   4.337   5.228   3.244 -0.4921  0.1181 -0.0307
   79MOL   C29528531   4.394   5.109   3.318  0.2356 -0.4290  0.6372
   79MOL   H29628532   4.443   5.796   3.106 -0.1413  1.3169  2.4889
   79MOL   H29728533   4.290   5.717   3.089  0.7680  1.1609 -1.3118
   79MOL   H29828534   4.539   5.588   3.229 -0.3933  1.5512  1.8103
   79MOL   H29928535   4.320   5.447   3.097 -1.0804 -0.2114  0.5053
   79MOL   H30028536   4.281   5.498   3.248 -0.7447 -0.0823 -0.6342
   79MOL   H30128537   4.515   5.319   3.189 -0.0499  0.0309  0.7362
   79MOL   H30228538   4.459   5.361   3.351  1.0395 -2.5977  0.1787
   79MOL   H30328539   4.326   5.212   3.137  0.4854 -3.0297  0.2989
   79MOL   H30428540   4.240   5.253   3.288 -1.3688 -2.3979 -0.4397
   79MOL   H30528541   4.491   5.094   3.270 -0.4635  0.3003 -1.0779
   79MOL   H30628542   4.342   5.014   3.313 -2.0863  0.8245  0.0516
   79MOL   H30728543   4.402   5.124   3.425  3.5546 -2.5550  0.7434
   79MOL   C30828544   4.527   5.564   3.021 -0.0280  0.8241 -0.0576
   79MOL   C30928545   4.443   5.570   2.885  0.4635 -0.3677  0.0508
   79MOL   C31028546   4.429   5.427   2.831 -0.9054 -0.4390  0.5062
   79MOL   C31128547   4.328   5.411   2.721  0.8952  0.8451  0.6060
   79MOL   C31228548   4.293   5.265   2.694  0.3887 -0.0003 -0.0567
   79MOL   C31328549   4.195   5.243   2.571 -0.0644  0.0381  0.0503
   79MOL   H31428550   4.611   5.633   3.011 -0.3724  1.1615 -0.6195
   79MOL   H31528551   4.590   5.475   3.027 -1.9069 -0.5347 -0.2470
   79MOL   H31628552   4.339   5.596   2.906 -0.1379 -1.6572 -1.3062
   79MOL   H31728553   4.391   5.365   2.912  0.4317 -1.0246  0.6802
   79MOL   H31828554   4.522   5.384   2.796  1.0378  1.4950  3.1138
   79MOL   H31928555   4.362   5.459   2.628 -0.6616  2.3911  0.8090
   79MOL   H32028556   4.233   5.449   2.757 -0.4142 -0.1317 -1.6994
   79MOL   H32128557   4.385   5.223   2.652  1.2968  2.3617 -0.4817
   79MOL   H32228558   4.274   5.211   2.787 -2.2021  0.7048 -0.1545
   79MOL   H32328559   4.241   5.278   2.479 -0.0157 -1.9319 -0.6832
   79MOL   H32428560   4.107   5.305   2.590  1.5651  2.4659 -0.0901
   79MOL   H32528561   4.162   5.139   2.563 -1.3564  0.6008 -2.3205
   79MOL   C32628562   4.497   5.661   2.774 -0.0507 -0.0796  0.0867
   79MOL   C32728563   4.514   5.811   2.804 -0.5679  0.4219  0.3570
   79MOL   C32828564   4.607   5.874   2.698  1.2410 -0.2578  0.4093
   79MOL   C32928565   4.554   5.868   2.549  0.1116 -0.0557 -0.2178
   79MOL   C33028566   4.648   5.946   2.457 -0.3149 -1.1632  0.2642
   79MOL   C33128567   4.791   5.882   2.436  0.4776 -0.2293  0.0065
   79MOL   H33228568   4.416   5.667   2.701  0.1926  1.3889 -0.0873
   79MOL   H33328569   4.579   5.620   2.714 -0.2366 -0.7545  0.2981
   79MOL   H33428570   4.568   5.822   2.899 -1.1858  2.2113  0.5152
   79MOL   H33528571   4.625   5.981   2.708  0.3853 -0.1380  0.7606
   79MOL   H33628572   4.708   5.833   2.700  0.6518 -2.1072 -3.0286
   79MOL   H33728573   4.454   5.909   2.537 -0.7368 -2.3552 -1.0885
   79MOL   H33828574   4.564   5.770   2.503 -0.8152  1.0454 -2.8457
   79MOL   H33928575   4.602   5.962   2.359 -1.2924  2.5571  1.2354
   79MOL   H34028576   4.666   6.041   2.508  3.1166 -2.2450  1.2094
   79MOL   H34128577   4.780   5.781   2.394  0.2335 -0.1310 -0.1673
   79MOL   H34228578   4.854   5.866   2.523  0.6156 -1.8716 -0.3645
   79MOL   H34328579   4.862   5.949   2.388 -0.3827 -0.5674 -1.8077
   79MOL   C34428580   4.377   5.883   2.820 -0.2033 -0.0625 -0.8765
   79MOL   C34528581   4.385   6.027   2.865 -0.3717  0.5797  0.2658
   79MOL   C34628582   4.249   6.098   2.879 -0.3948 -0.6166 -0.5259
   79MOL   C34728583   4.265   6.208   2.980  0.3722  0.6825 -0.3632
   79MOL   C34828584   4.129   6.281   3.003  0.4366 -0.2357  0.1225
   79MOL   C34928585   4.112   6.355   3.137  0.2384 -0.4028  0.4766
   79MOL   H35028586   4.323   5.888   2.725  1.5113 -1.6994 -1.9747
   79MOL   H35128587   4.315   5.829   2.892 -1.0493 -0.2947 -1.7589
   79MOL   H35228588   4.436   6.077   2.782  1.7218  2.3302  2.5540
   79MOL   H35328589   4.220   6.129   2.778  0.6304  1.1033 -0.3186
   79MOL   H35428590   4.177   6.026   2.918  0.1907 -0.0622  1.6410
   79MOL   H35528591   4.286   6.157   3.074 -2.4343 -1.7667 -0.9781
   79MOL   H35628592   4.343   6.279   2.953  0.0977  0.2928 -2.2532
   79MOL   H35728593   4.120   6.347   2.916  1.2543  0.8943  0.8664
   79MOL   H35828594   4.058   6.201   2.987 -2.3221  2.4866 -1.7853
   79MOL   H35928595   4.213   6.385   3.165  0.5743 -1.0354 -0.0448
   79MOL   H36028596   4.059   6.451   3.127 -0.1653 -0.7465 -0.8775
   79MOL   H36128597   4.067   6.293   3.214  0.5627 -2.5480 -1.0061
   79MOL   H36228598   4.449   6.041   2.952 -1.9483  0.1938  1.5132
   80MOL     C128599   7.154   7.241   1.228  0.0681  0.0023  0.4153
   80MOL     C228600   7.273   7.280   1.322  0.1812  0.2604 -0.6527
   80MOL     C328601   7.256   7.416   1.396 -0.1090 -0.0734  0.2567
   80MOL     C428602   7.122   7.441   1.466  0.5153 -0.0209  0.4921
   80MOL     C528603   7.097   7.334   1.583  0.1430 -0.0967  0.8420
   80MOL     C628604   6.969   7.368   1.669 -0.0774 -0.1417 -0.8826
   80MOL     H728605   7.166   7.150   1.169  2.7233  0.5867  0.0068
   80MOL     H828606   7.058   7.231   1.279 -0.3491  2.0808  0.0744
   80MOL     H928607   7.282   7.204   1.400  0.8966  0.1890 -0.8052
   80MOL    H1028608   7.264   7.501   1.329  0.5017  0.3372  0.8458
   80MOL    H1128609   7.335   7.430   1.470  1.2292 -1.0255 -0.9550
   80MOL    H1228610   7.040   7.438   1.394  1.3387 -1.5639 -0.4104
   80MOL    H1328611   7.121   7.545   1.496  0.0146  0.3127 -0.6600
   80MOL    H1428612   7.087   7.229   1.554 -0.6025  0.1038  0.3448
   80MOL    H1528613   7.182   7.340   1.650 -1.3028 -0.6840  2.7876
   80MOL    H1628614   6.878   7.373   1.608  0.5742  0.5022 -1.8190
   80MOL    H1728615   6.972   7.464   1.719 -1.0044 -2.0204  2.9619
   80MOL    H1828616   6.944   7.289   1.740  2.6383 -0.2105  0.0437
   80MOL    H1928617   7.142   7.315   1.149 -1.4294 -0.3460  0.2909
   80MOL    C2028618   7.398   7.273   1.236  0.3635 -0.1959  0.0911
   80MOL    C2128619   7.526   7.255   1.317 -0.1645 -0.1545 -0.7349
   80MOL    C2228620   7.540   7.119   1.390  0.0931 -0.2941  0.2356
   80MOL    C2328621   7.649   7.120   1.495  0.2477 -0.3817 -0.1484
   80MOL    C2428622   7.656   6.989   1.572 -0.9267  0.5564  0.3129
   80MOL    C2528623   0.038   6.983   1.682 -0.2158 -0.1112 -0.3879
   80MOL    H2628624   7.401   7.368   1.182  0.6897  0.0032  0.4504
   80MOL    H2728625   7.387   7.196   1.160  1.7524 -0.2959 -0.0296
   80MOL    H2828626   7.524   7.336   1.391  2.9527  0.2081 -0.9825
   80MOL    H2928627   7.562   7.038   1.320 -0.4779  1.4576 -2.0590
   80MOL    H3028628   7.454   7.089   1.449  0.4689 -0.0370  0.9248
   80MOL    H3128629   7.627   7.199   1.566 -0.7356 -0.1977 -0.6545
   80MOL    H3228630   0.025   7.127   1.458 -0.5433 -2.6190 -2.9790
   80MOL    H3328631   7.562   6.981   1.628 -1.3151  0.4298 -0.3398
   80MOL    H3428632   7.672   6.905   1.504 -0.2091  0.3980  0.6774
   80MOL    H3528633   0.025   6.891   1.740  1.3541  0.5734  1.0881
   80MOL    H3628634   0.134   6.972   1.632  0.4842  3.5395  0.0232
   80MOL    H3728635   0.032   7.070   1.747  1.9339 -1.2038  1.3371
   80MOL    C3828636   7.649   7.279   1.222 -0.2269  0.4425  0.4484
   80MOL    C3928637   0.024   7.391   1.271  1.0776 -0.6110 -0.0485
   80MOL    C4028638   0.174   7.365   1.233 -0.0938  0.3370  0.0295
   80MOL    C4128639   0.244   7.248   1.305  0.3935  0.1904 -0.3754
   80MOL    C4228640   0.396   7.230   1.280  0.2156  0.8313 -0.3644
   80MOL    C4328641   0.418   7.170   1.142 -1.0455 -0.1614  0.0762
   80MOL    H4428642   7.621   7.302   1.119 -2.2906  2.1506  1.3508
   80MOL    H4528643   7.699   7.183   1.211  1.5594  1.4261 -0.2554
   80MOL    H4628644   7.727   7.389   1.377 -4.0334 -0.1112 -1.0775
   80MOL    H4728645   0.181   7.354   1.125  2.6726  0.2696  0.1861
   80MOL    H4828646   0.243   7.443   1.266 -2.2353  1.1871  2.6930
   80MOL    H4928647   0.241   7.265   1.413  0.1737  3.8736 -0.8924
   80MOL    H5028648   0.199   7.154   1.273 -1.6678  0.9367  0.2571
   80MOL    H5128649   0.455   7.321   1.286 -1.9576  2.3668 -1.8665
   80MOL    H5228650   0.440   7.162   1.354  0.7396  0.0108 -1.4071
   80MOL    H5328651   0.354   7.085   1.117  0.9896 -1.1252 -2.0590
   80MOL    H5428652   0.516   7.126   1.126 -2.1405 -3.2293  1.2706
   80MOL    H5528653   0.405   7.239   1.059  3.2380  1.9105  1.0121
   80MOL    C5628654   7.695   7.525   1.224 -0.2141 -0.3922  0.1296
   80MOL    C5728655   0.009   7.654   1.297 -0.4642 -0.4283  0.3151
   80MOL    C5828656   7.666   7.682   1.434  0.0395  0.2358 -0.6590
   80MOL    C5928657   7.523   0.011   1.438  0.1337 -0.3672 -0.4571
   80MOL    C6028658   7.465   0.042   1.576 -0.0191  0.1462  0.2895
   80MOL    C6128659   7.522   0.163   1.653 -0.7849  0.4471 -1.1018
   80MOL    H6228660   7.699   7.534   1.115 -0.2421  1.4233  0.2665
   80MOL    H6328661   7.588   7.530   1.246 -0.2536  3.4769 -0.5994
   80MOL    H6428662   0.115   7.638   1.318 -0.1982  2.0730  1.0563
   80MOL    H6528663   7.671   7.595   1.499 -2.3515 -0.0646 -0.8174
   80MOL    H6628664   0.005   0.030   1.477  0.4111  0.3122 -1.3429
   80MOL    H6728665   7.464   7.656   1.398 -0.8525  0.2694 -0.3141
   80MOL    H6828666   7.510   0.101   1.378  1.2738 -1.7144 -2.7775
   80MOL    H6928667   7.358   0.059   1.560  0.1255  1.4364  0.5653
   80MOL    H7028668   7.462   7.680   1.638 -0.0702 -0.6321 -0.8301
   80MOL    H7128669   7.630   0.147   1.657 -1.1977 -2.5864 -0.8341
   80MOL    H7228670   7.511   0.256   1.598  0.4224  1.4405  0.3084
   80MOL    H7328671   7.476   0.168   1.752 -0.3062 -1.1184 -0.7841
   80MOL    C7428672   7.725   0.045   1.196  0.6202 -0.7328  0.0419
   80MOL    C7528673   0.101   0.044   1.075 -0.7460  0.0396 -0.6136
   80MOL    C7628674   0.039   0.074   0.942 -0.4314  0.2949  0.0976
   80MOL    C7728675   7.652   7.711   0.901 -1.0594  0.1662  0.3955
   80MOL    C7828676   7.594   0.024   0.767  0.3664 -0.0782 -0.1187
   80MOL    C7928677   7.488   7.644   0.742 -0.0233 -0.6573 -0.7959
   80MOL    H8028678   7.621   0.055   1.168  0.6600  1.7588  0.6038
   80MOL    H8128679   0.014   0.141   1.246 -2.0323  0.1407 -0.7077
   80MOL    H8228680   0.128   7.666   1.074  2.0566  0.7447 -3.5453
   80MOL    H8328681   7.719   0.173   0.945  1.7012  1.3160  0.4689
   80MOL    H8428682   0.107   0.078   0.857 -0.1044  1.7245  0.4087
   80MOL    H8528683   7.698   7.614   0.879  0.8867  1.4657 -1.4738
   80MOL    H8628684   7.577   7.699   0.979 -1.0237 -0.5048  0.3301
   80MOL    H8728685   7.667   0.049   0.690 -1.3152 -0.5816 -1.9460
   80MOL    H8828686   7.545   0.121   0.777  0.8259  0.2291 -0.8139
   80MOL    H8928687   7.442   7.673   0.648 -1.4361 -0.8120 -0.1722
   80MOL    H9028688   7.527   7.542   0.742  2.4092  0.2027  0.8956
   80MOL    H9128689   7.406   7.655   0.814  2.9981  2.3729  2.4344
   80MOL    C9228690   0.224   0.140   1.098 -0.2740  0.1609 -0.6112
   80MOL    C9328691   0.358   0.104   1.025  0.0893  0.9238  0.8680
   80MOL    C9428692   0.448   0.227   1.046 -0.4826 -0.0532 -0.7236
   80MOL    C9528693   0.463   0.326   0.927  1.0589  0.0119  0.1409
   80MOL    C9628694   0.547   0.450   0.954  0.1791  0.1234  0.3302
   80MOL    C9728695   0.560   0.538   0.832 -0.1352  0.8592 -0.3384
   80MOL    H9828696   0.180   0.237   1.074 -0.3764  0.1095 -0.6352
   80MOL    H9928697   0.242   0.141   1.206  2.0594  1.0405 -1.0003
   80MOL   H10028698   0.353   0.079   0.919  0.9343 -0.1123  1.0627
   80MOL   H10128699   0.553   0.199   1.057 -1.1280 -1.7970  1.3603
   80MOL   H10228700   0.430   0.282   1.139 -1.5294 -0.0164 -0.9502
   80MOL   H10328701   0.499   0.275   0.838 -0.8319  0.4203 -0.8784
   80MOL   H10428702   0.362   0.355   0.897  1.3937  0.5155 -0.5119
   80MOL   H10528703   0.505   0.515   1.031 -1.5699  2.5083 -2.5059
   80MOL   H10628704   0.648   0.421   0.983 -0.1434 -1.7995 -0.3715
   80MOL   H10728705   0.603   0.634   0.861 -1.1739  0.6498  2.0092
   80MOL   H10828706   0.618   0.477   0.763 -3.8568 -3.0095 -0.2619
   80MOL   H10928707   0.460   0.550   0.789  0.1192  2.0251 -0.6275
   80MOL   C11028708   0.417   7.703   1.078  0.4960  0.7742 -0.0284
   80MOL   C11128709   0.513   7.641   0.977  0.6390  0.2082  0.2145
   80MOL   C11228710   0.434   7.552   0.864 -0.3277  0.4197  0.0434
   80MOL   C11328711   0.429   7.610   0.719 -0.4360 -0.1899 -1.0123
   80MOL   C11428712   0.329   7.534   0.632 -0.5044  0.1933 -0.2437
   80MOL   C11528713   0.368   7.550   0.479 -0.0641 -0.3501 -0.8511
   80MOL   H11628714   0.463   7.723   1.175  4.1722 -0.8552 -1.3615
   80MOL   H11728715   0.348   7.620   1.094 -0.2454  1.1769 -1.0656
   80MOL   H11828716   0.576   7.717   0.930  1.4446  0.5581  1.8291
   80MOL   H11928717   0.330   7.544   0.897 -0.1862 -0.2284  0.3341
   80MOL   H12028718   0.457   7.446   0.864 -0.2553  0.4360  0.5620
   80MOL   H12128719   0.531   7.609   0.681 -0.8258  2.4524 -2.2922
   80MOL   H12228720   0.403   7.716   0.720 -0.4179 -0.1867  1.4359
   80MOL   H12328721   0.224   7.555   0.656 -0.7203 -1.3412  0.2379
   80MOL   H12428722   0.345   7.428   0.652  2.5464  0.5535 -0.5687
   80MOL   H12528723   0.295   7.491   0.424 -1.0251  0.2708 -0.2693
   80MOL   H12628724   0.367   7.653   0.444 -1.1111  0.2138  0.7469
   80MOL   H12728725   0.469   7.514   0.461  0.0393 -0.6889  0.3558
   80MOL   C12828726   0.611   7.554   1.052  0.1390 -0.2338  0.0413
   80MOL   C12928727   0.728   7.486   0.969  0.1774  0.1986  0.3089
   80MOL   C13028728   0.753   7.337   1.003  0.5194  0.5378 -0.8634
   80MOL   C13128729   0.806   7.304   1.145  0.2766 -0.5023  0.0451
   80MOL   C13228730   0.839   7.158   1.165 -0.1427  0.9140  0.2970
   80MOL   C13328731   0.811   7.105   1.297 -0.1452  0.4380 -0.0611
   80MOL   H13428732   0.554   7.479   1.106  0.1688 -0.5789 -0.3981
   80MOL   H13528733   0.648   7.613   1.137  0.6828 -0.0395 -0.3219
   80MOL   H13628734   0.705   7.500   0.863  2.3839  3.5047  0.1707
   80MOL   H13728735   0.659   7.285   0.983  0.6923  0.2071 -0.8112
   80MOL   H13828736   0.828   7.308   0.929 -0.9556 -1.5302 -1.6083
   80MOL   H13928737   0.722   7.334   1.208 -0.0185 -0.2643 -0.4537
   80MOL   H14028738   0.894   7.364   1.167 -0.3628  0.8647 -1.0760
   80MOL   H14128739   0.777   7.110   1.090  0.5720  1.3242 -0.5621
   80MOL   H14228740   0.942   7.137   1.137 -0.4417 -0.6421  0.3625
   80MOL   H14328741   0.849   7.005   1.315 -0.1066  0.7856  1.9508
   80MOL   H14428742   0.704   7.111   1.320  0.3627  2.4595  1.9552
   80MOL   H14528743   0.861   7.161   1.376 -0.5375 -0.7859  1.0667
   80MOL   C14628744   0.865   7.566   0.997 -0.0194 -0.1795 -0.3567
   80MOL   C14728745   0.884   7.717   0.948  0.4442 -0.5266 -0.6999
   80MOL   C14828746   0.867   0.010   0.798 -0.6509 -0.1349  0.7874
   80MOL   C14928747   0.859   0.159   0.760  0.1573  0.1632  0.2223
   80MOL   C15028748   0.813   0.177   0.613  0.3122 -0.3509 -0.2182
   80MOL   C15128749   0.675   0.132   0.570  0.2992  0.0325 -0.3116
   80MOL   H15228750   0.875   7.567   1.106 -0.9446 -0.4792 -0.2675
   80MOL   H15328751   0.950   7.503   0.973  1.9196  2.4066 -0.5450
   80MOL   H15428752   0.807   0.056   0.989  0.0137 -0.8303 -1.0086
   80MOL   H15528753   0.771   7.690   0.775  0.1650 -1.4250 -0.0843
   80MOL   H15628754   0.945   7.684   0.743 -0.6966  0.0288  0.5657
   80MOL   H15728755   0.790   0.201   0.834  1.8727  1.5974  1.0484
   80MOL   H15828756   0.954   0.212   0.768  0.0721  0.3616 -0.0541
   80MOL   H15928757   0.892   0.132   0.552 -0.1071  0.0829 -1.0792
   80MOL   H16028758   0.822   0.284   0.592 -1.7109 -0.1885 -0.3856
   80MOL   H16128759   0.651   0.028   0.546 -1.2615  0.4041 -0.3976
   80MOL   H16228760   0.601   0.178   0.635  0.9998  1.9006 -0.7843
   80MOL   H16328761   0.653   0.166   0.469  2.2437  0.7824 -0.4929
   80MOL   C16428762   1.020   0.055   0.988  0.3511 -0.1097 -0.0218
   80MOL   C16528763   0.998   0.166   1.097  0.2574 -0.9673  0.0571
   80MOL   C16628764   0.909   0.113   1.223  0.2543 -0.4701 -0.6083
   80MOL   C16728765   0.901   0.220   1.338 -0.4958 -0.1562  0.0457
   80MOL   C16828766   0.795   0.193   1.440  0.1618  0.1841 -0.4483
   80MOL   C16928767   0.784   0.301   1.545  0.2837  0.1756  0.4966
   80MOL   H17028768   1.080   7.704   1.036 -2.9225 -0.8171  3.1950
   80MOL   H17128769   1.079   0.082   0.900  0.1803 -0.8391 -0.3592
   80MOL   H17228770   0.934   0.233   1.040  0.7873 -0.3703  0.1502
   80MOL   H17328771   0.955   0.023   1.263  1.0821 -0.7260 -2.0854
   80MOL   H17428772   0.809   0.077   1.196 -1.0453  1.3521  1.6062
   80MOL   H17528773   0.884   0.317   1.291  1.1309  0.4940  0.7609
   80MOL   H17628774   1.000   0.225   1.383 -1.0095  1.0091  1.1014
   80MOL   H17728775   0.822   0.097   1.485  1.9325  0.4148 -0.9777
   80MOL   H17828776   0.694   0.179   1.403 -0.1670  1.6797 -0.1518
   80MOL   H17928777   0.883   0.317   1.587  0.7472  1.1806 -0.9470
   80MOL   H18028778   0.721   0.270   1.629  0.1044 -2.1323 -0.4611
   80MOL   H18128779   0.751   0.393   1.496 -2.6192 -0.5327  1.0054
   80MOL   C18228780   1.130   0.236   1.130  0.0949  0.0435 -0.0215
   80MOL   C18328781   1.121   0.387   1.114 -0.3412 -0.1333 -0.2245
   80MOL   C18428782   1.126   0.416   0.961 -0.1834 -0.3075  1.0205
   80MOL   C18528783   1.004   0.505   0.925  0.9419 -0.3423 -0.6218
   80MOL   C18628784   1.006   0.532   0.767  0.7136  0.1653 -0.0941
   80MOL   C18728785   1.118   0.630   0.724 -0.1916 -0.1742  0.0037
   80MOL   H18828786   1.166   0.200   1.227 -0.2686 -1.1557 -0.3282
   80MOL   H18928787   1.211   0.213   1.061  1.8227  1.1579  1.5794
   80MOL   H19028788   1.031   0.427   1.160  0.0798  1.9112 -1.1228
   80MOL   H19128789   1.205   0.484   0.929 -1.4374  0.0344 -1.4558
   80MOL   H19228790   1.127   0.335   0.888  1.0449  1.8301 -1.4014
   80MOL   H19328791   1.004   0.603   0.972 -1.2762 -0.0371 -1.2201
   80MOL   H19428792   0.911   0.456   0.955 -0.5061  2.4027 -0.5177
   80MOL   H19528793   0.907   0.567   0.737  0.9815  0.4969 -0.5991
   80MOL   H19628794   1.012   0.435   0.718  2.5037 -1.0343  2.3742
   80MOL   H19728795   1.143   0.712   0.790 -0.3351 -1.3741  1.5685
   80MOL   H19828796   1.100   0.675   0.626 -0.0364  0.8928  0.4580
   80MOL   H19928797   1.207   0.571   0.702  0.1540 -0.3605  1.8694
   80MOL   C20028798   1.249   0.450   1.173  0.0029 -0.2116 -0.2870
   80MOL   C20128799   1.260   0.606   1.172  0.7310 -0.0621 -0.1852
   80MOL   C20228800   1.149   0.679   1.251 -0.4437 -0.3377 -0.0823
   80MOL   C20328801   1.147   0.635   1.400  0.3790 -0.2689  0.2673
   80MOL   C20428802   1.026   0.692   1.469 -0.3212 -0.2771 -0.3483
   80MOL   C20528803   1.024   0.682   1.617 -0.0935  0.3880 -0.5082
   80MOL   H20628804   1.337   0.401   1.132  1.5197  2.2099 -0.0268
   80MOL   H20728805   1.262   0.406   1.272  0.8222 -1.0322 -0.7529
   80MOL   H20828806   1.250   0.632   1.066  0.3888 -3.8256 -1.1421
   80MOL   H20928807   1.051   0.650   1.214  0.1620 -2.6506  0.0903
   80MOL   H21028808   1.162   0.787   1.239  0.3912 -0.6663 -2.2594
   80MOL   H21128809   1.231   0.675   1.457  1.2392 -2.5418  0.6214
   80MOL   H21228810   1.144   0.527   1.411  1.5011 -0.4114 -0.6631
   80MOL   H21328811   0.934   0.637   1.446 -2.0814  2.2805  0.3122
   80MOL   H21428812   1.013   0.794   1.432  1.2991  0.2943  0.6407
   80MOL   H21528813   0.926   0.705   1.658 -0.1589 -0.3578 -0.2408
   80MOL   H21628814   1.054   0.586   1.660  0.9710  1.0899  0.3466
   80MOL   H21728815   1.107   0.743   1.653  0.0604  0.0601 -0.2973
   80MOL   C21828816   1.402   0.636   1.223 -0.3559  0.8906  0.2855
   80MOL   C21928817   1.446   0.787   1.230 -0.3759  0.2486 -0.8239
   80MOL   C22028818   1.456   0.863   1.093 -0.3942 -0.3965  0.1740
   80MOL   C22128819   1.433   1.019   1.109  0.2646 -0.1646  0.1492
   80MOL   C22228820   1.421   1.090   0.975  0.0376 -0.6138  0.2312
   80MOL   C22328821   1.275   1.090   0.924  0.2440 -0.1070  0.4162
   80MOL   H22428822   1.405   0.587   1.320 -2.6079 -0.1536 -0.1462
   80MOL   H22528823   1.469   0.583   1.156  0.3244  0.2568  1.4487
   80MOL   H22628824   1.373   0.840   1.292 -0.2451 -1.5847  0.9262
   80MOL   H22728825   1.365   0.838   1.037  0.0981 -1.8355  0.0027
   80MOL   H22828826   1.549   0.843   1.040  0.1263 -2.8999  1.9634
   80MOL   H22928827   1.528   1.058   1.146  0.4933 -0.9274  0.3723
   80MOL   H23028828   1.356   1.037   1.185  1.1389 -0.4491  1.1173
   80MOL   H23128829   1.442   1.196   0.986  0.6403 -0.8634  1.5911
   80MOL   H23228830   1.495   1.053   0.903  1.4531  1.6558  0.4788
   80MOL   H23328831   1.212   1.151   0.990  0.5221  1.1552 -0.4848
   80MOL   H23428832   1.233   0.989   0.925  1.2158 -0.5209  0.0279
   80MOL   H23528833   1.258   1.120   0.821  1.5279 -0.0671  0.2169
   80MOL   C23628834   1.579   0.791   1.299 -0.1411  0.8919 -0.2418
   80MOL   C23728835   1.568   0.799   1.451  0.1968 -0.7466  0.4905
   80MOL   C23828836   1.583   0.944   1.499  0.6511  0.2072 -0.7696
   80MOL   C23928837   1.541   0.979   1.644 -0.0008  0.3694  0.2147
   80MOL   C24028838   1.386   0.968   1.667  0.1457  0.0512  0.3843
   80MOL   C24128839   1.289   1.032   1.558  0.4753 -0.3053 -0.1047
   80MOL   H24228840   1.636   0.701   1.274 -1.3921  0.3195 -1.0657
   80MOL   H24328841   1.638   0.873   1.257  1.5100 -0.0645  0.1530
   80MOL   H24428842   1.477   0.757   1.495 -0.9737 -1.7612 -2.7772
   80MOL   H24528843   1.685   0.977   1.477  0.3206  3.0753  1.6174
   80MOL   H24628844   1.522   1.009   1.436 -0.3117 -0.7759 -0.8683
   80MOL   H24728845   1.575   1.082   1.659 -0.0704 -0.1353  4.3538
   80MOL   H24828846   1.593   0.918   1.717 -0.6286  0.3484  0.6537
   80MOL   H24928847   1.371   0.861   1.672 -0.7985  0.1989  0.8316
   80MOL   H25028848   1.356   1.008   1.764 -1.7974 -0.6635  0.0956
   80MOL   H25128849   1.275   0.964   1.474 -0.8045  1.1951 -1.1233
   80MOL   H25228850   1.186   1.040   1.594 -0.0868 -0.0365 -1.7377
   80MOL   H25328851   1.315   1.134   1.531  0.3915  0.1951  1.6710
   80MOL   C25428852   1.683   0.720   1.514 -0.6035  0.5803  0.2708
   80MOL   C25528853   1.676   0.569   1.507  0.3559  0.2489  0.7889
   80MOL   C25628854   1.633   0.511   1.644  0.2587  0.1910 -0.7761
   80MOL   C25728855   1.485   0.532   1.677  0.0518  0.5450 -0.3140
   80MOL   C25828856   1.454   0.466   1.814 -0.3663  1.2504 -0.2928
   80MOL   C25928857   1.308   0.495   1.854 -0.2106 -0.0370  0.0953
   80MOL   H26028858   1.694   0.748   1.618  0.8363 -0.1771  0.3352
   80MOL   H26128859   1.776   0.760   1.474 -0.1487 -0.6238  0.0804
   80MOL   H26228860   1.602   0.528   1.438  1.3160 -0.5782  0.2390
   80MOL   H26328861   1.656   0.405   1.653  0.2233  0.2940  0.7481
   80MOL   H26428862   1.707   0.553   1.711 -0.6708 -0.2121  0.5358
   80MOL   H26528863   1.463   0.638   1.687  0.7164  0.7639 -1.1211
   80MOL   H26628864   1.427   0.486   1.597 -0.8090 -0.7155  1.0056
   80MOL   H26728865   1.525   0.498   1.890  1.1349 -1.3308 -0.5198
   80MOL   H26828866   1.467   0.358   1.801  0.1960  1.4982 -1.9011
   80MOL   H26928867   1.297   0.604   1.851  1.5783  0.2443  2.0591
   80MOL   H27028868   1.283   0.464   1.955  1.6827  2.5219  1.4183
   80MOL   H27128869   1.240   0.461   1.776 -1.1041 -2.1080  1.7333
   80MOL   C27228870   1.808   0.515   1.462 -0.2932 -0.1498 -0.0389
   80MOL   C27328871   1.807   0.364   1.416 -0.4673  0.7632  0.1401
   80MOL   C27428872   1.946   0.300   1.395  0.0254 -0.7309 -0.0447
   80MOL   C27528873   2.036   0.289   1.521 -0.5394 -0.4389  0.0172
   80MOL   C27628874   1.976   0.198   1.636  0.0371 -0.0881 -0.4035
   80MOL   C27728875   1.952   0.050   1.584 -0.2850  0.2887  0.2551
   80MOL   H27828876   1.837   0.577   1.377 -2.2628  0.9169  0.0322
   80MOL   H27928877   1.887   0.537   1.534  1.2602  0.7365 -1.9887
   80MOL   H28028878   1.756   0.298   1.486  2.0241 -0.3939  0.9395
   80MOL   H28128879   2.008   0.366   1.334  0.4396  0.4941  1.6679
   80MOL   H28228880   1.936   0.207   1.339  1.7744 -0.7478 -0.3699
   80MOL   H28328881   2.069   0.386   1.558  0.3739  1.3314 -4.9566
   80MOL   H28428882   2.134   0.262   1.483 -0.3338  0.7058 -0.2755
   80MOL   H28528883   2.043   0.207   1.722 -0.2619  1.7758 -0.3360
   80MOL   H28628884   1.878   0.236   1.667 -0.0399 -1.3496  0.9301
   80MOL   H28728885   1.902   7.711   1.655  1.2822  0.3341  1.4446
   80MOL   H28828886   1.887   0.053   1.497 -0.9568  2.7581  0.8100
   80MOL   H28928887   2.045   0.007   1.546  0.6284  2.4529 -0.0370
   80MOL   C29028888   1.728   0.349   1.289  0.0580  0.1629  0.6064
   80MOL   C29128889   1.677   0.212   1.242  0.2657  0.3221 -0.1851
   80MOL   C29228890   1.586   0.159   1.348  0.3435 -0.1811 -0.4000
   80MOL   C29328891   1.483   0.251   1.406 -0.2790 -0.1137  0.0243
   80MOL   C29428892   1.360   0.182   1.465  0.4601  0.4237  0.3339
   80MOL   C29528893   1.268   0.275   1.557 -0.1761 -0.0228 -0.2972
   80MOL   H29628894   1.795   0.387   1.211 -1.1961  1.5385  0.1758
   80MOL   H29728895   1.640   0.412   1.281 -1.1309 -1.4277  1.0066
   80MOL   H29828896   1.766   0.153   1.220  0.9892  2.0232 -2.0285
   80MOL   H29928897   1.634   0.114   1.435  0.3108 -2.3830 -1.4971
   80MOL   H30028898   1.538   0.072   1.304 -0.7776  0.8727 -1.3130
   80MOL   H30128899   1.534   0.304   1.487  1.3993 -1.2169 -0.2988
   80MOL   H30228900   1.449   0.319   1.328 -0.0783  0.2504  0.2495
   80MOL   H30328901   1.390   0.099   1.529  0.5136 -0.0761 -0.3237
   80MOL   H30428902   1.299   0.134   1.388  1.7128  0.8676 -0.9511
   80MOL   H30528903   1.244   0.374   1.518  0.2297 -0.8611 -2.7646
   80MOL   H30628904   1.325   0.293   1.648  1.2332  2.4160 -1.6013
   80MOL   H30728905   1.170   0.234   1.580 -0.2870 -1.3551 -2.9686
   80MOL   C30828906   1.592   0.219   1.107 -0.2234  0.2493  0.2870
   80MOL   C30928907   1.641   0.127   0.988 -0.1511 -0.7692 -0.0639
   80MOL   C31028908   1.785   0.158   0.949 -0.6468 -0.4369 -0.1225
   80MOL   C31128909   1.855   0.056   0.857  0.8787 -1.0150 -0.0152
   80MOL   C31228910   1.997   0.098   0.828  0.7639 -0.4203  0.2657
   80MOL   C31328911   2.073   7.721   0.746  0.1427 -0.0050  0.2309
   80MOL   H31428912   1.495   0.173   1.128 -1.0585  1.3781 -0.9890
   80MOL   H31528913   1.573   0.320   1.070  0.8527  0.5834  0.6235
   80MOL   H31628914   1.646   0.031   1.040 -0.3417  0.3258  1.9989
   80MOL   H31728915   1.841   0.153   1.042 -0.9755  0.7908  0.1515
   80MOL   H31828916   1.794   0.265   0.927 -0.0766 -0.6538 -0.9773
   80MOL   H31928917   1.798   0.030   0.768 -0.4365 -1.0888  0.8324
   80MOL   H32028918   1.860   7.687   0.909  0.3352 -1.3663 -0.6072
   80MOL   H32128919   2.004   0.187   0.765  2.5913 -0.2621  0.6477
   80MOL   H32228920   2.060   0.122   0.914  0.3786 -0.2561  0.5031
   80MOL   H32328921   2.082   7.635   0.812 -0.5770  0.1124  0.4824
   80MOL   H32428922   2.173   0.025   0.714  0.4711 -2.5963 -1.3476
   80MOL   H32528923   2.020   7.698   0.654 -0.2927 -0.2258  0.5398
   80MOL   C32628924   1.548   0.122   0.865 -0.1875 -0.0507 -0.0611
   80MOL   C32728925   1.491   7.709   0.820 -0.0395  0.3278  0.1389
   80MOL   C32828926   1.400   7.658   0.932  0.2100 -0.3571 -0.4052
   80MOL   C32928927   1.356   7.507   0.916 -0.2050 -0.5429  0.5611
   80MOL   C33028928   1.289   7.453   1.047  0.6064  0.1893  0.4228
   80MOL   C33128929   1.251   7.308   1.039 -0.0728  0.0723 -0.5298
   80MOL   H33228930   1.600   0.171   0.782  0.3220 -0.7852 -0.1739
   80MOL   H33328931   1.459   0.183   0.883 -1.5190 -2.0872  0.3628
   80MOL   H33428932   1.572   7.636   0.823  2.0468  2.5603 -0.1549
   80MOL   H33528933   1.445   7.672   1.030  0.1044  3.1165 -0.7969
   80MOL   H33628934   1.309   7.719   0.931  1.0705  0.9514  0.0541
   80MOL   H33728935   1.444   7.453   0.881 -0.2813 -1.5535  1.8723
   80MOL   H33828936   1.288   7.491   0.833  0.1358  1.8467 -0.2160
   80MOL   H33928937   1.352   7.465   1.135 -1.8147 -0.0326  2.2554
   80MOL   H34028938   1.199   7.513   1.063 -0.8958 -1.7851 -0.4794
   80MOL   H34128939   1.177   7.296   0.960 -0.4350 -1.5008  0.0355
   80MOL   H34228940   1.215   7.271   1.135  0.4880  2.5194  0.6671
   80MOL   H34328941   1.344   7.263   1.004  0.2385 -1.2490  1.9184
   80MOL   C34428942   1.434   7.720   0.678  0.6205 -0.4250 -0.4114
   80MOL   C34528943   1.322   0.094   0.656 -0.6095 -0.3661 -0.3037
   80MOL   C34628944   1.273   0.085   0.513 -0.5290 -0.1405 -0.3520
   80MOL   C34728945   1.180   0.203   0.481  0.0731 -0.4483  0.3345
   80MOL   C34828946   1.255   0.323   0.437 -0.0284 -0.6675  0.2483
   80MOL   C34928947   1.179   0.439   0.372 -0.1581  0.3741 -0.6381
   80MOL   H35028948   1.519   0.009   0.612  1.0513 -1.0453 -0.0153
   80MOL   H35128949   1.395   7.626   0.639  1.1900 -0.7861 -0.1315
   80MOL   H35228950   1.339   0.195   0.693 -1.1890  0.2714 -1.7231
   80MOL   H35328951   1.359   0.092   0.447 -0.9726 -0.1463 -0.9365
   80MOL   H35428952   1.225   7.715   0.502 -1.3963  0.5033 -2.5737
   80MOL   H35528953   1.102   0.173   0.411 -0.8327 -1.6504  1.8321
   80MOL   H35628954   1.128   0.225   0.575 -0.4970 -0.9372  0.1302
   80MOL   H35728955   1.301   0.362   0.528  0.6724 -1.0164  0.0433
   80MOL   H35828956   1.337   0.297   0.370 -0.5767 -1.1002 -0.2650
   80MOL   H35928957   1.073   0.415   0.378 -0.4836  1.5653 -1.5463
   80MOL   H36028958   1.183   0.536   0.423 -0.8478  0.2074 -0.2608
   80MOL   H36128959   1.198   0.454   0.266 -0.2322 -1.6364 -0.9549
   80MOL   H36228960   1.239   0.057   0.716 -0.5850  2.3319  1.4643
   81MOL     C128961   3.130   5.138   4.817  0.6040  0.2064 -0.1642
   81MOL     C228962   3.275   5.158   4.855  0.3775 -0.0657 -0.0051
   81MOL     C328963   3.302   5.296   4.918  0.4154 -0.7903  0.0432
   81MOL     C428964   3.245   5.338   5.059  0.5131  0.4328  0.0336
   81MOL     C528965   3.306   5.466   5.111  0.1459 -0.2261  0.4242
   81MOL     C628966   3.242   5.508   5.236  0.2879 -0.3745  0.3639
   81MOL     H728967   3.103   5.033   4.809 -2.5470  0.9367  0.1663
   81MOL     H828968   3.069   5.174   4.900  1.1062  0.5066  0.0806
   81MOL     H928969   3.293   5.092   4.940 -1.7318 -2.8397 -1.6378
   81MOL    H1028970   3.281   5.368   4.840  0.7512 -0.6473  0.0819
   81MOL    H1128971   3.409   5.299   4.939  1.0852 -1.1878 -3.0737
   81MOL    H1228972   3.249   5.250   5.124 -1.6284  1.0856  1.0902
   81MOL    H1328973   3.138   5.355   5.054  0.2301 -0.3220  2.8530
   81MOL    H1428974   3.413   5.459   5.128  0.2704 -1.4318 -0.7931
   81MOL    H1528975   3.283   5.546   5.040 -2.8674 -2.1722 -0.8763
   81MOL    H1628976   3.133   5.512   5.230  0.3560  1.9846  0.0134
   81MOL    H1728977   3.282   5.601   5.276 -1.1913  0.8649 -0.9607
   81MOL    H1828978   3.275   5.434   5.309  2.2423  2.2301  2.2201
   81MOL    H1928979   3.104   5.187   4.723  2.1285 -0.3725 -0.9000
   81MOL    C2028980   3.372   5.119   4.743 -0.4320 -0.1976  0.1197
   81MOL    C2128981   3.494   5.028   4.786  0.1520  0.4864 -0.1720
   81MOL    C2228982   3.454   4.888   4.828 -0.0897 -0.1863 -0.4543
   81MOL    C2328983   3.404   4.796   4.719  0.0976  0.3277  0.1362
   81MOL    C2428984   3.369   4.654   4.770 -0.6384 -0.4576  0.3605
   81MOL    C2528985   3.282   4.649   4.904 -0.0308  0.2898  0.5094
   81MOL    H2628986   3.405   5.212   4.698  1.3054 -0.3994  0.9298
   81MOL    H2728987   3.316   5.067   4.664 -3.7958 -0.0361  2.2976
   81MOL    H2828988   3.533   5.080   4.874  1.1979 -0.3948 -0.1067
   81MOL    H2928989   3.372   4.905   4.898  1.3349 -0.5201  1.3385
   81MOL    H3028990   3.539   4.856   4.889  0.1360 -2.0773 -1.6921
   81MOL    H3128991   3.473   4.785   4.635  0.2383  1.5368  0.0823
   81MOL    H3228992   3.322   4.845   4.667  0.6255  1.1758  0.0893
   81MOL    H3328993   3.336   4.581   4.698  1.0513 -2.0794  1.1834
   81MOL    H3428994   3.464   4.608   4.798  0.1139  0.2116 -1.0193
   81MOL    H3528995   3.191   4.705   4.882 -0.9640 -0.7519  1.6572
   81MOL    H3628996   3.262   4.546   4.933  2.2449 -0.8894 -1.8611
   81MOL    H3728997   3.312   4.703   4.993  0.6950  0.1533  0.3532
   81MOL    C3828998   3.599   5.039   4.676  0.1015  0.1537 -0.4187
   81MOL    C3928999   3.724   5.116   4.718  0.4151  0.8413  0.0419
   81MOL    C4029000   3.839   5.082   4.613  0.3195 -1.3204  0.0825
   81MOL    C4129001   3.912   4.943   4.630  0.6506 -0.2040  0.6044
   81MOL    C4229002   4.020   4.924   4.533  0.5224  0.2983  0.1046
   81MOL    C4329003   3.974   4.865   4.395  0.7104 -0.2003  0.0746
   81MOL    H4429004   3.560   5.087   4.586 -0.4133  3.5000  1.4855
   81MOL    H4529005   3.623   4.936   4.649 -0.5542 -0.5720  1.6288
   81MOL    H4629006   3.764   5.079   4.812  1.6538  0.4366 -0.6303
   81MOL    H4729007   3.815   5.083   4.507  0.0335 -1.8824  0.1444
   81MOL    H4829008   3.919   5.156   4.624 -0.0656 -0.8200 -0.4566
   81MOL    H4929009   3.945   4.939   4.734  1.6213  1.5857  0.3667
   81MOL    H5029010   3.847   4.855   4.635  1.8613 -1.4771 -3.7405
   81MOL    H5129011   4.067   5.022   4.523 -0.8148  0.9666  0.2800
   81MOL    H5229012   4.103   4.863   4.570  1.7249  0.6228 -1.9824
   81MOL    H5329013   4.047   4.816   4.331  0.5722 -0.1669 -0.1127
   81MOL    H5429014   3.939   4.948   4.334 -0.9652 -2.8661 -2.7402
   81MOL    H5529015   3.889   4.797   4.404  0.5095  0.0788  0.3081
   81MOL    C5629016   3.713   5.271   4.734  0.5602  0.5705 -0.2534
   81MOL    C5729017   3.819   5.358   4.802 -0.2858 -0.3951  0.2856
   81MOL    C5829018   3.823   5.350   4.965  0.2200 -0.4213 -0.9976
   81MOL    C5929019   3.916   5.247   5.018  0.1318  0.5734  0.5649
   81MOL    C6029020   4.066   5.268   4.985 -0.4203  0.1493  0.1502
   81MOL    C6129021   4.129   5.145   4.909 -0.1446 -0.0776  0.6212
   81MOL    H6229022   3.701   5.298   4.630 -1.6780  2.1794  0.3915
   81MOL    H6329023   3.612   5.289   4.772  0.4221 -1.9128  0.6881
   81MOL    H6429024   3.912   5.304   4.783 -0.4124 -0.3329 -0.5036
   81MOL    H6529025   3.850   5.446   5.008 -1.5963 -1.1963  2.0460
   81MOL    H6629026   3.732   5.309   5.008  0.1609  0.9797  0.2555
   81MOL    H6729027   3.891   5.147   4.986  0.5538  0.3318  0.9758
   81MOL    H6829028   3.901   5.234   5.126 -1.1421 -1.0071  0.2076
   81MOL    H6929029   4.084   5.349   4.914 -1.6464 -0.4906 -0.9325
   81MOL    H7029030   4.131   5.274   5.072  1.1858 -0.3712 -0.9757
   81MOL    H7129031   4.097   5.136   4.805  1.5936 -1.6616  0.2007
   81MOL    H7229032   4.237   5.137   4.919 -0.2183  0.4756  2.0565
   81MOL    H7329033   4.105   5.050   4.956 -1.2969 -0.6981 -1.1770
   81MOL    C7429034   3.821   5.505   4.761 -0.3973  0.1517 -0.3899
   81MOL    C7529035   3.845   5.527   4.611 -0.3570  0.5447  0.3385
   81MOL    C7629036   3.842   5.680   4.580  0.0111 -0.1832 -0.5115
   81MOL    C7729037   3.706   5.742   4.621 -0.7090  0.4224  0.3003
   81MOL    C7829038   3.588   5.679   4.537 -0.4097 -0.9874  0.6163
   81MOL    C7929039   3.460   5.760   4.559  0.3823 -0.4442  0.3486
   81MOL    H8029040   3.721   5.538   4.792  0.6223  1.2338  1.9116
   81MOL    H8129041   3.884   5.563   4.828  0.5863 -1.1643 -0.1540
   81MOL    H8229042   3.762   5.483   4.555 -1.4605  3.2394 -0.2115
   81MOL    H8329043   3.913   5.752   4.620 -0.2169 -0.3912  0.2789
   81MOL    H8429044   3.851   5.700   4.474  1.0709  3.2191  0.1616
   81MOL    H8529045   3.686   5.737   4.727  1.3611  3.0760  0.8911
   81MOL    H8629046   3.706   5.844   4.583 -0.9855 -0.1829 -1.3697
   81MOL    H8729047   3.564   5.585   4.587  1.2436 -1.4753  0.5105
   81MOL    H8829048   3.609   5.678   4.431 -1.7264 -1.2455  0.3467
   81MOL    H8929049   3.471   5.867   4.540  0.8233 -0.4842  0.3819
   81MOL    H9029050   3.384   5.725   4.489  0.8439 -0.7294 -0.0095
   81MOL    H9129051   3.425   5.753   4.662  0.7556  1.2312  0.6067
   81MOL    C9229052   3.979   5.470   4.558 -0.5886 -0.5378 -0.6252
   81MOL    C9329053   4.008   5.475   4.411  0.2146  0.0997 -0.0638
   81MOL    C9429054   4.148   5.419   4.400 -0.4683  0.3467 -0.3171
   81MOL    C9529055   4.269   5.499   4.433 -0.6043  0.0726  0.0083
   81MOL    C9629056   4.395   5.413   4.379  0.3719  0.2368  0.1262
   81MOL    C9729057   4.521   5.489   4.415  0.3483  0.1894  0.2056
   81MOL    H9829058   4.061   5.524   4.605  0.2868 -3.1501  1.0028
   81MOL    H9929059   3.994   5.365   4.584 -0.6403 -0.8058 -1.6546
   81MOL   H10029060   4.015   5.580   4.381 -3.0686  0.5510  0.6311
   81MOL   H10129061   4.166   5.396   4.295 -0.2929  0.3342 -0.2834
   81MOL   H10229062   4.159   5.323   4.451 -0.1799  0.9537  0.7787
   81MOL   H10329063   4.255   5.592   4.378  0.8728  1.3261  1.6752
   81MOL   H10429064   4.282   5.532   4.536  2.0196  1.1372 -0.5982
   81MOL   H10529065   4.408   5.330   4.449 -2.0435 -0.7397 -0.5407
   81MOL   H10629066   4.394   5.389   4.273  0.7684  1.6015 -0.1897
   81MOL   H10729067   4.532   5.492   4.524 -3.1152  1.1706  0.5880
   81MOL   H10829068   4.610   5.452   4.365  1.4839 -0.4820  2.6391
   81MOL   H10929069   4.522   5.596   4.394  1.9940  0.3247  0.9024
   81MOL   C11029070   3.902   5.391   4.328 -0.4683  0.5185  0.1157
   81MOL   C11129071   3.802   5.474   4.246 -0.7280  0.3066 -0.1317
   81MOL   C11229072   3.696   5.371   4.188 -0.1230  0.3482 -0.9649
   81MOL   C11329073   3.591   5.316   4.294  0.7934  0.1776  0.2221
   81MOL   C11429074   3.503   5.205   4.231 -0.4106  0.2914  0.2479
   81MOL   C11529075   3.592   5.076   4.201  0.8115 -0.0526  0.3715
   81MOL   H11629076   3.964   5.320   4.274 -0.6061  0.7890 -0.4029
   81MOL   H11729077   3.845   5.320   4.388 -0.5030 -0.8850 -1.5474
   81MOL   H11829078   3.761   5.538   4.324 -1.5891 -0.4473  0.0449
   81MOL   H11929079   3.740   5.280   4.150  0.3672 -0.8744  2.3544
   81MOL   H12029080   3.639   5.418   4.108 -1.6992  1.0589  0.5420
   81MOL   H12129081   3.535   5.404   4.326  2.0415  0.0168  2.9407
   81MOL   H12229082   3.645   5.273   4.378  2.4126 -0.4167 -1.0933
   81MOL   H12329083   3.444   5.246   4.149 -1.2652 -2.2413 -0.4730
   81MOL   H12429084   3.424   5.181   4.301  0.7602  0.9758  1.8348
   81MOL   H12529085   3.680   5.070   4.265  2.1505 -2.2324 -1.5926
   81MOL   H12629086   3.545   4.978   4.207  0.9456 -0.1975 -0.8914
   81MOL   H12729087   3.633   5.088   4.102  1.2896 -0.0538  0.5704
   81MOL   C12829088   3.863   5.564   4.139 -0.5818 -0.6719 -0.0129
   81MOL   C12929089   3.785   5.673   4.071  0.0139 -0.3570  0.7104
   81MOL   C13029090   3.853   5.733   3.947  0.0253 -0.8676  0.6143
   81MOL   C13129091   3.970   5.827   3.970 -0.1964 -0.9512 -0.3067
   81MOL   C13229092   4.012   5.910   3.843  0.0639  0.8946 -0.5055
   81MOL   C13329093   4.124   6.008   3.864 -0.3754 -0.3874 -0.3017
   81MOL   H13429094   3.901   5.499   4.059  0.3833  1.9924 -1.7913
   81MOL   H13529095   3.952   5.612   4.179 -0.5266  0.4339 -1.4137
   81MOL   H13629096   3.701   5.617   4.031 -0.2868  0.6185 -0.0522
   81MOL   H13729097   3.883   5.653   3.880 -1.6338 -1.2586  0.3261
   81MOL   H13829098   3.777   5.786   3.889  1.2079  1.0884  0.7833
   81MOL   H13929099   4.060   5.770   3.994  0.8684 -0.2169 -2.4218
   81MOL   H14029100   3.946   5.892   4.054  2.5038 -1.7205  1.1226
   81MOL   H14129101   4.033   5.832   3.769 -0.4105  1.7490 -1.5571
   81MOL   H14229102   3.931   5.953   3.785 -0.1962  0.2873 -0.6044
   81MOL   H14329103   4.210   5.957   3.907 -0.7822 -1.3424 -0.5974
   81MOL   H14429104   4.102   6.098   3.921  1.1570 -1.4735  2.1197
   81MOL   H14529105   4.161   6.041   3.767 -1.2482 -1.4725 -1.0135
   81MOL   C14629106   3.732   5.781   4.176  0.2827 -0.5713  0.5953
   81MOL   C14729107   3.630   5.883   4.118 -0.1763 -0.2028  0.5546
   81MOL   C14829108   3.602   5.987   4.235  0.2624 -0.4241  0.4452
   81MOL   C14929109   3.563   6.127   4.193 -0.2625 -0.1821  0.7464
   81MOL   C15029110   3.538   6.227   4.307  0.1171 -0.7029 -0.4823
   81MOL   C15129111   3.492   6.362   4.264 -0.1915  0.2330 -0.2963
   81MOL   H15229112   3.679   5.735   4.260  1.4052 -0.6865  1.2630
   81MOL   H15329113   3.812   5.835   4.228 -0.3736  0.3600  0.6493
   81MOL   H15429114   3.678   5.944   4.041 -4.9845  1.0728 -1.5742
   81MOL   H15529115   3.691   6.012   4.292  0.4145 -0.1333  0.0827
   81MOL   H15629116   3.526   5.948   4.304 -0.3301  1.0026  0.6137
   81MOL   H15729117   3.644   6.153   4.125 -1.2559 -1.0017 -0.7751
   81MOL   H15829118   3.479   6.115   4.125  1.4019 -1.3514 -1.1520
   81MOL   H15929119   3.625   6.235   4.372  0.8751 -0.7669 -1.4684
   81MOL   H16029120   3.465   6.187   4.377 -0.5743  0.0794 -0.7418
   81MOL   H16129121   3.553   6.419   4.194  1.5764  1.1535  1.9218
   81MOL   H16229122   3.407   6.348   4.197 -0.9026  2.1880  0.1467
   81MOL   H16329123   3.461   6.425   4.348  0.9293  2.0474 -1.1950
   81MOL   C16429124   3.490   5.828   4.062  0.1138  0.3483 -0.1734
   81MOL   C16529125   3.470   5.810   3.909 -0.5819 -0.3729  0.2134
   81MOL   C16629126   3.380   5.686   3.863 -0.2582  0.0422 -0.4799
   81MOL   C16729127   3.447   5.546   3.888 -0.1442  0.3917  0.4194
   81MOL   C16829128   3.365   5.428   3.826 -0.8909 -0.2828  0.5766
   81MOL   C16929129   3.381   5.436   3.676  0.4849 -0.2279  0.1372
   81MOL   H17029130   3.458   5.739   4.115  0.3306 -1.3398 -2.7467
   81MOL   H17129131   3.407   5.893   4.090 -1.4615  0.2177 -4.1973
   81MOL   H17229132   3.571   5.794   3.871 -0.4050  0.7038  0.2157
   81MOL   H17329133   3.365   5.689   3.755 -2.1908  2.0890 -0.1859
   81MOL   H17429134   3.276   5.696   3.894  0.1169 -1.4313  1.3759
   81MOL   H17529135   3.452   5.524   3.994  2.8025 -1.0755  0.0423
   81MOL   H17629136   3.547   5.542   3.844 -1.2053 -1.3733 -2.0189
   81MOL   H17729137   3.258   5.425   3.847 -1.0891  0.9632 -0.2230
   81MOL   H17829138   3.410   5.334   3.860  1.3462 -0.1433 -1.8887
   81MOL   H17929139   3.312   5.502   3.623  1.4924  1.5213  0.9422
   81MOL   H18029140   3.376   5.336   3.633  1.3712 -0.1286 -0.2057
   81MOL   H18129141   3.483   5.464   3.648  0.1357 -0.8475 -1.8527
   81MOL   C18229142   3.405   5.936   3.842  0.6541 -0.7104 -0.3569
   81MOL   C18329143   3.442   5.948   3.695  0.1903  0.3791  0.3540
   81MOL   C18429144   3.581   6.006   3.677  0.0229 -0.2172  0.4397
   81MOL   C18529145   3.637   6.027   3.536  0.6537 -0.3421  0.6723
   81MOL   C18629146   3.790   6.031   3.512 -0.6496  0.0347 -0.7236
   81MOL   C18729147   3.844   6.147   3.420 -0.4201  0.1371  0.3074
   81MOL   H18829148   3.298   5.936   3.862  0.0938  1.0836 -3.1115
   81MOL   H18929149   3.441   6.018   3.905 -3.2025 -0.9486  2.3460
   81MOL   H19029150   3.443   5.851   3.646 -4.0980  0.5885 -0.2799
   81MOL   H19129151   3.592   6.093   3.742  1.0139  0.9114 -1.1902
   81MOL   H19229152   3.653   5.946   3.732 -0.6537 -0.5123  1.0154
   81MOL   H19329153   3.593   6.117   3.492  0.6865 -0.2658  0.7945
   81MOL   H19429154   3.604   5.943   3.475  0.9903  1.3513 -1.8989
   81MOL   H19529155   3.825   5.932   3.481 -0.2069 -0.2039  0.5113
   81MOL   H19629156   3.840   6.042   3.608 -2.3803  0.6568  0.1282
   81MOL   H19729157   3.786   6.143   3.327  0.8201  0.8403 -0.5093
   81MOL   H19829158   3.948   6.118   3.408 -1.3057 -3.6360  1.2120
   81MOL   H19929159   3.829   6.252   3.447  1.7268  0.1955  1.3670
   81MOL   C20029160   3.336   6.019   3.614 -0.1560 -0.0496  0.1412
   81MOL   C20129161   3.186   5.978   3.610  0.5334 -0.7370 -0.6668
   81MOL   C20229162   3.144   5.830   3.601  0.7011 -0.3815 -0.4871
   81MOL   C20329163   3.203   5.750   3.485 -0.0445  0.3690  0.1119
   81MOL   C20429164   3.121   5.622   3.465  0.4309 -0.0404  0.5719
   81MOL   C20529165   3.185   5.528   3.358  0.0424  0.2718 -0.3279
   81MOL   H20629166   3.368   6.020   3.510 -1.0899  1.0141 -0.1454
   81MOL   H20729167   3.339   6.122   3.649  0.0697  0.9507 -2.7607
   81MOL   H20829168   3.160   6.029   3.517 -0.0335 -0.7561 -0.5206
   81MOL   H20929169   3.036   5.823   3.586  0.5896  1.3303 -0.5813
   81MOL   H21029170   3.164   5.774   3.692  1.6479 -0.7278 -0.8978
   81MOL   H21129171   3.309   5.732   3.502 -0.5982 -1.7446  1.4702
   81MOL   H21229172   3.210   5.812   3.396  0.8345 -0.4879 -0.4190
   81MOL   H21329173   3.018   5.644   3.436  0.7402 -0.2283 -0.6718
   81MOL   H21429174   3.110   5.574   3.563 -2.0727  1.0955  0.8988
   81MOL   H21529175   3.120   5.440   3.354 -0.4811  0.5611  1.3719
   81MOL   H21629176   3.180   5.569   3.257 -0.3726  2.7846  0.6819
   81MOL   H21729177   3.282   5.495   3.394 -0.8324 -0.2452  1.6224
   81MOL   C21829178   3.106   6.057   3.721 -0.0160  0.1556 -0.2400
   81MOL   C21929179   2.969   6.109   3.674 -0.3515 -0.5127 -0.2409
   81MOL   C22029180   2.992   6.246   3.598 -0.1457  0.5628 -0.6648
   81MOL   C22129181   2.869   6.295   3.517  0.5723 -0.5689  0.2241
   81MOL   C22229182   2.834   6.215   3.388  0.1496  0.0378  0.5560
   81MOL   C22329183   2.702   6.262   3.320  0.2489  0.1162 -0.5341
   81MOL   H22429184   3.105   5.978   3.796  1.1314  0.1600 -0.2160
   81MOL   H22529185   3.158   6.139   3.772  0.1827  0.0703 -0.3045
   81MOL   H22629186   2.934   6.041   3.596 -0.3592  0.1763 -0.8542
   81MOL   H22729187   3.074   6.237   3.527  2.1586  1.7658  1.7270
   81MOL   H22829188   3.049   6.305   3.670  0.8880 -0.0610 -0.9601
   81MOL   H22929189   2.874   6.401   3.491 -3.1001 -0.0977  1.2294
   81MOL   H23029190   2.780   6.293   3.580  0.3344 -3.7078 -0.1497
   81MOL   H23129191   2.922   6.211   3.324  0.0368  1.7030  0.2692
   81MOL   H23229192   2.826   6.115   3.430  0.1330  0.7525  2.3040
   81MOL   H23329193   2.706   6.367   3.293  1.7425  0.4299  0.8255
   81MOL   H23429194   2.625   6.236   3.393  0.2862  0.5575 -0.3378
   81MOL   H23529195   2.686   6.204   3.229 -1.0158  1.1397 -0.9864
   81MOL   C23629196   2.869   6.113   3.789  0.3083 -0.0721  0.2768
   81MOL   C23729197   2.791   5.978   3.817  0.1116  0.3093 -0.2234
   81MOL   C23829198   2.659   5.975   3.735  0.1902 -0.3396  0.2166
   81MOL   C23929199   2.582   5.845   3.742 -0.5334  0.2560 -1.1149
   81MOL   C24029200   2.648   5.720   3.668 -0.5213 -0.1792 -0.4402
   81MOL   C24129201   2.565   5.594   3.683 -0.1167 -0.0042 -0.8562
   81MOL   H24229202   2.924   6.146   3.878 -1.6902  5.1273 -0.2610
   81MOL   H24329203   2.800   6.192   3.761  0.7103 -0.3165 -1.4585
   81MOL   H24429204   2.859   5.899   3.787 -1.2401 -0.4681 -1.2785
   81MOL   H24529205   2.583   6.051   3.752 -1.5225 -1.9092 -0.3614
   81MOL   H24629206   2.690   5.976   3.630  2.9587  1.6957  0.9970
   81MOL   H24729207   2.486   5.861   3.692 -0.9019  0.2518 -0.4135
   81MOL   H24829208   2.567   5.834   3.849  2.0836  2.5002 -0.4794
   81MOL   H24929209   2.651   5.741   3.561 -3.3211  0.3658 -0.4436
   81MOL   H25029210   2.748   5.694   3.702 -0.7626 -0.7287 -0.1335
   81MOL   H25129211   2.606   5.521   3.614  0.2896  1.1865 -1.9129
   81MOL   H25229212   2.577   5.543   3.778  0.5842 -2.8441 -2.4127
   81MOL   H25329213   2.460   5.613   3.659  0.1234  2.1379 -0.3374
   81MOL   C25429214   2.761   5.960   3.973  0.0985  0.5354  0.0766
   81MOL   C25529215   2.784   5.816   4.024 -0.1466 -0.6271  0.6672
   81MOL   C25629216   2.705   5.785   4.151 -0.1058 -0.1757  0.3759
   81MOL   C25729217   2.753   5.851   4.280  0.4862 -0.6138  0.7239
   81MOL   C25829218   2.643   5.836   4.392  0.2083  0.7273 -0.2616
   81MOL   C25929219   2.702   5.897   4.511  0.1494 -0.1377  0.5241
   81MOL   H26029220   2.658   5.993   3.988 -0.6045 -0.7701 -1.6321
   81MOL   H26129221   2.825   6.028   4.027 -0.0513 -1.0609  2.3439
   81MOL   H26229222   2.736   5.750   3.952 -1.1129  0.2158  0.5165
   81MOL   H26329223   2.600   5.811   4.137  0.3786  1.1467 -0.9200
   81MOL   H26429224   2.698   5.676   4.151  0.9557 -0.2597 -0.5169
   81MOL   H26529225   2.836   5.787   4.312 -1.1777 -3.2663 -0.0912
   81MOL   H26629226   2.779   5.954   4.254 -2.6834 -0.9307 -4.2744
   81MOL   H26729227   2.620   5.731   4.412 -0.3136  0.7062 -0.9500
   81MOL   H26829228   2.552   5.890   4.366 -0.5213 -0.9152 -1.1855
   81MOL   H26929229   2.634   5.878   4.594 -0.4334  1.9278  0.5459
   81MOL   H27029230   2.713   6.005   4.510 -0.7474 -0.0495 -0.0954
   81MOL   H27129231   2.799   5.848   4.523  0.7912  1.1088  0.4727
   81MOL   C27229232   2.933   5.771   4.032  0.2887 -0.3743 -0.0466
   81MOL   C27329233   2.961   5.618   4.038  0.2039 -0.4098 -0.1070
   81MOL   C27429234   3.097   5.595   4.112  0.2470  0.0671 -0.1999
   81MOL   C27529235   3.084   5.560   4.266 -0.0619 -0.3960 -0.5041
   81MOL   C27629236   3.224   5.527   4.330 -0.2241 -0.1378 -0.2461
   81MOL   C27729237   3.210   5.473   4.465  0.6633  0.0894  1.1151
   81MOL   H27829238   2.980   5.810   3.942 -0.7310  0.3358 -0.2695
   81MOL   H27929239   2.997   5.817   4.107  0.5782  1.3136 -1.3054
   81MOL   H28029240   2.876   5.576   4.093  0.0363  1.5038  1.1258
   81MOL   H28129241   3.161   5.684   4.108 -1.1740  1.0870 -0.4821
   81MOL   H28229242   3.150   5.512   4.066 -0.2872  0.9620 -2.4829
   81MOL   H28329243   3.010   5.482   4.282 -2.7443  2.2727  0.5772
   81MOL   H28429244   3.048   5.646   4.322  2.8398  1.7630 -1.7808
   81MOL   H28529245   3.278   5.452   4.273  1.5959  0.4440  0.6612
   81MOL   H28629246   3.276   5.622   4.340  1.6320 -1.2246  0.9228
   81MOL   H28729247   3.153   5.543   4.527 -0.0678  0.9611 -0.5017
   81MOL   H28829248   3.165   5.374   4.461 -0.8628  0.8159 -0.4591
   81MOL   H28929249   3.306   5.448   4.508  1.6826 -1.9704 -2.1844
   81MOL   C29029250   2.952   5.559   3.894 -0.5702  0.1272 -0.4301
   81MOL   C29129251   2.936   5.410   3.885 -0.3656 -0.1411 -0.0492
   81MOL   C29229252   2.790   5.360   3.929 -0.4178  0.0048  0.5271
   81MOL   C29329253   2.809   5.226   4.008 -0.4007  0.6815  0.4940
   81MOL   C29429254   2.854   5.240   4.150 -0.3147  0.4232 -0.1377
   81MOL   C29529255   2.902   5.105   4.217 -0.1190  0.3578 -0.0425
   81MOL   H29629256   3.036   5.608   3.845  2.0646 -2.6761  1.1691
   81MOL   H29729257   2.863   5.590   3.838  0.3321 -2.7132 -3.5786
   81MOL   H29829258   3.014   5.366   3.947 -1.5568  0.0884  1.6804
   81MOL   H29929259   2.728   5.340   3.842 -1.1500 -1.7677  1.4281
   81MOL   H30029260   2.739   5.443   3.979  0.9087  0.8663  0.4922
   81MOL   H30129261   2.710   5.180   4.013 -1.0325  2.1773  2.6297
   81MOL   H30229262   2.875   5.161   3.950 -0.4665 -0.7988  2.0438
   81MOL   H30329263   2.770   5.274   4.210  0.3526  1.8013  0.0608
   81MOL   H30429264   2.934   5.314   4.149 -1.6260  1.8711  0.1366
   81MOL   H30529265   2.913   5.118   4.325 -1.1450  1.0040 -0.0116
   81MOL   H30629266   3.004   5.080   4.188  0.3203 -2.0204  3.3406
   81MOL   H30729267   2.835   5.025   4.188 -1.5246  1.1965  0.8080
   81MOL   C30829268   2.973   5.367   3.741  0.6232  0.0863  0.2454
   81MOL   C30929269   3.001   5.217   3.703  0.4100 -0.4392  0.2588
   81MOL   C31029270   3.126   5.153   3.775 -0.5010  0.8829 -1.1444
   81MOL   C31129271   3.121   4.996   3.770 -0.6034 -0.4990 -0.0240
   81MOL   C31229272   3.254   4.933   3.793  0.8725 -0.5257  0.5816
   81MOL   C31329273   3.310   4.955   3.935  0.0169  0.2772 -0.0110
   81MOL   H31429274   2.904   5.413   3.670  0.5942 -1.2081 -0.5676
   81MOL   H31529275   3.066   5.415   3.709  0.8651  0.5004  1.5316
   81MOL   H31629276   2.920   5.159   3.747  1.7254 -2.7711 -0.3561
   81MOL   H31729277   3.122   5.176   3.882  1.7828  0.2138 -0.8809
   81MOL   H31829278   3.224   5.191   3.748  0.1140 -0.9897 -1.6177
   81MOL   H31929279   3.079   4.966   3.674  1.9273  0.5263 -1.4898
   81MOL   H32029280   3.056   4.964   3.853  2.2249 -2.8492  1.3640
   81MOL   H32129281   3.235   4.826   3.781  2.0231 -0.4913 -1.7955
   81MOL   H32229282   3.329   4.970   3.724 -1.1095  2.4866 -0.0146
   81MOL   H32329283   3.408   4.909   3.949  0.7965  0.9110 -3.0682
   81MOL   H32429284   3.238   4.922   4.010 -0.5588  1.3378 -0.0849
   81MOL   H32529285   3.322   5.063   3.940  2.4904  0.0654 -0.7036
   81MOL   C32629286   2.995   5.204   3.550  0.4684  0.3105  0.4716
   81MOL   C32729287   2.847   5.186   3.494 -0.2001 -0.3851 -0.1823
   81MOL   C32829288   2.810   5.252   3.363  0.3470  0.0604  0.3663
   81MOL   C32929289   2.804   5.406   3.356 -0.6597 -0.3006  0.2779
   81MOL   C33029290   2.759   5.459   3.224 -0.1706 -0.4449  0.3259
   81MOL   C33129291   2.613   5.492   3.213  0.4748 -0.2732  0.4508
   81MOL   H33229292   3.046   5.113   3.516 -2.1790 -0.6604 -1.0129
   81MOL   H33329293   3.048   5.284   3.498  3.0555 -0.3887  1.9032
   81MOL   H33429294   2.785   5.232   3.571 -0.4616  0.1558 -0.7094
   81MOL   H33529295   2.881   5.206   3.293 -0.6261 -1.3151  0.2693
   81MOL   H33629296   2.710   5.221   3.334 -0.0957  2.4032 -0.6881
   81MOL   H33729297   2.902   5.443   3.385  0.1910 -1.5468 -0.9406
   81MOL   H33829298   2.738   5.434   3.438  0.2424 -1.6157  1.4773
   81MOL   H33929299   2.812   5.552   3.205  0.5520 -0.4617  2.1382
   81MOL   H34029300   2.782   5.394   3.140 -0.5996 -0.2738  0.0741
   81MOL   H34129301   2.595   5.549   3.304 -0.2972 -0.0232  0.1464
   81MOL   H34229302   2.556   5.399   3.215 -1.8869  1.1612  1.8030
   81MOL   H34329303   2.578   5.555   3.132  0.1879 -0.4363  0.4482
   81MOL   C34429304   2.812   5.037   3.499  0.0123 -0.1877  0.1327
   81MOL   C34529305   2.668   4.994   3.465  0.0400 -0.0110  0.2271
   81MOL   C34629306   2.649   4.846   3.439 -0.2496 -0.6682 -0.8553
   81MOL   C34729307   2.498   4.807   3.432 -0.2440 -0.9256 -0.0266
   81MOL   C34829308   2.474   4.665   3.399 -0.6558 -0.2650 -0.1180
   81MOL   C34929309   2.324   4.627   3.414 -0.6919 -0.6562  0.5755
   81MOL   H35029310   2.869   4.984   3.422 -1.0663 -0.2962 -0.6144
   81MOL   H35129311   2.828   4.983   3.592  0.3535 -1.6838 -0.7597
   81MOL   H35229312   2.632   5.038   3.372  3.3253 -0.1579 -1.1721
   81MOL   H35329313   2.688   4.826   3.339 -2.4401  0.4112 -1.9520
   81MOL   H35429314   2.703   4.787   3.513  1.1880 -0.0306 -1.3747
   81MOL   H35529315   2.431   4.848   3.508  0.0062 -0.1367 -0.2185
   81MOL   H35629316   2.458   4.869   3.352  1.4666  0.0558 -0.1525
   81MOL   H35729317   2.509   4.634   3.301  0.0920 -0.0488  0.0750
   81MOL   H35829318   2.528   4.601   3.469 -3.1770  0.5159  2.6249
   81MOL   H35929319   2.302   4.643   3.519 -1.3437 -1.5523  0.5788
   81MOL   H36029320   2.263   4.678   3.340  0.6517 -0.8353 -0.6928
   81MOL   H36129321   2.293   4.523   3.403  1.2943 -1.2895  0.7347
   81MOL   H36229322   2.595   5.022   3.541 -2.1435  0.5270 -1.9874
   82MOL     C129323   0.382   2.079   0.763 -0.1096 -0.2796  0.3553
   82MOL     C229324   0.270   2.128   0.673  0.0477 -0.5960 -0.0502
   82MOL     C329325   0.148   2.025   0.680 -0.0328 -0.3300 -0.3346
   82MOL     C429326   0.174   1.891   0.601  0.3859 -0.7903 -0.7511
   82MOL     C529327   0.110   1.778   0.679  0.1014  0.8838 -0.2817
   82MOL     C629328   7.693   1.754   0.640  0.3590 -0.2049  0.0310
   82MOL     H729329   0.431   2.164   0.811 -0.6515 -0.0626  0.5251
   82MOL     H829330   0.355   2.013   0.845 -2.1640 -0.6797 -0.6190
   82MOL     H929331   0.234   2.222   0.715  0.5353 -0.2525 -0.4011
   82MOL    H1029332   0.061   2.078   0.642 -0.1244  0.2156  0.6155
   82MOL    H1129333   0.124   2.005   0.784  0.3874  1.7088  0.1714
   82MOL    H1229334   0.281   1.876   0.589  0.4781  0.0795 -1.0361
   82MOL    H1329335   0.141   1.898   0.498  2.4161 -0.1518 -1.3722
   82MOL    H1429336   0.165   1.686   0.662 -0.2445  0.9382 -1.7778
   82MOL    H1529337   0.114   1.780   0.788 -2.8556 -2.3046 -0.0354
   82MOL    H1629338   7.622   1.832   0.670 -1.6973 -2.0727  0.1933
   82MOL    H1729339   7.646   1.661   0.674  0.2461 -0.1233  0.1013
   82MOL    H1829340   7.684   1.758   0.532  2.7898  0.8737 -0.1511
   82MOL    H1929341   0.461   2.028   0.708  1.5202  3.6573 -1.1464
   82MOL    C2029342   0.322   2.149   0.529 -0.0355 -0.2586  0.0824
   82MOL    C2129343   0.224   2.206   0.425  0.0664  0.5361  1.0866
   82MOL    C2229344   0.209   2.357   0.448  0.5301 -0.3380  0.5001
   82MOL    C2329345   0.090   2.431   0.387 -0.7958  0.6133  0.2903
   82MOL    C2429346   0.070   2.572   0.443  0.2328  0.3490 -0.0576
   82MOL    C2529347   7.678   2.638   0.370 -0.1715 -1.2300 -0.4645
   82MOL    H2629348   0.357   2.055   0.485 -0.0544 -0.3274  0.2126
   82MOL    H2729349   0.417   2.202   0.528  0.8635 -1.8171  0.5091
   82MOL    H2829350   0.119   2.180   0.440 -0.4790  0.4126 -2.5833
   82MOL    H2929351   0.296   2.419   0.430 -0.8154  1.2990 -0.4774
   82MOL    H3029352   0.193   2.373   0.555 -2.9390  0.4974 -0.0923
   82MOL    H3129353   7.722   2.382   0.408 -0.9016  1.6311  2.2966
   82MOL    H3229354   0.102   2.441   0.279 -1.5003  0.3644  0.1838
   82MOL    H3329355   0.054   2.580   0.551 -3.5999 -1.0858 -0.4566
   82MOL    H3429356   0.161   2.628   0.419  0.3056  0.8440  1.3190
   82MOL    H3529357   7.655   2.727   0.430  1.4636 -1.9001  1.2006
   82MOL    H3629358   7.699   2.660   0.265  1.2468 -0.0749  0.0428
   82MOL    H3729359   7.592   2.572   0.359 -1.2614  0.1105 -0.2421
   82MOL    C3829360   0.265   2.187   0.278  0.7732  0.3368  0.1882
   82MOL    C3929361   0.262   2.036   0.212 -1.0915 -0.2271 -0.2197
   82MOL    C4029362   0.116   1.979   0.217  0.0236 -0.0674 -0.0156
   82MOL    C4129363   0.102   1.830   0.225  0.6442 -0.0516 -0.6706
   82MOL    C4229364   7.695   1.759   0.238  0.1425 -0.1136  0.6486
   82MOL    C4329365   7.711   1.606   0.275  0.0461  0.1981 -0.1383
   82MOL    H4429366   0.366   2.228   0.274  1.0700 -0.2536  1.4253
   82MOL    H4529367   0.223   2.250   0.200  0.8366 -1.0620 -1.0020
   82MOL    H4629368   0.322   1.973   0.277 -1.4537 -0.2749  0.0686
   82MOL    H4729369   0.060   2.025   0.299  0.9374  1.0735 -0.0150
   82MOL    H4829370   0.062   2.010   0.128 -1.5101  0.4628  1.0602
   82MOL    H4929371   0.145   1.773   0.142 -1.1856 -1.0350 -0.9565
   82MOL    H5029372   0.159   1.805   0.315 -0.7936  0.8171  0.4953
   82MOL    H5129373   7.642   1.805   0.321  0.6728  0.6846  0.5520
   82MOL    H5229374   7.635   1.766   0.146  0.3512 -0.9306  0.4485
   82MOL    H5329375   0.024   1.539   0.198 -0.3109 -0.4536  0.2376
   82MOL    H5429376   7.613   1.562   0.294 -0.2811  0.9628 -0.0558
   82MOL    H5529377   0.037   1.581   0.366  0.1911 -0.2432 -0.3433
   82MOL    C5629378   0.313   2.045   0.066  0.1443  0.8309 -0.4700
   82MOL    C5729379   0.465   2.058   0.046 -0.7866  0.5708 -0.4051
   82MOL    C5829380   0.515   2.083   7.625 -0.4234  0.3417 -0.2290
   82MOL    C5929381   0.475   2.222   7.576  0.0916 -0.6514 -0.3788
   82MOL    C6029382   0.543   2.262   7.441  0.1295  0.7028 -0.1746
   82MOL    C6129383   0.503   2.401   7.393 -0.4928  0.2192 -0.0647
   82MOL    H6229384   0.281   1.956   0.012 -0.0536 -0.1650  1.2281
   82MOL    H6329385   0.261   2.125   0.014 -2.5942  0.5351  1.6984
   82MOL    H6429386   0.509   2.143   0.099 -0.4872 -0.0724  0.3801
   82MOL    H6529387   0.623   2.072   7.621 -0.5576 -1.1983  0.0036
   82MOL    H6629388   0.477   2.002   7.563 -1.3140  0.9730 -0.5353
   82MOL    H6729389   0.509   2.297   7.648 -2.3206 -0.0308  0.2001
   82MOL    H6829390   0.366   2.223   7.568  0.2184 -0.2835 -2.1718
   82MOL    H6929391   0.651   2.253   7.456 -0.0845 -1.2503  0.3438
   82MOL    H7029392   0.504   2.189   7.371  0.8578  2.5113 -2.5316
   82MOL    H7129393   0.554   2.425   7.300 -0.7015 -1.9892 -0.7863
   82MOL    H7229394   0.399   2.403   7.362 -0.1695  1.0398 -1.1232
   82MOL    H7329395   0.522   2.464   7.480  1.7047  1.7005 -1.5651
   82MOL    C7429396   0.538   1.928   0.092  0.1522  0.2423 -0.4328
   82MOL    C7529397   0.632   1.950   0.205 -0.2931  0.1211  0.5837
   82MOL    C7629398   0.668   1.819   0.267  0.4200 -0.3391  0.3159
   82MOL    C7729399   0.551   1.736   0.315  0.0290  0.6040  0.0611
   82MOL    C7829400   0.587   1.651   0.439 -0.2349  0.2187  0.2271
   82MOL    C7929401   0.468   1.583   0.504  0.2242 -0.7454  0.9234
   82MOL    H8029402   0.459   1.863   0.128  1.7760 -0.2589  2.3416
   82MOL    H8129403   0.587   1.880   0.008 -0.9764 -0.2623 -0.8134
   82MOL    H8229404   0.559   2.000   0.269 -1.4203 -1.0724  0.2602
   82MOL    H8329405   0.729   1.769   0.191  2.3681  0.9900  0.9595
   82MOL    H8429406   0.741   1.831   0.347 -0.6330  0.7775  1.1351
   82MOL    H8529407   0.478   1.806   0.356 -0.1852  0.1590  0.4503
   82MOL    H8629408   0.513   1.673   0.234 -0.7679  1.9028 -0.5867
   82MOL    H8729409   0.631   1.705   0.523  1.3920  0.7889 -0.9721
   82MOL    H8829410   0.651   1.571   0.403 -0.6503 -0.5761  1.2208
   82MOL    H8929411   0.496   1.501   0.571  0.6509  0.1426  1.8544
   82MOL    H9029412   0.411   1.653   0.565  1.1161  0.4021  0.4615
   82MOL    H9129413   0.403   1.533   0.432 -1.5437  1.4779  0.9226
   82MOL    C9229414   0.764   2.034   0.169  0.5823  0.2785  0.2010
   82MOL    C9329415   0.846   2.081   0.285  0.0027 -0.0276  0.2914
   82MOL    C9429416   0.994   2.099   0.258  0.2548  0.8950 -0.3836
   82MOL    C9529417   1.031   2.230   0.188 -0.4964  0.3832  0.5797
   82MOL    C9629418   1.186   2.250   0.165 -0.4506  0.0094 -0.1821
   82MOL    C9729419   1.233   2.379   0.097 -0.0176  0.0510  0.4440
   82MOL    H9829420   0.816   1.958   0.112 -2.8089 -2.0599  0.0431
   82MOL    H9929421   0.736   2.119   0.107 -0.8708 -0.1695  0.2198
   82MOL   H10029422   0.842   1.999   0.357  1.1444  0.4836  0.9409
   82MOL   H10129423   1.021   2.013   0.197 -2.2272 -0.0258 -0.2466
   82MOL   H10229424   1.052   2.081   0.348  0.5582  1.6460 -0.4249
   82MOL   H10329425   0.981   2.225   0.091  1.5274 -0.7560 -0.4333
   82MOL   H10429426   0.999   2.321   0.239 -3.4641  0.0742 -0.6160
   82MOL   H10529427   1.234   2.253   0.263 -0.5604  1.4198 -0.1563
   82MOL   H10629428   1.227   2.161   0.117 -0.5311 -0.2288  0.1868
   82MOL   H10729429   1.204   2.461   0.163  0.5081 -0.0539  0.8048
   82MOL   H10829430   1.340   2.380   0.081 -0.2017 -1.8202 -1.0073
   82MOL   H10929431   1.190   2.388   7.724 -1.6450  0.4714  1.1514
   82MOL   C11029432   0.778   2.202   0.360 -0.6731  0.1110 -0.1290
   82MOL   C11129433   0.848   2.228   0.496  0.4609 -0.1260  0.2767
   82MOL   C11229434   0.756   2.169   0.612 -0.2602 -0.1311  0.0099
   82MOL   C11329435   0.762   2.018   0.635 -0.0829 -0.3177  1.2041
   82MOL   C11429436   0.879   1.961   0.716  0.4667 -0.2465  0.0243
   82MOL   C11529437   0.876   1.813   0.734 -0.1688 -0.1430  0.4077
   82MOL   H11629438   0.782   2.291   0.298  1.2264 -0.9791 -1.6592
   82MOL   H11729439   0.670   2.196   0.368 -0.6430  0.7414  0.8606
   82MOL   H11829440   0.947   2.183   0.495  0.4710 -0.1147  0.7636
   82MOL   H11929441   0.655   2.210   0.603  0.2608  1.1717 -0.0290
   82MOL   H12029442   0.780   2.220   0.706  1.4494 -0.1519 -0.3978
   82MOL   H12129443   0.765   1.974   0.535  0.8777  0.6975  0.7757
   82MOL   H12229444   0.671   1.982   0.682 -0.2373 -1.8236 -0.1746
   82MOL   H12329445   0.881   2.011   0.814  0.3596 -1.2215  0.5272
   82MOL   H12429446   0.970   1.981   0.660  0.2854  0.9601  0.1389
   82MOL   H12529447   0.819   1.765   0.654 -0.3819 -0.2943  0.6481
   82MOL   H12629448   0.972   1.762   0.740 -0.2971 -0.7975 -2.2443
   82MOL   H12729449   0.816   1.792   0.823  2.4762 -0.1202  2.2660
   82MOL   C12829450   0.872   2.385   0.508 -0.1536 -0.4953 -0.0867
   82MOL   C12929451   0.763   2.485   0.548 -0.1078 -0.5609  0.0205
   82MOL   C13029452   0.642   2.483   0.448  0.2591 -0.4226 -0.3068
   82MOL   C13129453   0.675   2.552   0.311 -0.5617 -0.3697  0.6610
   82MOL   C13229454   0.569   2.537   0.198  0.3915  0.5920 -0.3660
   82MOL   C13329455   0.600   2.593   0.064  0.3476  0.0532 -0.1218
   82MOL   H13429456   0.920   2.426   0.420 -2.5045 -0.5860 -1.4493
   82MOL   H13529457   0.938   2.407   0.592 -0.1871 -1.6419  0.2503
   82MOL   H13629458   0.720   2.444   0.640  0.2376 -2.7419 -0.7636
   82MOL   H13729459   0.605   2.384   0.418  0.4393 -0.7265  0.4670
   82MOL   H13829460   0.557   2.538   0.488 -0.1049 -2.9037  2.5276
   82MOL   H13929461   0.774   2.536   0.269 -0.9755  1.9520 -1.3179
   82MOL   H14029462   0.679   2.659   0.330 -3.0812  0.1842 -1.6682
   82MOL   H14129463   0.545   2.433   0.174  1.6731 -0.0024  0.8732
   82MOL   H14229464   0.469   2.565   0.231 -1.0556 -3.2733 -1.1476
   82MOL   H14329465   0.690   2.544   0.026  0.2267 -3.1318  3.4426
   82MOL   H14429466   0.601   2.702   0.071  1.8534 -0.0507  1.4988
   82MOL   H14529467   0.526   2.559   7.719  2.2623 -0.8318 -1.7127
   82MOL   C14629468   0.822   2.625   0.576 -0.2952  0.2355 -0.2030
   82MOL   C14729469   0.722   2.741   0.616  0.7110 -0.4902  0.0857
   82MOL   C14829470   0.803   2.861   0.662 -0.1907  0.2595 -0.2162
   82MOL   C14929471   0.913   2.920   0.560 -0.8315  0.1767  0.0241
   82MOL   C15029472   0.847   2.970   0.422 -0.1544 -0.8027 -0.1936
   82MOL   C15129473   0.942   3.054   0.336 -0.0576 -0.4637 -0.7028
   82MOL   H15229474   0.903   2.623   0.648  0.7186  0.2434 -1.3333
   82MOL   H15329475   0.882   2.650   0.489  0.0074 -0.6919 -0.2707
   82MOL   H15429476   0.664   2.770   0.529  0.4679 -1.2982 -0.0291
   82MOL   H15529477   0.844   2.833   0.759 -1.1035 -0.0856  0.0719
   82MOL   H15629478   0.731   2.939   0.687 -0.1558  1.0679 -2.5288
   82MOL   H15729479   0.967   2.994   0.619 -1.3036  0.0701  0.5874
   82MOL   H15829480   0.985   2.843   0.532 -0.4042  1.2213 -1.8683
   82MOL   H15929481   0.750   3.018   0.437 -0.6063 -1.5518 -0.6950
   82MOL   H16029482   0.818   2.883   0.364  0.0434 -0.3322 -1.0087
   82MOL   H16129483   0.945   3.157   0.372 -1.0191 -0.7959  0.3692
   82MOL   H16229484   1.041   3.008   0.331 -1.3882 -3.4370 -0.4607
   82MOL   H16329485   0.913   3.060   0.232 -1.8620  0.8513 -0.1475
   82MOL   C16429486   0.615   2.689   0.721 -0.3564  0.3341  0.3783
   82MOL   C16529487   0.523   2.792   0.790  0.5473 -0.1118  0.6219
   82MOL   C16629488   0.441   2.873   0.679 -0.2404 -0.0885 -0.1175
   82MOL   C16729489   0.404   3.011   0.725 -0.5497  0.2074  0.2801
   82MOL   C16829490   0.345   3.105   0.615  0.1418  0.6958 -0.0872
   82MOL   C16929491   0.284   3.229   0.665 -0.5847  0.5232  0.5222
   82MOL   H17029492   0.553   2.615   0.671  1.7699  0.7449 -3.0205
   82MOL   H17129493   0.667   2.635   0.801  1.4629  0.8176 -0.4465
   82MOL   H17229494   0.570   2.856   0.864  0.0575  1.3088 -0.2848
   82MOL   H17329495   0.350   2.823   0.646  1.1550 -0.6634 -3.2667
   82MOL   H17429496   0.499   2.891   0.588 -0.2541 -0.3817 -0.1844
   82MOL   H17529497   0.482   3.065   0.779 -0.2058 -1.1462  1.1415
   82MOL   H17629498   0.325   2.995   0.799 -0.9350 -1.2730 -0.4310
   82MOL   H17729499   0.270   3.050   0.559 -0.0518  1.7287 -0.8725
   82MOL   H17829500   0.430   3.128   0.550  0.0208 -1.5758 -1.0964
   82MOL   H17929501   0.195   3.213   0.726 -1.3265  0.9325 -0.4295
   82MOL   H18029502   0.278   3.307   0.589  0.8056 -0.6295 -0.7855
   82MOL   H18129503   0.357   3.276   0.731 -0.4108  0.3583  0.4473
   82MOL   C18229504   0.414   2.716   0.873  0.0870 -0.4543  0.3110
   82MOL   C18329505   0.445   2.615   0.984 -0.2024 -0.6727 -0.6492
   82MOL   C18429506   0.313   2.535   1.026 -0.8703  0.6358  0.3707
   82MOL   C18529507   0.284   2.423   0.930  0.2127  0.4248  0.4473
   82MOL   C18629508   0.216   2.303   0.998 -0.5387  0.4634 -0.4875
   82MOL   C18729509   0.302   2.210   1.082  0.2464 -0.2245  0.2763
   82MOL   H18829510   0.356   2.797   0.917  0.2150  0.5440 -1.3166
   82MOL   H18929511   0.349   2.659   0.807  1.2105 -0.8975 -0.4327
   82MOL   H19029512   0.510   2.543   0.935 -1.6933 -0.0182 -3.7405
   82MOL   H19129513   0.326   2.489   1.124 -0.5508  1.3477  0.6634
   82MOL   H19229514   0.228   2.603   1.029 -3.7662 -2.8591  0.7627
   82MOL   H19329515   0.359   2.372   0.870 -0.0073 -2.5032  2.5584
   82MOL   H19429516   0.215   2.465   0.857  0.8353  1.0670  0.2176
   82MOL   H19529517   0.156   2.238   0.934 -0.3131 -0.7090  0.4718
   82MOL   H19629518   0.135   2.352   1.052  0.1909  1.3796 -0.2177
   82MOL   H19729519   0.368   2.147   1.022 -0.6371 -1.2375  0.3459
   82MOL   H19829520   0.240   2.139   1.136 -0.2254  1.5964  2.1678
   82MOL   H19929521   0.368   2.254   1.157 -1.0549  0.4791  1.0145
   82MOL   C20029522   0.515   2.689   1.100 -0.3229  0.5548 -0.0594
   82MOL   C20129523   0.562   2.614   1.228  0.1077 -0.2043  0.3172
   82MOL   C20229524   0.663   2.510   1.192 -0.5643  0.6659 -0.2134
   82MOL   C20329525   0.717   2.406   1.297  0.3179  0.1139 -0.5835
   82MOL   C20429526   0.741   2.254   1.263 -0.4105 -0.0459  0.0135
   82MOL   C20529527   0.620   2.166   1.221  0.0792 -0.5766  0.0773
   82MOL   H20629528   0.460   2.777   1.134  0.3119  1.7022 -1.9231
   82MOL   H20729529   0.600   2.740   1.054  0.3311 -2.2514 -2.0902
   82MOL   H20829530   0.478   2.567   1.280  2.0232 -1.0218  2.8334
   82MOL   H20929531   0.753   2.556   1.150  0.4109  0.2028  1.3213
   82MOL   H21029532   0.620   2.452   1.111 -0.7108 -0.9360  0.9941
   82MOL   H21129533   0.646   2.404   1.381  1.9925  1.3728  0.9110
   82MOL   H21229534   0.808   2.444   1.343 -0.8723  0.1367  1.8566
   82MOL   H21329535   0.802   2.209   1.341  0.8324  2.5691  0.6061
   82MOL   H21429536   0.807   2.256   1.177 -0.3652 -0.9100  0.0264
   82MOL   H21529537   0.546   2.170   1.301  0.1020  3.0922 -0.0160
   82MOL   H21629538   0.563   2.204   1.137 -0.3222  0.2129  0.6947
   82MOL   H21729539   0.658   2.066   1.202  1.1693 -0.3440  0.9407
   82MOL   C21829540   0.617   2.706   1.340  0.4912  0.1097 -0.0863
   82MOL   C21929541   0.515   2.789   1.422 -0.1230 -0.7060  0.1204
   82MOL   C22029542   0.593   2.899   1.509 -0.6234  0.1530 -0.2976
   82MOL   C22129543   0.499   3.010   1.564 -0.4386 -0.0417 -0.1975
   82MOL   C22229544   0.576   3.138   1.567  0.5778 -0.3689 -0.1964
   82MOL   C22329545   0.497   3.266   1.605 -0.8262  0.0289  0.3707
   82MOL   H22429546   0.667   2.649   1.418 -3.2090 -1.0184  1.5310
   82MOL   H22529547   0.696   2.775   1.308 -0.3702  0.4901 -1.4073
   82MOL   H22629548   0.458   2.828   1.338  0.9161 -0.9866 -0.7302
   82MOL   H22729549   0.665   2.945   1.442  0.4201 -0.5951  0.3057
   82MOL   H22829550   0.643   2.853   1.594 -4.1603  0.4165  2.0444
   82MOL   H22929551   0.462   2.996   1.665 -0.8322  0.9515 -0.1965
   82MOL   H23029552   0.409   3.010   1.502 -0.4009  1.5401 -0.2695
   82MOL   H23129553   0.653   3.125   1.642 -0.3890 -0.4997  0.7841
   82MOL   H23229554   0.626   3.156   1.472  0.1467  0.0210 -0.3529
   82MOL   H23329555   0.414   3.233   1.668  0.0521  3.3006  3.4231
   82MOL   H23429556   0.441   3.312   1.524 -0.6751 -0.8654 -0.2472
   82MOL   H23529557   0.548   3.343   1.664  1.0474  0.1718 -1.3867
   82MOL   C23629558   0.419   2.710   1.516  0.0980 -0.2926  0.2209
   82MOL   C23729559   0.260   2.730   1.492  0.0048  0.1266  0.0997
   82MOL   C23829560   0.197   2.697   1.625  0.2538  0.0207 -0.3572
   82MOL   C23929561   0.225   2.795   1.741 -1.1021 -0.3712  0.1095
   82MOL   C24029562   0.157   2.773   1.879  0.2012  0.0840 -0.7262
   82MOL   C24129563   0.017   2.826   1.894 -0.0321  0.3947  1.4276
   82MOL   H24229564   0.433   2.604   1.499 -0.1999 -0.0620 -1.5725
   82MOL   H24329565   0.448   2.719   1.621 -0.4733 -1.5800  0.4948
   82MOL   H24429566   0.236   2.833   1.468 -1.6140  0.2334  2.0940
   82MOL   H24529567   0.089   2.695   1.616  0.1747  1.0356  0.2972
   82MOL   H24629568   0.227   2.596   1.650 -0.7266  0.3392  2.2613
   82MOL   H24729569   0.202   2.893   1.699  2.8030  0.2395 -0.8607
   82MOL   H24829570   0.333   2.799   1.759 -0.9627 -1.5565 -0.3934
   82MOL   H24929571   0.165   2.669   1.910  0.8579 -0.0612 -1.3399
   82MOL   H25029572   0.224   2.820   1.952 -0.3810 -0.2366  0.0145
   82MOL   H25129573   7.698   2.792   1.987  1.3934  0.0837  2.0228
   82MOL   H25229574   0.020   2.934   1.906 -1.3196  0.2269  3.5325
   82MOL   H25329575   7.679   2.803   1.809  0.7610 -0.2552  0.9938
   82MOL   C25429576   0.202   2.644   1.376  0.7417  0.0352  0.0442
   82MOL   C25529577   0.058   2.667   1.333 -0.1929 -0.6325 -0.0257
   82MOL   C25629578   7.706   2.549   1.261  0.2063 -0.6924  0.1767
   82MOL   C25729579   7.704   2.415   1.331 -0.5924 -0.3073 -0.1976
   82MOL   C25829580   7.621   2.322   1.239  0.4986  0.5721 -0.3392
   82MOL   C25929581   7.608   2.180   1.298 -0.2446 -0.5773 -0.1982
   82MOL   H26029582   0.209   2.544   1.419 -1.6875 -0.0080  0.4095
   82MOL   H26129583   0.274   2.641   1.295 -0.6665  0.4268 -1.2355
   82MOL   H26229584   0.006   2.693   1.425 -0.0700  1.8010 -0.6189
   82MOL   H26329585   7.603   2.580   1.246  0.5796  1.7646  2.3713
   82MOL   H26429586   0.022   2.531   1.162 -2.2946 -0.7360 -0.9290
   82MOL   H26529587   0.076   2.370   1.331  0.3144  1.6416 -0.0457
   82MOL   H26629588   7.658   2.421   1.430  0.7420 -0.9371  0.4726
   82MOL   H26729589   7.658   2.320   1.137 -1.8230 -0.5478 -1.1864
   82MOL   H26829590   7.520   2.358   1.220 -0.1401 -1.9938 -2.0222
   82MOL   H26929591   7.700   2.129   1.325 -0.6452 -0.5561  1.2418
   82MOL   H27029592   7.575   2.109   1.222  2.4433 -1.8084 -0.2555
   82MOL   H27129593   7.546   2.187   1.387  0.6500  0.2548  0.3587
   82MOL   C27229594   0.060   2.791   1.230 -0.3709  0.0672 -0.1595
   82MOL   C27329595   7.655   2.862   1.207 -0.0231 -0.1577 -0.3340
   82MOL   C27429596   7.592   2.906   1.346  0.6405 -0.0223 -0.7264
   82MOL   C27529597   7.487   3.022   1.347 -0.0135  0.4425 -0.2496
   82MOL   C27629598   7.419   3.065   1.473 -0.9463  0.1285 -0.4056
   82MOL   C27729599   7.326   2.956   1.533 -0.4364 -0.1364 -0.0212
   82MOL   H27829600   0.107   2.878   1.275  0.1267  0.2111 -0.9476
   82MOL   H27929601   0.112   2.766   1.137 -0.2325  1.3532 -0.4340
   82MOL   H28029602   7.685   2.953   1.154  1.1875 -2.1329 -3.1775
   82MOL   H28129603   7.665   2.936   1.422  1.0570 -0.3568 -0.9927
   82MOL   H28229604   7.541   2.818   1.383 -4.0910  2.9129  0.1622
   82MOL   H28329605   7.407   2.982   1.284  0.4243 -1.0943  0.1466
   82MOL   H28429606   7.534   3.105   1.294  0.8892  0.2805  0.2888
   82MOL   H28529607   7.499   3.095   1.541 -3.7506  3.1759  1.6960
   82MOL   H28629608   7.368   3.160   1.457  0.3304  1.1897  1.5337
   82MOL   H28729609   7.258   2.972   1.616  1.9522 -0.6769  2.0971
   82MOL   H28829610   7.257   2.921   1.456 -0.4173 -0.5921  0.1670
   82MOL   H28929611   7.394   2.872   1.550  2.5768  1.8704 -1.6987
   82MOL   C29029612   7.546   2.798   1.111 -0.7756 -0.8784 -0.5447
   82MOL   C29129613   7.500   2.889   0.995  0.4531 -0.2725 -0.0232
   82MOL   C29229614   7.612   2.886   0.887 -0.0452  0.1423  0.3447
   82MOL   C29329615   7.587   2.955   0.758  0.0894  0.1843 -0.1356
   82MOL   C29429616   7.714   2.974   0.672 -0.2787 -0.2104  0.8116
   82MOL   C29529617   7.689   3.063   0.553  0.1798 -0.5933  0.5322
   82MOL   H29629618   7.468   2.778   1.183 -0.9416 -3.1661 -1.3319
   82MOL   H29729619   7.601   2.713   1.070  1.0846 -0.0043  0.0861
   82MOL   H29829620   7.495   2.988   1.040 -0.3762 -1.4012  2.5054
   82MOL   H29929621   7.641   2.784   0.862  1.5521  0.5460  0.4864
   82MOL   H30029622   7.707   2.921   0.929  0.5590  0.1998 -1.0560
   82MOL   H30129623   7.513   2.906   0.696 -0.2788 -1.0629  1.2704
   82MOL   H30229624   7.545   3.052   0.784 -1.7418 -0.4723 -0.5901
   82MOL   H30329625   0.029   2.883   0.630  1.0937  0.0230  1.6485
   82MOL   H30429626   0.066   3.014   0.736  0.3399 -0.9046  0.4819
   82MOL   H30529627   7.608   3.036   0.485  0.9099 -0.5532 -0.3693
   82MOL   H30629628   0.056   3.065   0.496  0.3224  0.7947  0.7806
   82MOL   H30729629   7.673   3.169   0.576  1.1909 -0.3168  0.0273
   82MOL   C30829630   7.365   2.840   0.941 -0.4047 -0.6794  0.6587
   82MOL   C30929631   7.244   2.830   1.045  1.1809 -0.0942 -0.0719
   82MOL   C31029632   7.218   2.692   1.101 -0.0015 -0.0677 -0.3961
   82MOL   C31129633   7.135   2.599   1.014  0.7712  0.2023 -0.1442
   82MOL   C31229634   7.128   2.461   1.077  0.5702  0.8880  0.0909
   82MOL   C31329635   7.038   2.371   0.991  0.3393 -0.5610 -0.1282
   82MOL   H31429636   7.335   2.913   0.865  0.0498 -1.3387 -0.1587
   82MOL   H31529637   7.385   2.747   0.887 -0.8583  0.1292 -0.9504
   82MOL   H31629638   7.279   2.883   1.134  1.3166 -0.3098  0.0065
   82MOL   H31729639   7.175   2.709   1.199  0.9381 -0.5056  0.1017
   82MOL   H31829640   7.312   2.638   1.115 -0.6750 -1.1238  0.0808
   82MOL   H31929641   7.175   2.590   0.913 -1.0003 -0.2625 -0.8399
   82MOL   H32029642   7.033   2.637   1.008  0.8389  0.2911 -0.8414
   82MOL   H32129643   7.226   2.412   1.082 -0.4838 -1.3469 -0.5718
   82MOL   H32229644   7.104   2.466   1.183 -1.9077 -2.9386 -0.1845
   82MOL   H32329645   6.932   2.399   0.991  0.3728 -0.4340  0.2249
   82MOL   H32429646   7.035   2.269   1.030  1.6204 -0.7044 -0.4053
   82MOL   H32529647   7.079   2.366   0.890 -0.2656 -0.7571 -0.3705
   82MOL   C32629648   7.119   2.903   1.001 -0.8579  0.7684 -0.7173
   82MOL   C32729649   7.118   3.055   0.981 -0.0397  1.0813  0.7963
   82MOL   C32829650   6.991   3.099   0.906  0.2829  0.6085  0.1437
   82MOL   C32929651   6.856   3.066   0.977  0.8311  0.5880  0.3006
   82MOL   C33029652   6.734   3.113   0.895 -0.8955  0.2868 -0.4670
   82MOL   C33129653   6.600   3.118   0.973 -0.7938 -0.0643 -0.2048
   82MOL   H33229654   7.043   2.880   1.077 -2.9402  1.0489 -2.6554
   82MOL   H33329655   7.087   2.860   0.906 -0.1625 -0.2145 -0.5195
   82MOL   H33429656   7.204   3.091   0.924 -1.3470  0.6917 -1.5099
   82MOL   H33529657   7.009   3.205   0.889  1.2302  0.3612 -0.4749
   82MOL   H33629658   6.983   3.057   0.806  0.1984  1.4368 -0.1984
   82MOL   H33729659   6.866   3.120   1.072  1.9122  0.5566  0.2111
   82MOL   H33829660   6.852   2.958   0.988  1.5720  0.4866 -0.3845
   82MOL   H33929661   6.754   3.218   0.870  0.1076  0.4141  0.8498
   82MOL   H34029662   6.728   3.059   0.801  2.3803  1.2045 -1.2971
   82MOL   H34129663   6.576   3.018   1.008 -1.2621 -0.1192 -0.6724
   82MOL   H34229664   6.515   3.155   0.915 -1.3747 -1.0384  0.0121
   82MOL   H34329665   6.615   3.182   1.060  0.5748  1.0429 -1.2172
   82MOL   C34429666   7.133   3.124   1.117 -0.9064 -0.1066  0.4602
   82MOL   C34529667   7.152   3.281   1.112  0.0326 -0.0877  0.4034
   82MOL   C34629668   7.200   3.341   1.238 -0.6570 -0.1665 -0.1145
   82MOL   C34729669   7.103   3.315   1.349 -0.1670 -0.0728 -0.3179
   82MOL   C34829670   7.145   3.379   1.477  0.6818  0.9505 -0.1301
   82MOL   C34929671   7.074   3.333   1.596 -0.2721 -0.5940  0.1605
   82MOL   H35029672   7.057   3.089   1.187  1.0600 -2.0289  1.7247
   82MOL   H35129673   7.217   3.073   1.166  0.5382 -1.5205 -3.3117
   82MOL   H35229674   7.052   3.323   1.104 -0.5415 -1.7387 -1.2527
   82MOL   H35329675   7.300   3.314   1.273  0.9726  3.2344 -1.8966
   82MOL   H35429676   7.198   3.450   1.225 -1.2664 -0.1402  0.1647
   82MOL   H35529677   7.005   3.356   1.322 -0.0291 -0.0773 -0.8346
   82MOL   H35629678   7.091   3.209   1.371  0.3935 -0.1614 -0.4384
   82MOL   H35729679   7.251   3.365   1.495  0.5751  1.3548  0.9155
   82MOL   H35829680   7.131   3.488   1.479  1.6263  1.0747  2.3021
   82MOL   H35929681   6.971   3.315   1.564  0.2278 -1.5170 -0.9345
   82MOL   H36029682   7.123   3.239   1.620  1.1041  0.5776  2.0270
   82MOL   H36129683   7.079   3.409   1.674  0.9229 -0.5398  0.0412
   82MOL   H36229684   7.210   3.316   1.027  1.6691 -0.3117  1.3877
   83MOL     C129685   7.673   1.118   4.913 -0.3908  0.1330  0.2598
   83MOL     C229686   7.633   0.988   4.831 -0.9281  0.9824 -0.3083
   83MOL     C329687   7.704   0.873   4.898 -0.0423  1.5303 -0.5397
   83MOL     C429688   7.667   0.732   4.859  0.0056  0.1629  1.0524
   83MOL     C529689   7.515   0.693   4.870 -0.1823  0.2959 -0.0658
   83MOL     C629690   7.491   0.551   4.802  0.3502  0.0767 -0.2926
   83MOL     H729691   7.646   1.217   4.875 -2.2863 -0.4639 -0.0107
   83MOL     H829692   7.626   1.118   5.011  1.7868 -3.3828  1.3691
   83MOL     H929693   7.526   0.968   4.832 -0.6738 -0.4075 -0.7902
   83MOL    H1029694   7.690   0.865   5.005  2.3488 -0.9612 -0.3566
   83MOL    H1129695   0.083   0.888   4.875  0.1568  1.1291  0.1155
   83MOL    H1229696   7.724   0.657   4.915 -0.0302 -0.0228  0.8429
   83MOL    H1329697   7.710   0.710   4.761  0.1006 -1.7477  1.4953
   83MOL    H1429698   7.469   0.702   4.968  1.2398 -1.4246  0.7913
   83MOL    H1529699   7.455   0.765   4.815 -0.7757  0.7297  1.1314
   83MOL    H1629700   7.387   0.530   4.826 -0.6035  0.8532 -3.5321
   83MOL    H1729701   7.548   0.469   4.845  1.0262 -0.0861 -1.4693
   83MOL    H1829702   7.506   0.544   4.694 -1.9646 -1.3700 -0.5502
   83MOL    H1929703   0.052   1.124   4.935 -0.6837  1.7174  1.3398
   83MOL    C2029704   7.680   1.011   4.683 -0.6391 -0.6372  0.4893
   83MOL    C2129705   7.602   0.956   4.571  0.3616  0.3884  0.1280
   83MOL    C2229706   7.465   1.020   4.562 -0.4958  0.1071  0.6775
   83MOL    C2329707   7.359   0.926   4.509 -0.8183  0.2732  0.6893
   83MOL    C2429708   7.217   0.982   4.507  0.5442 -0.0631  0.4537
   83MOL    C2529709   7.156   1.024   4.643 -0.1544  0.2262  0.4659
   83MOL    H2629710   0.060   0.999   4.672 -0.2183  3.4608 -0.6900
   83MOL    H2729711   7.677   1.119   4.667  1.6408 -0.8288 -1.5259
   83MOL    H2829712   7.596   0.853   4.604  0.7667  0.1230 -0.6177
   83MOL    H2929713   7.467   1.095   4.483  0.1896  0.3303  0.8993
   83MOL    H3029714   7.440   1.065   4.658  0.9027  0.2168  0.9933
   83MOL    H3129715   7.363   0.837   4.572  0.8536 -0.2312 -0.0948
   83MOL    H3229716   7.386   0.891   4.410 -2.6044  0.2442  0.1908
   83MOL    H3329717   7.219   1.067   4.440 -0.5020 -0.9772 -0.7741
   83MOL    H3429718   7.158   0.911   4.448  0.9225  0.2880 -0.3494
   83MOL    H3529719   7.217   1.102   4.688 -0.9897  0.6187  0.9350
   83MOL    H3629720   7.060   1.074   4.626 -0.4011 -1.3154 -3.0228
   83MOL    H3729721   7.138   0.935   4.704  2.5133 -0.6623  0.0134
   83MOL    C3829722   7.677   0.964   4.438  0.0830 -0.0847 -0.0208
   83MOL    C3929723   0.075   0.870   4.421 -0.3999  0.0926  0.1576
   83MOL    C4029724   0.042   0.745   4.344  0.0166 -0.1512 -0.1082
   83MOL    C4129725   7.659   0.658   4.406  0.0897  0.0238  0.3082
   83MOL    C4229726   7.628   0.528   4.322 -0.0629 -0.3081  0.4738
   83MOL    C4329727   7.494   0.467   4.364  0.7384 -0.1963 -0.2731
   83MOL    H4429728   7.711   1.065   4.413  1.0159 -0.5756 -0.7796
   83MOL    H4529729   7.614   0.928   4.356 -0.1902 -0.7565  0.4781
   83MOL    H4629730   0.100   0.833   4.521 -0.7661  1.4478  0.7608
   83MOL    H4729731   0.013   0.770   4.242  2.8981  0.5682 -0.7939
   83MOL    H4829732   0.134   0.687   4.351  0.9666  1.5927  2.4156
   83MOL    H4929733   7.691   0.623   4.504  0.2945 -1.0019 -0.1161
   83MOL    H5029734   7.565   0.711   4.418  0.0038 -0.3551  1.3671
   83MOL    H5129735   7.606   0.551   4.217 -2.4189  1.0547  1.2118
   83MOL    H5229736   7.716   0.464   4.321 -0.2717 -0.6824  3.0277
   83MOL    H5329737   7.511   0.406   4.453 -1.4807  1.4031  1.2921
   83MOL    H5429738   7.444   0.408   4.287 -0.2657 -0.4848  0.5832
   83MOL    H5529739   7.428   0.545   4.402  0.1383 -0.3893 -0.9137
   83MOL    C5629740   0.200   0.941   4.360 -0.2137  0.4173  0.1210
   83MOL    C5729741   0.330   0.881   4.428 -0.3037 -0.9752  0.6061
   83MOL    C5829742   0.351   0.939   4.572  0.6051 -0.0463  0.0283
   83MOL    C5929743   0.431   0.848   4.666 -0.6011 -0.2473  0.0180
   83MOL    C6029744   0.566   0.915   4.695  0.4483  0.3660  0.2128
   83MOL    C6129745   0.660   0.827   4.770 -0.2420  0.6362 -0.6288
   83MOL    H6229746   0.204   0.935   4.251  0.3175  3.4358 -0.0680
   83MOL    H6329747   0.196   1.050   4.367 -1.3634  0.2624  2.4894
   83MOL    H6429748   0.309   0.775   4.446  0.1094 -0.8293  1.9762
   83MOL    H6529749   0.399   1.036   4.559  0.2738 -0.0078 -0.9443
   83MOL    H6629750   0.255   0.958   4.622  0.5843 -1.4264  0.5263
   83MOL    H6729751   0.453   0.744   4.643 -1.4796 -0.2176 -1.0118
   83MOL    H6829752   0.375   0.850   4.759 -1.4366  0.0167 -0.4794
   83MOL    H6929753   0.610   0.940   4.598 -0.0255  0.3795  0.0011
   83MOL    H7029754   0.551   1.013   4.739 -0.7519  0.3145 -0.0721
   83MOL    H7129755   0.764   0.854   4.755 -0.5382  1.9453 -0.4423
   83MOL    H7229756   0.636   0.824   4.877 -1.6204 -0.4458 -0.9465
   83MOL    H7329757   0.647   0.725   4.734  2.0183 -0.1370  0.6549
   83MOL    C7429758   0.452   0.894   4.325 -0.4325 -0.6422 -1.5376
   83MOL    C7529759   0.458   0.786   4.217  0.9419 -1.0841 -0.3625
   83MOL    C7629760   0.531   0.827   4.091 -0.2126  0.0567  0.4014
   83MOL    C7729761   0.453   0.935   4.007  0.6526  0.1484  0.2150
   83MOL    C7829762   0.541   0.986   3.885  0.0129  0.1304  0.0249
   83MOL    C7929763   0.467   1.081   3.790  0.2605  0.4144  0.0481
   83MOL    H8029764   0.447   0.997   4.290 -2.6307 -0.7334 -1.5668
   83MOL    H8129765   0.537   0.870   4.388 -1.7147 -0.2292  0.4020
   83MOL    H8229766   0.355   0.769   4.184  0.4641 -0.1562  0.6132
   83MOL    H8329767   0.627   0.872   4.116 -0.5986  1.4423 -0.5256
   83MOL    H8429768   0.557   0.743   4.027 -0.4984  0.3560 -0.1168
   83MOL    H8529769   0.359   0.888   3.979  0.7324 -1.1136  1.9678
   83MOL    H8629770   0.425   1.027   4.058 -0.1811  0.1327 -0.2103
   83MOL    H8729771   0.580   0.906   3.822 -0.0152 -1.5145  2.0452
   83MOL    H8829772   0.623   1.051   3.915 -0.7750 -0.2721  3.2350
   83MOL    H8929773   0.499   1.067   3.687  1.1599 -1.3198  0.5578
   83MOL    H9029774   0.360   1.062   3.790  0.9581 -3.9609  0.5819
   83MOL    H9129775   0.474   1.188   3.810 -1.2317  1.2345 -3.4470
   83MOL    C9229776   0.518   0.660   4.273 -0.7355  1.1200 -1.0781
   83MOL    C9329777   0.477   0.529   4.211  0.5520  0.1039  0.2897
   83MOL    C9429778   0.540   0.406   4.286  0.8370 -0.2142 -0.0569
   83MOL    C9529779   0.697   0.402   4.287 -1.0066  0.0361 -0.1352
   83MOL    C9629780   0.757   0.258   4.293  0.6046 -0.2558  0.5195
   83MOL    C9729781   0.733   0.183   4.421 -0.5436  0.0518 -0.8820
   83MOL    H9829782   0.626   0.670   4.266 -0.2258 -1.3986  2.1351
   83MOL    H9929783   0.498   0.653   4.380  0.1831  1.5070 -0.8767
   83MOL   H10029784   0.511   0.529   4.108 -0.2040 -3.2609 -0.0181
   83MOL   H10129785   0.506   0.313   4.242  0.7866 -0.2044 -0.0378
   83MOL   H10229786   0.505   0.405   4.389 -2.1297  0.2835 -1.0130
   83MOL   H10329787   0.724   0.455   4.195 -2.1691 -1.6825 -1.5099
   83MOL   H10429788   0.743   0.455   4.370  1.8960 -2.3373 -0.1484
   83MOL   H10529789   0.713   0.210   4.205 -0.2026 -0.7100  1.1698
   83MOL   H10629790   0.862   0.270   4.267  0.5538 -0.8935  0.0122
   83MOL   H10729791   0.787   0.228   4.504 -0.6759 -3.1635  0.9871
   83MOL   H10829792   0.629   0.168   4.450  0.3749 -1.8140  1.5718
   83MOL   H10929793   0.765   0.079   4.419  0.9370  0.5049 -1.8143
   83MOL   C11029794   0.325   0.507   4.203 -0.9306 -0.5770 -0.0557
   83MOL   C11129795   0.276   0.393   4.104 -0.0380  0.0602 -0.3763
   83MOL   C11229796   0.155   0.443   4.016  0.2491 -0.1545 -0.5435
   83MOL   C11329797   0.192   0.555   3.909  0.4850 -0.1973  0.1190
   83MOL   C11429798   0.325   0.540   3.833  0.4458  0.1276 -1.2917
   83MOL   C11529799   0.358   0.646   3.730  0.6141 -0.2399 -0.0534
   83MOL   H11629800   0.288   0.491   4.305  1.0905 -1.3446  0.5862
   83MOL   H11729801   0.274   0.597   4.169 -0.4299 -0.2967 -0.0633
   83MOL   H11829802   0.353   0.364   4.032  0.5412  1.2908 -0.2643
   83MOL   H11929803   0.072   0.479   4.076  0.2656 -1.3461  0.2308
   83MOL   H12029804   0.118   0.363   3.951 -2.5227  0.6558 -0.0086
   83MOL   H12129805   0.185   0.651   3.959  2.0516  0.9730 -1.8462
   83MOL   H12229806   0.111   0.566   3.836  2.8187  0.8860 -2.3829
   83MOL   H12329807   0.329   0.442   3.785  2.4688 -1.8392  2.6777
   83MOL   H12429808   0.413   0.524   3.895 -2.0705 -3.1650  1.6511
   83MOL   H12529809   0.399   0.739   3.770 -0.0355  2.0054 -4.2578
   83MOL   H12629810   0.422   0.624   3.644  1.7842  0.8684  0.5115
   83MOL   H12729811   0.269   0.692   3.688  0.8668 -0.3271 -0.6944
   83MOL   C12829812   0.230   0.273   4.183 -0.7984 -0.3179 -0.1277
   83MOL   C12929813   0.234   0.146   4.103  0.0498 -0.0197 -0.7731
   83MOL   C13029814   0.118   0.042   4.145 -0.6374  0.7785 -0.1655
   83MOL   C13129815   7.699   0.087   4.118  1.0453  0.0869  0.1961
   83MOL   C13229816   7.600   7.697   4.139 -0.5317  0.1510 -0.1783
   83MOL   C13329817   7.461   0.020   4.104 -0.3824  0.3144  0.4193
   83MOL   H13429818   0.136   0.288   4.236 -2.0016 -0.2800 -2.2234
   83MOL   H13529819   0.288   0.255   4.274 -2.6873  0.4906  1.2827
   83MOL   H13629820   0.208   0.167   3.999  0.7002 -1.2797 -1.2126
   83MOL   H13729821   0.123   7.677   4.087 -0.7639  0.4547  0.3339
   83MOL   H13829822   0.133   0.010   4.248  0.7359 -1.4279 -1.0193
   83MOL   H13929823   7.694   0.112   4.012  0.6242 -0.1371  0.1597
   83MOL   H14029824   7.673   0.181   4.167 -1.5695 -0.2517 -0.4662
   83MOL   H14129825   7.629   7.612   4.077  1.1608 -0.1472  0.9801
   83MOL   H14229826   7.606   7.652   4.238 -2.1654 -0.8789 -0.5275
   83MOL   H14329827   7.441   0.111   4.162 -0.4869  0.8486 -0.4570
   83MOL   H14429828   7.387   7.671   4.129 -1.5192  0.9677 -0.8873
   83MOL   H14529829   7.457   0.038   3.997  0.9704  0.1875  0.3500
   83MOL   C14629830   0.376   0.086   4.114  0.1110 -0.4990 -0.1410
   83MOL   C14729831   0.398   7.687   4.038 -0.5958  0.3193 -0.2835
   83MOL   C14829832   0.534   7.626   4.063  0.0803 -0.5499 -0.6320
   83MOL   C14929833   0.587   7.621   4.200  0.4491  0.6252 -0.1771
   83MOL   C15029834   0.693   7.508   4.225  0.2996  0.8712 -0.1368
   83MOL   C15129835   0.772   7.518   4.357 -0.1777  0.2167  0.4728
   83MOL   H15229836   0.442   0.157   4.064 -1.1708  1.5610  1.0160
   83MOL   H15329837   0.405   0.066   4.217 -0.1401 -0.3612 -0.0432
   83MOL   H15429838   0.324   7.613   4.069 -1.1217 -0.8159 -3.9936
   83MOL   H15529839   0.608   7.672   3.997  0.6830 -1.9063 -0.9287
   83MOL   H15629840   0.513   7.528   4.020  1.2923 -1.5298  0.9336
   83MOL   H15729841   0.634   7.718   4.218 -1.8616  1.5529  1.0346
   83MOL   H15829842   0.507   7.607   4.273 -1.4007 -1.5321 -2.5680
   83MOL   H15929843   0.760   7.500   4.140  0.1716 -1.9507 -0.0095
   83MOL   H16029844   0.641   7.412   4.219 -0.6351  1.3299  0.4300
   83MOL   H16129845   0.712   7.533   4.446 -0.3567 -0.8552  0.5446
   83MOL   H16229846   0.830   7.425   4.360 -0.9878 -0.2574  2.0736
   83MOL   H16329847   0.842   7.601   4.362 -1.7487  1.4729  1.9380
   83MOL   C16429848   0.365   7.703   3.885 -1.5554 -0.7211  0.3293
   83MOL   C16529849   0.376   7.574   3.794  0.7131 -0.5447 -0.3942
   83MOL   C16629850   0.252   7.564   3.702  0.4800 -0.3671 -0.9561
   83MOL   C16729851   0.119   7.520   3.769  0.3370 -0.2744 -0.1417
   83MOL   C16829852   7.725   7.566   3.681  0.3408  0.0373 -0.8239
   83MOL   C16929853   7.590   7.533   3.740  0.0956  0.0409 -0.3894
   83MOL   H17029854   0.266   0.018   3.870 -0.9287  1.1615  1.3462
   83MOL   H17129855   0.416   0.052   3.826 -3.7874  0.1217 -0.5701
   83MOL   H17229856   0.374   7.485   3.857  0.7832 -1.2936 -1.4330
   83MOL   H17329857   0.262   7.503   3.613 -1.5923 -2.5721  0.2688
   83MOL   H17429858   0.237   7.667   3.669  0.9999 -0.5410 -1.7428
   83MOL   H17529859   0.107   7.552   3.873  0.1631 -0.0135 -0.2419
   83MOL   H17629860   0.126   7.412   3.779 -2.0413 -0.2900  1.7661
   83MOL   H17729861   0.016   7.530   3.579 -0.8712  0.3622 -1.1608
   83MOL   H17829862   0.010   7.674   3.672  1.2232 -0.0287 -0.4188
   83MOL   H17929863   7.584   7.554   3.847  0.8800 -0.7288 -0.1885
   83MOL   H18029864   7.567   7.427   3.739 -1.3515  0.3081  1.9620
   83MOL   H18129865   7.506   7.583   3.691  1.2103  0.9526 -1.4144
   83MOL   C18229866   0.506   7.561   3.715  0.2520 -0.1640 -0.5433
   83MOL   C18329867   0.554   7.415   3.661  0.4424  0.2765 -0.2577
   83MOL   C18429868   0.598   7.319   3.774 -0.1269  0.6432 -0.2459
   83MOL   C18529869   0.726   7.354   3.849  0.0212 -0.2037  0.0340
   83MOL   C18629870   0.800   7.256   3.947 -0.1991 -0.1707  0.6763
   83MOL   C18729871   0.889   7.165   3.877  0.0852 -0.3969 -0.0195
   83MOL   H18829872   0.495   7.633   3.635  0.9800  1.4215  0.7524
   83MOL   H18929873   0.584   7.584   3.788  1.4958 -2.6093 -1.0281
   83MOL   H19029874   0.463   7.375   3.615 -0.2145  0.9736  0.4276
   83MOL   H19129875   0.514   7.324   3.843  0.1403 -0.2560  0.1534
   83MOL   H19229876   0.609   7.216   3.740 -0.9681  1.0252 -1.7512
   83MOL   H19329877   0.727   7.446   3.907  0.7880 -0.6410  0.7238
   83MOL   H19429878   0.799   7.376   3.771 -2.1796  1.2619 -1.6681
   83MOL   H19529879   0.727   7.197   4.001  0.9028 -3.0832 -0.9191
   83MOL   H19629880   0.869   7.308   4.014  0.1761  1.7000 -1.0947
   83MOL   H19729881   0.978   7.205   3.828  0.7214 -3.0328 -1.0681
   83MOL   H19829882   0.833   7.098   3.813  1.4365  0.1169 -1.7887
   83MOL   H19929883   0.934   7.095   3.947 -0.2504  1.6704  2.3639
   83MOL   C20029884   0.652   7.446   3.539 -0.5403  0.2372 -0.0331
   83MOL   C20129885   0.683   7.337   3.443 -0.2222 -0.6538 -0.2741
   83MOL   C20229886   0.803   7.246   3.486 -0.1235  0.0415 -1.0409
   83MOL   C20329887   0.944   7.303   3.459  1.2565  1.0032  0.1369
   83MOL   C20429888   1.053   7.206   3.507  0.0955  0.4675 -0.5382
   83MOL   C20529889   1.188   7.252   3.446  1.2050 -0.7031 -0.1430
   83MOL   H20629890   0.742   7.490   3.584 -0.6479 -0.7578  1.1910
   83MOL   H20729891   0.594   7.509   3.471  0.4068  0.5671 -0.5543
   83MOL   H20829892   0.705   7.389   3.350 -0.9469  1.7934  0.8596
   83MOL   H20929893   0.795   7.144   3.447  0.9800 -0.4417 -0.0592
   83MOL   H21029894   0.804   7.240   3.595  2.8192  1.2132 -0.9592
   83MOL   H21129895   0.954   7.393   3.520 -1.4874  0.7601  1.0051
   83MOL   H21229896   0.949   7.325   3.352 -2.0372  0.3448 -0.2015
   83MOL   H21329897   1.045   7.112   3.452 -0.6638 -0.8992  1.8047
   83MOL   H21429898   1.053   7.185   3.614  3.3207  1.4349 -0.2902
   83MOL   H21529899   1.187   7.334   3.374  1.0028 -0.0116  0.6379
   83MOL   H21629900   1.272   7.273   3.513 -0.1116  1.1096  0.9656
   83MOL   H21729901   1.239   7.172   3.392  2.1029 -0.2480  0.0193
   83MOL   C21829902   0.557   7.256   3.400 -0.1361 -0.1531  0.6301
   83MOL   C21929903   0.563   7.140   3.295 -0.0400 -0.2502  0.2055
   83MOL   C22029904   0.640   7.170   3.162 -0.2300 -0.0800 -0.3982
   83MOL   C22129905   0.581   7.302   3.090 -0.1411 -0.2055 -0.7499
   83MOL   C22229906   0.669   7.356   2.977  0.3970 -0.1049  0.5206
   83MOL   C22329907   0.705   7.244   2.869 -0.4264 -0.5360  0.8561
   83MOL   H22429908   0.514   7.217   3.492  1.0497 -1.9985  0.4348
   83MOL   H22529909   0.488   7.324   3.350  0.0356  0.3079  1.0184
   83MOL   H22629910   0.630   7.069   3.344 -0.2075 -1.4571 -1.2660
   83MOL   H22729911   0.631   7.087   3.091  0.2146  0.9598 -1.6813
   83MOL   H22829912   0.742   7.180   3.198 -0.3595 -0.0017 -0.0467
   83MOL   H22929913   0.572   7.380   3.166  1.4590 -2.1516  1.5061
   83MOL   H23029914   0.479   7.292   3.052 -0.2350  0.2420 -0.6161
   83MOL   H23129915   0.616   7.437   2.927  0.4422  1.0373  2.2494
   83MOL   H23229916   0.762   7.396   3.019  0.5453 -0.5646  0.6312
   83MOL   H23329917   0.782   7.175   2.902  2.2645  2.7216  1.7155
   83MOL   H23429918   0.739   7.299   2.782  0.6602 -0.2484  1.4514
   83MOL   H23529919   0.621   7.187   2.830  1.0329 -1.4249 -1.0110
   83MOL   C23629920   0.424   7.061   3.286 -0.0055  0.2784 -0.5006
   83MOL   C23729921   0.426   6.921   3.222  0.0670 -0.8793  0.7029
   83MOL   C23829922   0.287   6.867   3.203 -0.0331 -0.5744 -0.3232
   83MOL   C23929923   0.213   6.818   3.330 -0.0167 -0.4689  0.5013
   83MOL   C24029924   0.061   6.805   3.310  0.3802 -0.3153 -0.1111
   83MOL   C24129925   0.023   6.707   3.203  0.6277 -0.6574 -0.5982
   83MOL   H24229926   0.387   7.049   3.388  0.9911  0.8526 -0.0653
   83MOL   H24329927   0.361   7.129   3.229 -0.9396  0.4528  0.7174
   83MOL   H24429928   0.469   6.928   3.122  0.9711  2.4988  1.2672
   83MOL   H24529929   0.232   6.951   3.160  0.0775  0.4236  1.4439
   83MOL   H24629930   0.281   6.785   3.131 -0.2842  0.1482 -1.1375
   83MOL   H24729931   0.232   6.885   3.413  1.3203 -1.7253  1.2307
   83MOL   H24829932   0.245   6.717   3.355  0.0056 -0.6705 -0.3084
   83MOL   H24929933   0.012   6.771   3.402  1.3076  0.2643  0.6076
   83MOL   H25029934   0.019   6.904   3.293 -0.8247 -1.0949 -1.8820
   83MOL   H25129935   7.647   6.673   3.212  0.6315 -1.3658 -2.8921
   83MOL   H25229936   0.049   6.748   3.105  0.9218  1.7108  0.4602
   83MOL   H25329937   0.084   6.616   3.208  0.2428 -0.8181  1.4257
   83MOL   C25429938   0.512   6.827   3.308 -0.6314  0.9362  0.3139
   83MOL   C25529939   0.564   6.702   3.226 -0.2125  0.0508  0.1248
   83MOL   C25629940   0.613   6.593   3.320 -0.4841  0.0363  0.4148
   83MOL   C25729941   0.500   6.529   3.410  0.9965 -0.8502  0.3139
   83MOL   C25829942   0.397   6.448   3.326 -0.6102  0.5397  0.0195
   83MOL   C25929943   0.293   6.372   3.412  0.1877  0.0660 -1.0894
   83MOL   H26029944   0.455   6.799   3.396 -0.4695  0.6885  0.3411
   83MOL   H26129945   0.605   6.872   3.342  0.8923 -3.2707  2.0043
   83MOL   H26229946   0.484   6.660   3.166 -0.0802  0.0604 -0.0598
   83MOL   H26329947   0.653   6.513   3.257  1.4761 -0.8356  2.7248
   83MOL   H26429948   0.688   6.630   3.389 -1.4312  1.2599  0.8030
   83MOL   H26529949   0.542   6.456   3.479  1.0953 -0.9378  0.1597
   83MOL   H26629950   0.437   6.600   3.464  1.0113  1.6437 -2.7701
   83MOL   H26729951   0.454   6.384   3.258 -0.8326  2.5891 -2.1580
   83MOL   H26829952   0.339   6.511   3.259  0.5693  1.1534 -0.4461
   83MOL   H26929953   0.241   6.300   3.348  1.5595 -1.2461 -0.7506
   83MOL   H27029954   0.218   6.438   3.455  1.0445 -0.7216  1.7135
   83MOL   H27129955   0.348   6.320   3.490 -0.8964 -2.2992 -1.8509
   83MOL   C27229956   0.676   6.744   3.128 -0.0969  0.1884  0.2090
   83MOL   C27329957   0.656   6.690   2.983 -0.2234 -0.3647  0.7895
   83MOL   C27429958   0.702   6.539   2.964 -0.0979 -0.6170  0.2835
   83MOL   C27529959   0.579   6.445   2.943  0.0418 -0.4010 -0.0578
   83MOL   C27629960   0.614   6.288   2.931  0.1313  0.3590  0.6307
   83MOL   C27729961   0.504   6.202   2.863 -0.2654 -0.9990 -0.4693
   83MOL   H27829962   0.676   6.852   3.134 -0.9938  0.3804 -2.6471
   83MOL   H27929963   0.778   6.713   3.154 -0.8175 -1.5943  1.0678
   83MOL   H28029964   0.550   6.696   2.959 -0.3199  1.2364  1.5042
   83MOL   H28129965   0.766   6.514   3.049  1.0900  0.3796 -0.3084
   83MOL   H28229966   0.760   6.530   2.872 -3.7257  0.3274 -2.1963
   83MOL   H28329967   0.522   6.465   2.852  0.4706 -1.4116 -0.5661
   83MOL   H28429968   0.515   6.468   3.028  0.0924  0.7044 -0.3112
   83MOL   H28529969   0.704   6.274   2.871 -1.0564 -3.0937 -0.4618
   83MOL   H28629970   0.631   6.247   3.030  1.6838  0.1288  0.2891
   83MOL   H28729971   0.544   6.101   2.870  2.6378  0.1810  0.9677
   83MOL   H28829972   0.414   6.192   2.924 -0.7458  0.0373 -0.9902
   83MOL   H28929973   0.494   6.228   2.758  2.3129  0.4467 -0.3929
   83MOL   C29029974   0.716   6.798   2.880  0.3172  0.3176 -0.3019
   83MOL   C29129975   0.658   6.798   2.732  0.5631  0.3727  0.0925
   83MOL   C29229976   0.703   6.919   2.656  0.2157  0.0634 -0.3926
   83MOL   C29329977   0.852   6.950   2.633 -0.6678 -0.0516 -0.3866
   83MOL   C29429978   0.865   7.057   2.523  0.2175 -0.3038 -0.3497
   83MOL   C29529979   1.000   7.120   2.514 -0.4207  0.2432 -0.3310
   83MOL   H29629980   0.825   6.799   2.884  0.2647  0.3008  1.3861
   83MOL   H29729981   0.693   6.898   2.917 -0.6878 -0.2421  0.6023
   83MOL   H29829982   0.549   6.801   2.733  0.5629  0.2371  1.3749
   83MOL   H29929983   0.652   6.999   2.709 -1.2276 -2.5478  2.3497
   83MOL   H30029984   0.664   6.914   2.554  0.2165 -1.8816 -0.3223
   83MOL   H30129985   0.903   6.979   2.725  0.0029  2.1801 -1.4197
   83MOL   H30229986   0.902   6.861   2.595 -0.5044  0.4111 -1.2660
   83MOL   H30329987   0.783   7.124   2.550  0.2456  0.3018 -1.7765
   83MOL   H30429988   0.851   7.014   2.424  3.2919 -2.6576  0.1602
   83MOL   H30529989   1.076   7.047   2.485 -0.8198 -1.0434  1.7571
   83MOL   H30629990   1.028   7.151   2.614 -0.3716 -0.3390 -0.1612
   83MOL   H30729991   0.996   7.211   2.455 -0.3369  0.5168  0.0904
   83MOL   C30829992   0.691   6.666   2.654 -0.2638  0.3070 -0.1833
   83MOL   C30929993   0.643   6.667   2.506  0.4930  0.2192 -0.9657
   83MOL   C31029994   0.490   6.689   2.476 -0.5843 -0.0744  0.2190
   83MOL   C31129995   0.402   6.572   2.522  0.1904 -0.1683  0.3519
   83MOL   C31229996   0.255   6.601   2.501 -0.2738 -0.2541  0.0416
   83MOL   C31329997   0.166   6.497   2.569 -0.1292  0.2617  0.0980
   83MOL   H31429998   0.799   6.654   2.663 -0.3190 -0.1974 -0.2178
   83MOL   H31529999   0.646   6.584   2.709 -2.0987  0.7439 -1.0125
   83MOL   H31630000   0.694   6.745   2.450  0.3897  0.0525 -1.2999
   83MOL   H31730001   0.465   6.688   2.369  2.7348  0.4225 -0.6023
   83MOL   H31830002   0.458   6.778   2.530 -1.4974 -0.5213  0.4215
   83MOL   H31930003   0.428   6.568   2.628  1.1109 -1.7403  0.0897
   83MOL   H32030004   0.432   6.483   2.466 -2.0235 -0.7175 -0.0103
   83MOL   H32130005   0.235   6.703   2.533  0.1462  0.3896 -1.7295
   83MOL   H32230006   0.238   6.592   2.394  0.1616  0.5134 -0.0921
   83MOL   H32330007   0.205   6.484   2.669  0.3749 -0.2086 -0.1561
   83MOL   H32430008   0.181   6.402   2.517  0.7446  0.8998 -0.8480
   83MOL   H32530009   0.063   6.533   2.562  0.0337  1.1346  2.0425
   83MOL   C32630010   0.703   6.535   2.442  0.2046 -0.4525  0.5349
   83MOL   C32730011   0.855   6.515   2.427  0.1930  0.2895 -0.1429
   83MOL   C32830012   0.887   6.366   2.411 -0.2019  0.2125  0.9624
   83MOL   C32930013   0.868   6.274   2.531  0.3404 -0.2027  0.2132
   83MOL   C33030014   0.896   6.129   2.500  0.0033 -0.7851 -0.2637
   83MOL   C33130015   0.878   6.033   2.622  0.9475  0.5932 -0.2262
   83MOL   H33230016   0.644   6.514   2.353  0.0306  1.7453  0.1003
   83MOL   H33330017   0.670   6.455   2.509  1.6763 -0.4871  1.2659
   83MOL   H33430018   0.894   6.545   2.525 -1.1331  1.9145 -0.0823
   83MOL   H33530019   0.845   6.341   2.314  2.0630 -1.8385  0.4672
   83MOL   H33630020   0.994   6.352   2.394 -0.4573  2.0906 -2.6946
   83MOL   H33730021   0.766   6.276   2.569  0.2389 -0.4685 -0.0435
   83MOL   H33830022   0.939   6.288   2.612 -0.0424  1.0292  0.3436
   83MOL   H33930023   0.837   6.094   2.414 -0.9821  1.1513 -0.4113
   83MOL   H34030024   0.999   6.123   2.466  0.4077 -3.7594  1.3426
   83MOL   H34130025   0.950   6.055   2.701  1.1471 -0.3153 -0.1540
   83MOL   H34230026   0.913   5.938   2.583  1.7362  0.9632 -0.4315
   83MOL   H34330027   0.775   6.027   2.659  0.8071  0.0136 -0.7087
   83MOL   C34430028   0.930   6.588   2.323 -0.4731  0.4053 -0.3394
   83MOL   C34530029   0.864   6.596   2.183 -0.0952  0.1290 -0.4805
   83MOL   C34630030   0.932   6.674   2.078 -0.4629 -0.1538  0.1489
   83MOL   C34730031   1.036   6.607   1.988  0.3521 -0.9480 -0.5336
   83MOL   C34830032   1.098   6.697   1.877 -0.7541 -1.2794 -0.6517
   83MOL   C34930033   1.165   6.815   1.938 -0.3333 -0.2397 -0.0779
   83MOL   H35030034   0.958   6.687   2.359 -0.5689  0.9810 -1.8177
   83MOL   H35130035   1.029   6.541   2.316  0.2671  1.4205  2.4944
   83MOL   H35230036   0.769   6.646   2.200 -1.1478 -1.4829 -1.3997
   83MOL   H35330037   0.857   6.722   2.015  1.2704 -0.5310 -2.2269
   83MOL   H35430038   0.992   6.744   2.137 -1.0656  1.8386 -1.5657
   83MOL   H35530039   1.103   6.548   2.050 -1.4179 -1.4360  0.9507
   83MOL   H35630040   0.979   6.531   1.934 -0.9556 -0.4413  0.1228
   83MOL   H35730041   1.171   6.634   1.826  1.0137  0.4452 -0.3258
   83MOL   H35830042   1.022   6.726   1.805  1.3077  2.0226 -1.6051
   83MOL   H35930043   1.236   6.783   2.014  0.2423 -0.9420 -0.9002
   83MOL   H36030044   1.222   6.877   1.868 -0.8507 -1.2729 -1.4358
   83MOL   H36130045   1.097   6.878   1.996  0.5735  1.7381 -1.1122
   83MOL   H36230046   0.826   6.506   2.135  0.5070 -0.0331 -0.6560
   84MOL     C130047   6.029   3.715   0.883  0.0255  0.2655 -0.2256
   84MOL     C230048   6.165   3.670   0.834 -0.0229 -0.5763  0.1116
   84MOL     C330049   6.232   3.567   0.928 -0.3948  0.1272 -0.2181
   84MOL     C430050   6.141   3.451   0.985  0.2018  0.7028  0.2529
   84MOL     C530051   6.219   3.364   1.081 -0.4415  0.8832  0.5611
   84MOL     C630052   6.231   3.424   1.223  0.9701 -0.7485  0.3815
   84MOL     H730053   5.979   3.795   0.829 -2.0359 -0.5664  0.4320
   84MOL     H830054   5.960   3.631   0.874 -0.5133  0.6743  0.1262
   84MOL     H930055   6.139   3.617   0.742 -1.6080  2.3594 -1.2024
   84MOL    H1030056   6.284   3.624   1.005 -4.8103 -0.3125  3.3115
   84MOL    H1130057   6.304   3.515   0.865  0.6159  0.4210  0.6727
   84MOL    H1230058   6.105   3.390   0.902  0.0419  0.1912  0.6988
   84MOL    H1330059   6.053   3.498   1.029 -0.6439 -0.3472 -0.2863
   84MOL    H1430060   6.173   3.265   1.082 -0.3138  0.8223  2.0569
   84MOL    H1530061   6.319   3.354   1.039  0.6210  0.8839  3.0091
   84MOL    H1630062   6.289   3.516   1.212 -1.9834  0.9661 -1.3769
   84MOL    H1730063   6.276   3.350   1.289 -0.4390  0.6784  3.0115
   84MOL    H1830064   6.133   3.446   1.263  0.5272 -0.8919 -0.5995
   84MOL    H1930065   6.034   3.737   0.990  1.6849 -0.7458 -0.0713
   84MOL    C2030066   6.248   3.797   0.791  0.3289 -0.0871 -0.6053
   84MOL    C2130067   6.390   3.774   0.734  0.1921  0.6636  0.0538
   84MOL    C2230068   6.389   3.723   0.589  0.2661 -0.0330  0.3722
   84MOL    C2330069   6.521   3.659   0.532  0.7777 -0.3358  0.1338
   84MOL    C2430070   6.512   3.612   0.382  0.2403 -0.0031 -0.4037
   84MOL    C2530071   6.655   3.569   0.338  0.2510 -0.5992  0.3207
   84MOL    H2630072   6.250   3.869   0.873  1.8661  0.1118 -0.8002
   84MOL    H2730073   6.186   3.845   0.715 -0.9368 -0.5102  0.1514
   84MOL    H2830074   6.440   3.694   0.790 -1.4262 -1.0280 -0.8725
   84MOL    H2930075   6.350   3.803   0.526 -3.0166 -1.2096  0.8578
   84MOL    H3030076   6.312   3.647   0.582  0.0344  0.0035  2.2786
   84MOL    H3130077   6.540   3.565   0.584  2.5368 -1.1954 -2.0201
   84MOL    H3230078   6.605   3.726   0.547  3.1671 -2.3616 -3.6279
   84MOL    H3330079   6.445   3.528   0.366  2.0912 -1.3807 -1.1754
   84MOL    H3430080   6.492   3.693   0.313 -0.6809 -2.3729 -3.0280
   84MOL    H3530081   6.723   3.654   0.340 -0.8571  0.3010 -0.0747
   84MOL    H3630082   6.699   3.483   0.388  0.6498  0.7012  2.2737
   84MOL    H3730083   6.638   3.542   0.234  0.7908  0.4368 -0.0395
   84MOL    C3830084   6.482   3.900   0.748 -0.7673  0.4604 -0.5079
   84MOL    C3930085   6.547   3.927   0.889  0.0749 -0.5032  0.1190
   84MOL    C4030086   6.642   3.814   0.925 -0.0418 -0.5333  0.2904
   84MOL    C4130087   6.620   3.740   1.060 -0.3159  0.2201  0.2771
   84MOL    C4230088   6.688   3.596   1.066  0.5629 -0.2947 -0.2777
   84MOL    C4330089   6.653   3.517   1.185  0.3437 -0.3395  0.6036
   84MOL    H4430090   6.417   3.981   0.715 -2.9071 -0.4078  1.4858
   84MOL    H4530091   6.555   3.885   0.668  1.6881  0.5808  1.6121
   84MOL    H4630092   6.472   3.939   0.967 -0.7872 -1.7089 -0.5059
   84MOL    H4730093   6.644   3.736   0.848 -1.6386 -1.7862  1.4942
   84MOL    H4830094   6.746   3.849   0.927 -0.1426 -0.2027 -0.1582
   84MOL    H4930095   6.661   3.796   1.144  1.0742  1.1714 -1.0060
   84MOL    H5030096   6.515   3.718   1.080 -0.6848  0.5345 -1.2797
   84MOL    H5130097   6.658   3.537   0.980 -0.5338  2.7128 -2.0240
   84MOL    H5230098   6.796   3.612   1.055  0.1814  1.6962 -1.2653
   84MOL    H5330099   6.709   3.425   1.177  0.5485 -0.1255 -0.4328
   84MOL    H5430100   6.546   3.499   1.174  0.0989  2.6727 -2.9566
   84MOL    H5530101   6.673   3.568   1.280  2.3220 -0.6380  0.3656
   84MOL    C5630102   6.609   4.058   0.887 -0.0313 -0.3896  0.2744
   84MOL    C5730103   6.675   4.110   1.015  0.5573  0.5430 -0.2067
   84MOL    C5830104   6.587   4.102   1.143 -0.7972  0.0583 -0.2722
   84MOL    C5930105   6.473   4.203   1.152 -0.0851 -0.5262 -0.1688
   84MOL    C6030106   6.418   4.227   1.295  0.3576  0.6498 -0.3576
   84MOL    C6130107   6.267   4.263   1.280 -0.5958 -0.3207  0.9908
   84MOL    H6230108   6.686   4.065   0.810  1.4764  0.3007  1.8000
   84MOL    H6330109   6.534   4.133   0.863  0.3650 -0.4058 -1.0521
   84MOL    H6430110   6.763   4.050   1.039  0.4451  0.1126 -0.8708
   84MOL    H6530111   6.547   4.002   1.159  1.2041 -0.5978  0.9116
   84MOL    H6630112   6.653   4.123   1.227 -0.9340 -0.0683 -0.1324
   84MOL    H6730113   6.393   4.169   1.086 -1.7132  1.4231  0.7467
   84MOL    H6830114   6.516   4.295   1.113  0.4545 -1.0953 -0.9261
   84MOL    H6930115   6.438   4.148   1.367 -0.2021  1.5942  0.8398
   84MOL    H7030116   6.458   4.320   1.334 -1.1976  1.3624 -0.3999
   84MOL    H7130117   6.214   4.174   1.245 -1.7958  0.7622 -0.0206
   84MOL    H7230118   6.220   4.302   1.370 -1.4113  1.0508 -0.0046
   84MOL    H7330119   6.260   4.332   1.196  0.7458  0.1181  1.2272
   84MOL    C7430120   6.734   4.252   0.994  0.8957  0.5532  0.1773
   84MOL    C7530121   6.872   4.252   0.926  0.0005 -0.0303 -0.4946
   84MOL    C7630122   6.893   4.382   0.840  0.8899  0.5594 -0.6626
   84MOL    C7730123   6.809   4.381   0.714 -0.2632  0.2186 -0.4362
   84MOL    C7830124   6.886   4.456   0.594  0.5431 -0.5034 -0.0329
   84MOL    C7930125   6.973   4.357   0.506  0.0702  0.7260  0.5610
   84MOL    H8030126   6.662   4.301   0.928 -1.3751 -4.7564 -1.6125
   84MOL    H8130127   6.732   4.310   1.086 -0.4241  1.5788 -0.4715
   84MOL    H8230128   6.879   4.167   0.858  0.3268 -0.2873 -0.1404
   84MOL    H8330129   6.886   4.477   0.893  0.6462 -0.5380  1.3160
   84MOL    H8430130   6.992   4.379   0.796  0.0519  0.0586 -2.5609
   84MOL    H8530131   6.767   4.282   0.696 -0.6321  0.1295  0.9044
   84MOL    H8630132   6.723   4.440   0.743 -0.6232 -1.2251  1.4953
   84MOL    H8730133   6.946   4.537   0.635  2.1858  0.1742 -3.5973
   84MOL    H8830134   6.809   4.499   0.530  0.7507 -0.7857 -0.4678
   84MOL    H8930135   6.917   4.273   0.465  2.2665 -0.2160 -0.5624
   84MOL    H9030136   7.021   4.403   0.420 -1.0391  0.5413 -0.1635
   84MOL    H9130137   7.050   4.308   0.567 -0.4223 -0.3539  0.3330
   84MOL    C9230138   6.975   4.233   1.043  0.7849  0.4961 -1.1370
   84MOL    C9330139   7.090   4.130   1.015  0.4645 -0.1667 -0.8857
   84MOL    C9430140   7.171   4.149   0.887 -0.5737  0.5925  0.3374
   84MOL    C9530141   7.266   4.278   0.891  0.3270  0.4363 -0.4823
   84MOL    C9630142   7.320   4.294   0.751 -0.2205 -0.1059 -0.1846
   84MOL    C9730143   7.452   4.377   0.745 -0.1418 -0.0999  0.6713
   84MOL    H9830144   7.018   4.324   1.085  1.3051 -0.0166 -0.5426
   84MOL    H9930145   6.922   4.195   1.131  0.9029  0.2955 -1.1515
   84MOL   H10030146   7.042   4.034   0.997 -2.3997  1.0511 -0.0479
   84MOL   H10130147   7.096   4.158   0.808 -1.1717 -0.3411  0.7915
   84MOL   H10230148   7.233   4.060   0.873 -1.3120 -0.3445  2.7030
   84MOL   H10330149   7.206   4.364   0.920 -1.3670 -0.1905 -1.9917
   84MOL   H10430150   7.348   4.269   0.962  0.1043 -2.0251 -0.4831
   84MOL   H10530151   7.337   4.196   0.707  0.5002  0.0747 -0.3223
   84MOL   H10630152   7.240   4.330   0.687 -0.8113  0.3357  0.7857
   84MOL   H10730153   7.437   4.472   0.798 -1.1808  0.2849 -0.2994
   84MOL   H10830154   7.540   4.331   0.792  0.2951 -0.3895 -0.4200
   84MOL   H10930155   7.484   4.408   0.646 -1.7662 -0.3188  0.0777
   84MOL   C11030156   7.184   4.140   1.135  0.5371  0.3154 -0.1293
   84MOL   C11130157   7.153   4.050   1.264  0.2337 -0.3353  0.1790
   84MOL   C11230158   7.219   4.102   1.395 -0.3979 -1.0195 -0.0729
   84MOL   C11330159   7.173   4.245   1.434 -0.3873 -0.2570  0.1270
   84MOL   C11430160   7.016   4.270   1.437 -0.2542 -0.2791 -0.7085
   84MOL   C11530161   6.992   4.415   1.499 -0.1868 -0.4519  0.3079
   84MOL   H11630162   7.280   4.101   1.100  0.4910  0.4004 -0.3443
   84MOL   H11730163   7.199   4.243   1.169 -0.0793  0.1277  0.7247
   84MOL   H11830164   7.045   4.048   1.278  0.4159 -3.8743  1.5395
   84MOL   H11930165   7.327   4.082   1.395 -0.4496 -1.3474 -0.7294
   84MOL   H12030166   7.190   4.043   1.482  1.2141 -1.3853  0.2371
   84MOL   H12130167   7.221   4.320   1.371 -0.6854 -0.3151 -0.1716
   84MOL   H12230168   7.216   4.255   1.534  0.3163  1.0601 -0.2873
   84MOL   H12330169   6.967   4.187   1.488  0.7110  0.2438  1.1259
   84MOL   H12430170   6.970   4.263   1.339 -0.4236 -0.1831 -0.6366
   84MOL   H12530171   6.885   4.436   1.499 -0.1762 -0.2524  2.9595
   84MOL   H12630172   7.029   4.402   1.601 -0.4020  2.0946  0.7467
   84MOL   H12730173   7.048   4.491   1.445 -1.2253 -0.5753 -0.9489
   84MOL   C12830174   7.185   3.900   1.232 -0.0820 -0.0015  0.3110
   84MOL   C12930175   7.068   3.810   1.191 -0.0673 -0.3956 -0.6705
   84MOL   C13030176   7.001   3.747   1.308 -0.0762  0.5567  0.1234
   84MOL   C13130177   6.921   3.842   1.400 -0.2809 -0.0285 -0.1129
   84MOL   C13230178   6.855   3.787   1.524 -0.2673 -0.2930 -0.4489
   84MOL   C13330179   6.963   3.742   1.638 -0.1181  0.3088  0.0117
   84MOL   H13430180   7.227   3.855   1.322  0.7716 -0.9142 -0.5283
   84MOL   H13530181   7.272   3.898   1.166 -0.3220  1.4191 -0.0774
   84MOL   H13630182   6.989   3.861   1.136 -0.3619  0.8439  0.8982
   84MOL   H13730183   6.937   3.666   1.273 -1.1505 -0.2880  3.8071
   84MOL   H13830184   7.074   3.696   1.371  1.0084  0.3110 -1.3126
   84MOL   H13930185   6.841   3.883   1.338  0.1422 -1.1106 -1.3956
   84MOL   H14030186   6.988   3.925   1.423  0.5338 -0.0824 -2.1637
   84MOL   H14130187   6.784   3.863   1.554  1.2218  0.4294  1.3377
   84MOL   H14230188   6.796   3.697   1.505 -0.8343  0.0000 -0.0896
   84MOL   H14330189   7.004   3.826   1.693  1.8207 -0.4208 -0.2901
   84MOL   H14430190   7.047   3.686   1.596 -0.0298  0.3789  0.0967
   84MOL   H14530191   6.912   3.668   1.700 -0.5460  1.5452  1.1567
   84MOL   C14630192   7.134   3.699   1.103 -0.5001 -0.0172  0.2055
   84MOL   C14730193   7.162   3.734   0.956  0.2696  0.4232 -0.2192
   84MOL   C14830194   7.030   3.748   0.866 -0.5344  0.1327 -0.9439
   84MOL   C14930195   7.035   3.831   0.740 -0.2173  0.2661  0.2668
   84MOL   C15030196   6.902   3.874   0.677 -0.1614 -0.6881  0.6467
   84MOL   C15130197   6.909   3.917   0.523 -0.1072 -0.5175  0.0705
   84MOL   H15230198   7.231   3.669   1.143 -0.2838 -0.7342 -0.8350
   84MOL   H15330199   7.076   3.607   1.097  0.7765 -0.7524 -1.3404
   84MOL   H15430200   7.212   3.831   0.952  1.8204 -0.3282  0.3689
   84MOL   H15530201   6.949   3.784   0.929 -0.3536  0.2874 -0.7959
   84MOL   H15630202   6.994   3.649   0.838  3.9595 -1.6397 -0.9265
   84MOL   H15730203   7.103   3.916   0.735 -1.6160  1.3078 -1.9237
   84MOL   H15830204   7.091   3.772   0.667  2.0360  1.0700  1.2901
   84MOL   H15930205   6.865   3.958   0.735 -0.7029 -1.7997  1.9438
   84MOL   H16030206   6.821   3.801   0.681 -0.4601 -0.4445 -0.7022
   84MOL   H16130207   6.985   3.993   0.506 -0.5149  0.0486  0.7733
   84MOL   H16230208   6.939   3.843   0.449  1.1070 -0.5976  0.6278
   84MOL   H16330209   6.811   3.956   0.498 -0.2821 -1.2135 -0.3573
   84MOL   C16430210   7.252   3.627   0.887  0.3725 -0.8249  0.4600
   84MOL   C16530211   7.410   3.651   0.899  0.1687  0.4774  0.3205
   84MOL   C16630212   7.481   3.514   0.881 -0.3427 -0.9348  0.1440
   84MOL   C16730213   7.473   3.433   1.014  0.3558 -0.1932 -0.5858
   84MOL   C16830214   7.507   3.284   1.003 -0.2966  0.1884  0.2361
   84MOL   C16930215   7.650   3.242   0.969  0.2360 -0.4761  0.4996
   84MOL   H17030216   7.223   3.528   0.923 -3.1490 -0.8542 -2.1630
   84MOL   H17130217   7.241   3.625   0.779 -0.2866 -1.0539  0.5285
   84MOL   H17230218   7.440   3.700   0.992 -2.2910  2.0403  0.3341
   84MOL   H17330219   7.587   3.531   0.863 -0.3306  0.3475  1.3358
   84MOL   H17430220   7.440   3.454   0.799  0.4356  1.4670 -2.0580
   84MOL   H17530221   7.373   3.440   1.057  0.1018  2.1538 -1.5256
   84MOL   H17630222   7.536   3.484   1.087 -0.5373 -1.0093  0.7862
   84MOL   H17730223   7.436   3.248   0.929 -0.0552 -0.3903  0.2809
   84MOL   H17830224   7.476   3.234   1.095 -1.1352 -1.0212 -0.6853
   84MOL   H17930225   7.702   3.304   0.897 -1.0677 -0.6567 -0.6326
   84MOL   H18030226   7.669   3.135   0.959  0.7488 -0.3460  0.0937
   84MOL   H18130227   7.713   3.261   1.055  1.7127  0.5140 -0.7828
   84MOL   C18230228   7.436   3.763   0.794  0.1486 -0.3220 -0.2232
   84MOL   C18330229   7.593   3.810   0.783  0.6299 -1.1831 -0.0300
   84MOL   C18430230   7.641   3.890   0.910 -0.1781 -0.6136 -0.2914
   84MOL   C18530231   7.562   4.027   0.941  0.3586  0.4792 -0.4543
   84MOL   C18630232   7.624   4.112   1.058 -0.0158  0.2308 -0.5939
   84MOL   C18730233   7.586   4.056   1.198 -0.0139 -0.1053  0.3462
   84MOL   H18830234   7.424   3.709   0.700 -2.6099 -3.3123  1.7544
   84MOL   H18930235   7.374   3.853   0.790  0.6881  0.1442  1.6592
   84MOL   H19030236   7.655   3.721   0.773  1.4522 -0.5901 -0.1925
   84MOL   H19130237   7.640   3.824   0.997  0.7306 -0.9026 -0.4890
   84MOL   H19230238   0.019   3.915   0.893 -0.0579 -0.4342  0.6742
   84MOL   H19330239   7.458   3.999   0.957  0.2040 -0.1034 -2.3255
   84MOL   H19430240   7.558   4.096   0.856 -0.2639 -1.0501 -1.6980
   84MOL   H19530241   7.569   4.206   1.051  0.9389  0.7915 -0.6804
   84MOL   H19630242   0.005   4.118   1.046 -0.1934  1.5017 -1.6162
   84MOL   H19730243   7.653   3.971   1.212 -1.1793 -0.9410  0.8649
   84MOL   H19830244   7.487   4.013   1.194 -0.8413  1.6468  1.4772
   84MOL   H19930245   7.604   4.131   1.275 -1.6931  1.4142 -0.6963
   84MOL   C20030246   7.614   3.887   0.649 -0.7939  0.6477  0.3630
   84MOL   C20130247   0.033   3.927   0.612 -0.0534  0.3576 -0.6297
   84MOL   C20230248   0.125   3.807   0.568  0.3861 -0.4380  0.6045
   84MOL   C20330249   0.089   3.728   0.444  0.3645  0.4798  0.2961
   84MOL   C20430250   0.193   3.627   0.397  0.8500 -0.1882  0.4798
   84MOL   C20530251   0.141   3.521   0.303  0.0699 -0.6109  0.6460
   84MOL   H20630252   7.561   3.981   0.664 -1.7968 -0.0169  0.9905
   84MOL   H20730253   7.573   3.834   0.564  1.1290  0.1472 -0.2925
   84MOL   H20830254   0.069   3.969   0.706 -0.2571 -2.9353  1.0237
   84MOL   H20930255   0.128   3.738   0.653 -0.4324  0.1669  1.1275
   84MOL   H21030256   0.228   3.837   0.547  0.5196 -2.8671 -2.6026
   84MOL   H21130257   0.082   3.797   0.359  2.3610  0.5563  0.1753
   84MOL   H21230258   7.717   3.684   0.441  1.1667 -1.4611  1.3411
   84MOL   H21330259   0.228   3.576   0.487  1.1686 -0.8731 -0.0338
   84MOL   H21430260   0.284   3.679   0.369  1.7528 -3.4299 -2.9780
   84MOL   H21530261   0.093   3.439   0.357 -0.5946 -0.7815 -0.1894
   84MOL   H21630262   0.078   3.566   0.227 -1.3447 -2.7488  0.5228
   84MOL   H21730263   0.224   3.478   0.248 -1.2977 -0.7250 -1.3750
   84MOL   C21830264   0.042   4.041   0.514  0.2367  0.0220  0.1097
   84MOL   C21930265   0.009   4.185   0.553 -0.2925  0.4590  0.6382
   84MOL   C22030266   0.022   4.291   0.444  0.4183 -0.6059  0.3384
   84MOL   C22130267   7.645   4.267   0.326 -0.3066 -1.0878 -1.0058
   84MOL   C22230268   7.656   4.374   0.218  0.0751  0.8260  0.1944
   84MOL   C22330269   7.553   4.347   0.101 -0.0658 -0.4022  0.4656
   84MOL   H22430270   0.143   4.045   0.471 -0.2513  0.4839 -1.0136
   84MOL   H22530271   7.712   4.013   0.426  2.2213 -0.6851 -1.0064
   84MOL   H22630272   7.634   4.188   0.591 -1.5586 -1.2101 -2.4512
   84MOL   H22730273   0.127   4.290   0.414 -0.2351  1.1786 -2.1991
   84MOL   H22830274   7.721   4.386   0.489 -1.0513 -0.7252 -0.2909
   84MOL   H22930275   7.545   4.245   0.366 -0.1745 -0.3810 -0.2798
   84MOL   H23030276   7.682   4.178   0.275  1.1570 -0.6394 -0.7321
   84MOL   H23130277   7.640   4.470   0.268 -0.1119  0.1161  1.5158
   84MOL   H23230278   0.025   4.368   0.166 -1.1661 -0.0334 -2.0345
   84MOL   H23330279   7.466   4.293   0.138  1.1795 -0.9610  2.7218
   84MOL   H23430280   7.599   4.280   0.028 -0.8643 -0.0747 -0.3402
   84MOL   H23530281   7.512   4.437   0.057  1.6228  0.2560  0.1838
   84MOL   C23630282   0.082   4.231   0.676  0.2153 -0.1598  0.2645
   84MOL   C23730283   0.237   4.248   0.681  0.1694  0.4017  0.4727
   84MOL   C23830284   0.310   4.122   0.743 -0.0013 -0.2798 -0.1222
   84MOL   C23930285   0.287   4.096   0.893 -0.4401 -0.2723 -0.6138
   84MOL   C24030286   0.305   3.947   0.933 -0.4983  1.2304 -0.0435
   84MOL   C24130287   0.289   3.929   1.084  0.6709 -0.1988  0.2621
   84MOL   H24230288   0.037   4.328   0.700  0.8376  1.1013 -3.3439
   84MOL   H24330289   0.044   4.178   0.763 -1.9075 -1.3008 -1.3036
   84MOL   H24430290   0.276   4.257   0.580  2.9302 -2.2989  1.2333
   84MOL   H24530291   0.268   4.039   0.687  2.2714 -2.7047  1.6734
   84MOL   H24630292   0.418   4.119   0.731  0.2405 -0.8596  2.0077
   84MOL   H24730293   0.185   4.114   0.927  0.9502  1.6162  2.7606
   84MOL   H24830294   0.349   4.159   0.957 -0.9130  0.7243 -1.1265
   84MOL   H24930295   0.235   3.881   0.883  0.1634 -0.2783  0.9863
   84MOL   H25030296   0.406   3.914   0.909 -0.7491  1.7800 -1.8813
   84MOL   H25130297   0.185   3.947   1.112  0.6812 -0.6987  0.6249
   84MOL   H25230298   0.322   3.839   1.135  2.1149  0.5702  0.6973
   84MOL   H25330299   0.337   4.013   1.135  0.3189  0.2261 -0.1015
   84MOL   C25430300   0.280   4.378   0.738  0.6761 -0.3597 -0.2518
   84MOL   C25530301   0.252   4.506   0.656 -0.1742 -0.1392 -0.2580
   84MOL   C25630302   0.337   4.519   0.526  0.0470 -0.4985 -0.3715
   84MOL   C25730303   0.275   4.614   0.424  0.2578 -0.3132 -0.5085
   84MOL   C25830304   0.273   4.560   0.286  0.0869 -0.8140  0.1707
   84MOL   C25930305   0.217   4.658   0.179  0.4418 -0.3806  0.1340
   84MOL   H26030306   0.381   4.371   0.779  0.7109  2.1971  0.1366
   84MOL   H26130307   0.227   4.390   0.832 -0.4468 -0.7619 -0.8222
   84MOL   H26230308   0.147   4.501   0.628 -0.1710 -0.9195 -0.1586
   84MOL   H26330309   0.437   4.556   0.547  0.9893 -3.4049  0.5030
   84MOL   H26430310   0.346   4.424   0.474 -0.2843  0.7268 -2.7484
   84MOL   H26530311   0.176   4.644   0.458  1.1674  1.2916  0.8056
   84MOL   H26630312   0.329   4.708   0.424 -1.5821  0.7774 -1.0369
   84MOL   H26730313   0.203   4.477   0.283  0.2503 -0.9299 -0.5049
   84MOL   H26830314   0.375   4.532   0.262  0.6270  0.3276  1.0861
   84MOL   H26930315   0.218   4.600   0.087  0.4353 -0.3847  0.1365
   84MOL   H27030316   0.290   4.739   0.169  0.2191  0.0058  1.4716
   84MOL   H27130317   0.116   4.686   0.208 -0.1895 -0.3672 -1.9848
   84MOL   C27230318   0.258   4.633   0.743 -0.6759  0.3988  0.5330
   84MOL   C27330319   0.173   4.649   0.866 -0.0418  0.3241 -0.4825
   84MOL   C27430320   0.090   4.779   0.869  0.3747  0.4057  0.1296
   84MOL   C27530321   7.723   4.790   0.755  0.6875  0.1795  0.6298
   84MOL   C27630322   7.625   4.898   0.778  0.1835 -1.1143 -0.5309
   84MOL   C27730323   7.510   4.893   0.685  0.2534 -0.7661 -0.4189
   84MOL   H27830324   0.362   4.643   0.775  0.1273 -1.4761 -1.4042
   84MOL   H27930325   0.246   4.720   0.678  1.4302  1.5448  1.6337
   84MOL   H28030326   0.105   4.564   0.862  1.1975 -0.7982  1.1086
   84MOL   H28130327   0.155   4.866   0.877  1.1932 -0.2326  0.4960
   84MOL   H28230328   0.030   4.775   0.959 -0.5999  2.7504 -0.3877
   84MOL   H28330329   7.671   4.696   0.738 -1.6722  1.3948  0.8730
   84MOL   H28430330   0.042   4.806   0.658  0.5647 -2.8620  0.0344
   84MOL   H28530331   7.580   4.891   0.877 -1.7704  0.7344 -1.2471
   84MOL   H28630332   7.672   4.995   0.764 -0.7614 -0.2108  2.2503
   84MOL   H28730333   7.544   4.913   0.583  0.1197  0.0455 -0.3073
   84MOL   H28830334   7.453   4.801   0.688  0.4123 -0.8269  2.2304
   84MOL   H28930335   7.445   4.978   0.706 -1.2400 -1.8702 -0.5662
   84MOL   C29030336   0.254   4.637   0.995 -0.4487 -0.0737  0.0430
   84MOL   C29130337   0.176   4.605   1.127  0.9076 -0.1527  0.2233
   84MOL   C29230338   0.119   4.457   1.137 -0.2326  1.0855 -0.0329
   84MOL   C29330339   7.709   4.445   1.208 -0.6249 -0.1600 -0.6550
   84MOL   C29430340   7.578   4.492   1.134 -0.4483  0.0094 -0.2163
   84MOL   C29530341   7.453   4.423   1.197 -0.8839  0.3403  0.3545
   84MOL   H29630342   0.299   4.736   1.006  1.4694 -0.9668  0.5539
   84MOL   H29730343   0.320   4.551   0.984 -0.3745  0.0792 -0.7629
   84MOL   H29830344   0.085   4.666   1.129  0.3246 -1.0001 -0.3297
   84MOL   H29930345   0.180   4.391   1.198 -2.3623  1.1052  2.1985
   84MOL   H30030346   0.114   4.405   1.041  0.6039 -0.9894  1.0127
   84MOL   H30130347   7.689   4.340   1.227 -1.4095  0.0799 -0.0757
   84MOL   H30230348   7.712   4.489   1.308  0.2201 -0.4834 -0.5370
   84MOL   H30330349   7.573   4.453   1.033  0.8222 -0.6985 -0.0261
   84MOL   H30430350   7.561   4.599   1.146  2.1404  0.2157  2.3689
   84MOL   H30530351   7.456   4.314   1.200  0.0509  0.3920  1.5245
   84MOL   H30630352   7.359   4.468   1.164 -0.8218 -0.4886 -0.9723
   84MOL   H30730353   7.454   4.443   1.304 -2.5757  0.7370  0.3118
   84MOL   C30830354   0.253   4.641   1.251  0.5829 -0.4902  0.6739
   84MOL   C30930355   0.277   4.795   1.257 -0.0275 -0.4445 -0.2661
   84MOL   C31030356   0.429   4.836   1.249  0.3017 -0.3539  0.7968
   84MOL   C31130357   0.512   4.802   1.375 -0.4900 -0.6476  0.6824
   84MOL   C31230358   0.659   4.853   1.346 -0.1007  0.2069  0.4211
   84MOL   C31330359   0.748   4.776   1.248 -0.7075  0.6295  0.3119
   84MOL   H31430360   0.188   4.601   1.329 -1.4021  0.6851 -0.3106
   84MOL   H31530361   0.342   4.582   1.269  1.4092  0.2745 -0.8080
   84MOL   H31630362   0.220   4.851   1.182 -0.9737  0.3694  1.0474
   84MOL   H31730363   0.421   4.944   1.241  0.2000 -0.5242 -1.9500
   84MOL   H31830364   0.484   4.796   1.164  0.2983  0.9747  0.1555
   84MOL   H31930365   0.511   4.700   1.415 -0.7741 -1.4340 -1.3115
   84MOL   H32030366   0.478   4.865   1.457 -0.8882  0.3716 -0.2597
   84MOL   H32130367   0.655   4.957   1.313 -1.4986  1.1449  3.3684
   84MOL   H32230368   0.701   4.868   1.445 -0.6409  2.4512  0.3271
   84MOL   H32330369   0.832   4.843   1.229 -1.2310  0.8937 -1.1765
   84MOL   H32430370   0.693   4.751   1.157  0.6011  0.4573 -0.4451
   84MOL   H32530371   0.775   4.681   1.295  0.9328  0.8256 -0.2310
   84MOL   C32630372   0.218   4.857   1.395  0.2344  0.3304  0.5298
   84MOL   C32730373   0.069   4.835   1.436  1.1387 -0.2697  0.0194
   84MOL   C32830374   0.045   4.896   1.571 -0.1097  0.4064 -0.1460
   84MOL   C32930375   7.633   4.868   1.639  0.1727  0.8323 -0.0080
   84MOL   C33030376   7.627   4.915   1.783  0.2578 -0.2116  0.4794
   84MOL   C33130377   7.509   4.846   1.865  0.3386  0.1553  0.0417
   84MOL   H33230378   0.239   4.963   1.408 -0.3619  0.0877  3.8779
   84MOL   H33330379   0.277   4.805   1.471 -1.6808 -2.3942  0.2162
   84MOL   H33430380   0.044   4.729   1.432  0.2777 -0.0348 -1.0529
   84MOL   H33530381   0.123   4.850   1.631 -0.1177 -0.2019 -0.5951
   84MOL   H33630382   0.072   5.001   1.559 -1.7574  0.9913  0.9683
   84MOL   H33730383   7.621   4.760   1.637  2.2574  0.4514  3.2943
   84MOL   H33830384   7.556   4.917   1.579 -0.3392  0.1457  0.0883
   84MOL   H33930385   7.719   4.881   1.830  1.5030  1.1619 -0.9427
   84MOL   H34030386   7.623   5.023   1.794  1.0329 -0.1544  0.1845
   84MOL   H34130387   7.506   4.739   1.848 -0.3347  0.4179 -1.5146
   84MOL   H34230388   7.410   4.877   1.833  0.0150 -0.2577  0.6294
   84MOL   H34330389   7.525   4.866   1.971 -1.8883  0.1149  0.4086
   84MOL   C34430390   7.704   4.886   1.330  0.2104  0.3878 -0.1219
   84MOL   C34530391   7.716   5.033   1.300  0.6510 -0.2525 -0.6868
   84MOL   C34630392   7.604   5.085   1.205  0.6025  0.0698  0.0098
   84MOL   C34730393   7.597   5.233   1.203  0.0682  0.4621 -0.0203
   84MOL   C34830394   7.487   5.311   1.121  0.6357  0.7880 -0.2194
   84MOL   C34930395   7.337   5.274   1.154 -0.0663 -0.2307 -0.9704
   84MOL   H35030396   7.713   4.823   1.242  2.6008 -1.8039  1.6224
   84MOL   H35130397   7.600   4.864   1.356  0.8039  0.1307  2.1106
   84MOL   H35230398   0.088   5.049   1.256  0.0587  0.5222 -1.7452
   84MOL   H35330399   7.616   5.048   1.103  0.3064 -4.7535  1.5974
   84MOL   H35430400   7.505   5.062   1.245  0.3624  1.1438  0.0499
   84MOL   H35530401   7.588   5.261   1.308  0.9683 -0.8987  0.4218
   84MOL   H35630402   7.698   5.263   1.175  1.3053 -3.1648  0.3526
   84MOL   H35730403   7.508   5.418   1.128  2.5069  0.3846  0.7399
   84MOL   H35830404   7.507   5.298   1.015 -0.7388 -0.3662 -0.3418
   84MOL   H35930405   7.311   5.171   1.133  0.4256 -0.7509  0.8611
   84MOL   H36030406   7.337   5.300   1.260 -1.0904 -0.9503 -0.7897
   84MOL   H36130407   7.265   5.336   1.101 -2.4316 -2.2421 -0.1680
   84MOL   H36230408   7.712   5.066   1.404 -1.1224 -2.0869 -0.1463
   85MOL     C130409   6.280   0.821   4.344  0.0455 -0.4157  0.0396
   85MOL     C230410   6.206   0.693   4.384  0.0509 -0.4045  0.0440
   85MOL     C330411   6.298   0.570   4.417  0.2756 -0.0813 -0.0442
   85MOL     C430412   6.405   0.530   4.313 -0.7172 -0.8361 -0.1815
   85MOL     C530413   6.524   0.463   4.378 -0.1550 -0.0940 -0.9128
   85MOL     C630414   6.639   0.415   4.283  0.4987  0.5840 -0.0489
   85MOL     H730415   6.219   0.912   4.350 -0.2230 -0.5978  0.0807
   85MOL     H830416   6.376   0.841   4.391 -0.0182  0.4932 -0.2045
   85MOL     H930417   6.158   0.725   4.477 -0.4432 -1.4836  0.1633
   85MOL    H1030418   6.246   0.478   4.447  2.3875 -1.9482 -1.9109
   85MOL    H1130419   6.347   0.590   4.512  0.3769 -0.1903 -0.0726
   85MOL    H1230420   6.433   0.613   4.247 -0.5816 -1.0658 -0.4178
   85MOL    H1330421   6.360   0.453   4.250 -1.7299 -0.9983  0.7366
   85MOL    H1430422   6.558   0.533   4.454  1.4135 -0.4811 -1.2410
   85MOL    H1530423   6.489   0.378   4.438 -1.4239  0.2924 -1.0902
   85MOL    H1630424   6.619   0.323   4.227 -0.1713  1.1399 -0.7340
   85MOL    H1730425   6.717   0.395   4.356 -0.4181  1.5072  1.2073
   85MOL    H1830426   6.671   0.500   4.224  1.7727  1.2553  1.5636
   85MOL    H1930427   6.300   0.804   4.238  1.6061 -0.6513  0.3679
   85MOL    C2030428   6.096   0.635   4.285 -0.0211 -0.3319 -0.1717
   85MOL    C2130429   5.970   0.715   4.267 -0.6631 -0.6879 -0.2949
   85MOL    C2230430   5.971   0.799   4.129 -0.5023 -0.2018  0.2721
   85MOL    C2330431   5.878   0.925   4.129 -0.1486 -1.0150 -0.1719
   85MOL    C2430432   5.826   0.981   4.000 -0.0502 -0.5505 -0.4404
   85MOL    C2530433   5.747   1.115   4.021  0.5123  0.8727  0.8772
   85MOL    H2630434   6.077   0.535   4.324 -1.5078 -0.3841 -0.9700
   85MOL    H2730435   6.128   0.608   4.185  1.4919  1.7528 -0.2716
   85MOL    H2830436   5.964   0.796   4.340 -1.0781 -1.8164  0.9425
   85MOL    H2930437   5.955   0.736   4.041  0.0359  0.8204 -0.5766
   85MOL    H3030438   6.066   0.846   4.106 -0.6901  0.0060 -0.0885
   85MOL    H3130439   5.915   1.001   4.197 -1.5695 -1.1882  0.8368
   85MOL    H3230440   5.786   0.894   4.179 -1.2536 -0.6987 -1.9642
   85MOL    H3330441   5.915   1.003   3.940  0.2788 -0.3095  0.1328
   85MOL    H3430442   5.779   0.908   3.934 -1.3960 -0.0792 -0.0064
   85MOL    H3530443   5.658   1.098   4.081  0.9407 -0.6346  1.1073
   85MOL    H3630444   5.814   1.182   4.075  1.5801  0.0520  0.5931
   85MOL    H3730445   5.736   1.173   3.929 -1.3542 -1.4460 -0.4161
   85MOL    C3830446   5.842   0.639   4.292 -0.5200 -0.1137  0.7843
   85MOL    C3930447   5.821   0.580   4.433 -0.3526 -0.2303 -0.1775
   85MOL    C4030448   5.820   0.683   4.549  1.1063  1.0874 -0.1289
   85MOL    C4130449   5.805   0.612   4.684  0.4181 -0.0823 -0.1494
   85MOL    C4230450   5.932   0.543   4.724 -0.7163 -0.4566  0.7167
   85MOL    C4330451   5.895   0.452   4.842  0.0492  0.0286  0.3244
   85MOL    H4430452   5.846   0.561   4.216 -1.8730  2.3481 -1.9057
   85MOL    H4530453   5.748   0.687   4.268  0.5826  1.8153  0.1789
   85MOL    H4630454   5.912   0.520   4.442  0.8255  1.7123  1.5655
   85MOL    H4730455   5.908   0.748   4.547  1.9401  0.0175  1.3290
   85MOL    H4830456   5.742   0.759   4.548 -1.9216 -1.8629 -4.6386
   85MOL    H4930457   5.768   0.688   4.752  0.2246 -1.3132  1.1390
   85MOL    H5030458   5.729   0.535   4.696  0.8205 -0.2115  1.7834
   85MOL    H5130459   5.977   0.484   4.644  0.0350  2.9594 -1.4657
   85MOL    H5230460   5.998   0.626   4.750 -1.6291  0.6487 -0.4354
   85MOL    H5330461   5.837   0.366   4.809  0.3995 -0.7471  1.6716
   85MOL    H5430462   5.835   0.506   4.916 -0.7246 -0.6911  0.2263
   85MOL    H5530463   5.984   0.419   4.897 -0.9605  0.8507  2.5223
   85MOL    C5630464   5.695   0.497   4.416 -0.6669  0.1110  0.2425
   85MOL    C5730465   5.708   0.356   4.342  0.0625 -0.1784 -0.5127
   85MOL    C5830466   5.578   0.308   4.261 -0.1157 -0.1582 -0.5067
   85MOL    C5930467   5.596   0.227   4.132 -0.3801  0.2634 -0.6288
   85MOL    C6030468   5.467   0.165   4.085 -0.0251 -0.2092  0.8193
   85MOL    C6130469   5.491   0.088   3.952 -0.2268 -0.4729 -0.6422
   85MOL    H6230470   5.668   0.462   4.515  0.3074 -0.9457  0.1416
   85MOL    H6330471   5.612   0.554   4.374 -0.4425  0.4578  0.2639
   85MOL    H6430472   5.774   0.381   4.260  1.3854  0.1166  0.6290
   85MOL    H6530473   5.520   0.273   4.347  0.8290  1.5624  0.8568
   85MOL    H6630474   5.515   0.393   4.237 -2.1289 -1.2328  0.7761
   85MOL    H6730475   5.672   0.153   4.153 -1.6674 -0.8948  0.0400
   85MOL    H6830476   5.641   0.284   4.051  0.1060  1.6638  0.6167
   85MOL    H6930477   5.428   0.093   4.157 -1.4025  3.5268  4.0229
   85MOL    H7030478   5.392   0.243   4.073  1.2122  0.6596 -1.7168
   85MOL    H7130479   5.387   0.062   3.936 -0.2498 -0.4958 -0.4667
   85MOL    H7230480   5.528   0.141   3.865  0.7088  1.5866  0.9617
   85MOL    H7330481   5.551   7.724   3.958 -0.4526 -0.5382  0.9858
   85MOL    C7430482   5.762   0.242   4.436  0.1136  1.1816 -0.8877
   85MOL    C7530483   5.858   0.156   4.375  0.2837 -0.0918 -0.5721
   85MOL    C7630484   5.995   0.216   4.370 -0.3317 -0.4698  0.6008
   85MOL    C7730485   6.096   0.142   4.280  0.0670  0.1424  0.1200
   85MOL    C7830486   6.224   0.225   4.243  0.1663 -0.1261  0.4426
   85MOL    C7930487   6.320   0.152   4.151  0.1533  0.7194 -0.3780
   85MOL    H8030488   5.818   0.296   4.512 -0.3788  0.9602 -0.3668
   85MOL    H8130489   5.684   0.197   4.497  1.2423  1.6819  0.9588
   85MOL    H8230490   5.830   0.140   4.271  0.1926 -1.3974 -0.3626
   85MOL    H8330491   5.991   0.316   4.328  1.4925  0.3982  2.4037
   85MOL    H8430492   6.037   0.230   4.470  1.1130  3.3042 -0.4405
   85MOL    H8530493   6.128   0.054   4.336 -0.2365  0.2243  0.4177
   85MOL    H8630494   6.060   0.107   4.183 -0.5177 -5.2572  2.1475
   85MOL    H8730495   6.272   0.249   4.338 -0.1433 -0.9772  0.8175
   85MOL    H8830496   6.202   0.328   4.213  1.0519 -0.1879 -0.4692
   85MOL    H8930497   6.277   0.137   4.053 -2.1337 -0.5238  0.7656
   85MOL    H9030498   6.418   0.199   4.143  0.5211 -0.4893 -3.6670
   85MOL    H9130499   6.350   0.059   4.202  1.4709  0.8938 -0.8100
   85MOL    C9230500   5.856   0.005   4.439  0.1842 -0.5788  0.3144
   85MOL    C9330501   5.751   7.635   4.384  0.3021  0.0758 -0.3867
   85MOL    C9430502   5.608   7.682   4.427 -0.4041  0.9110  0.2510
   85MOL    C9530503   5.494   7.578   4.430  0.2062  0.3105 -0.2119
   85MOL    C9630504   5.362   7.652   4.419 -0.4710  0.3797  0.2627
   85MOL    C9730505   5.247   7.553   4.438  0.7858 -0.0438  0.5845
   85MOL    H9830506   5.954   7.690   4.415 -0.8593 -2.6214 -0.4855
   85MOL    H9930507   5.859   0.017   4.548 -2.7247 -0.0121  0.3604
   85MOL   H10030508   5.767   7.544   4.444  0.4273  0.2280 -0.1872
   85MOL   H10130509   5.575   0.028   4.353  0.5089  0.0477 -1.0365
   85MOL   H10230510   5.611   7.713   4.531  2.5990 -1.3533  0.9337
   85MOL   H10330511   5.498   7.514   4.341 -0.4257 -1.4235  0.9659
   85MOL   H10430512   5.496   7.507   4.513 -2.5537 -0.2522 -0.5760
   85MOL   H10530513   5.347   7.726   4.497 -0.6855  1.7756 -1.0779
   85MOL   H10630514   5.358   7.698   4.320 -1.1905 -1.8694 -0.7934
   85MOL   H10730515   5.156   7.606   4.465 -0.4635  0.2545 -3.8409
   85MOL   H10830516   5.224   7.489   4.353  0.8411  1.1718 -0.3548
   85MOL   H10930517   5.273   7.491   4.524 -0.4030 -0.9755  0.2834
   85MOL   C11030518   5.767   7.586   4.237 -0.1549 -0.2115 -1.2055
   85MOL   C11130519   5.880   7.484   4.207  0.0809  0.4147 -0.2337
   85MOL   C11230520   5.900   7.474   4.057 -0.0342  0.1576  0.2663
   85MOL   C11330521   6.009   7.387   4.011 -0.3532 -0.3395  0.4029
   85MOL   C11430522   6.002   7.378   3.859  0.3024  0.0344 -0.3633
   85MOL   C11530523   6.139   7.372   3.787 -0.8420  0.1707  0.3603
   85MOL   H11630524   5.673   7.543   4.204  0.0210 -2.8517  1.4979
   85MOL   H11730525   5.775   7.675   4.175 -2.4039 -0.0180 -1.2507
   85MOL   H11830526   5.970   7.526   4.253 -0.6483  1.1200  0.5480
   85MOL   H11930527   5.920   7.573   4.016 -2.2357 -0.3352 -2.1199
   85MOL   H12030528   5.815   7.442   3.997 -1.3075  0.9389  1.6218
   85MOL   H12130529   6.003   7.293   4.065 -0.7848 -0.5013  0.0750
   85MOL   H12230530   6.101   7.440   4.037  0.7442 -2.2579  0.5446
   85MOL   H12330531   5.950   7.467   3.821  2.9248  0.9136 -2.0524
   85MOL   H12430532   5.936   7.294   3.840 -2.2101  1.9248 -0.2423
   85MOL   H12530533   6.205   7.456   3.810  0.5515 -0.3404 -1.6457
   85MOL   H12630534   6.185   7.273   3.788 -1.2279 -0.0006  1.3601
   85MOL   H12730535   6.120   7.388   3.681  1.0189 -0.3277 -0.0778
   85MOL   C12830536   5.846   7.344   4.265 -0.5688 -0.2511  0.4450
   85MOL   C12930537   5.961   7.275   4.346  0.2373 -0.2496  0.3302
   85MOL   C13030538   5.947   7.116   4.357  0.0291  0.1423  0.1778
   85MOL   C13130539   6.080   7.041   4.397 -0.1420 -0.6894  0.3829
   85MOL   C13230540   6.104   6.901   4.338 -0.8477  0.7075 -0.2469
   85MOL   C13330541   5.995   6.805   4.377 -0.2988 -0.4418 -0.6410
   85MOL   H13430542   5.797   7.276   4.195  0.7728 -1.4161  0.6086
   85MOL   H13530543   5.771   7.354   4.344  0.8469  1.9133  1.5555
   85MOL   H13630544   6.052   7.297   4.289 -0.6771  3.9346  0.3218
   85MOL   H13730545   5.868   7.081   4.423 -0.0816 -0.7686 -0.4363
   85MOL   H13830546   5.921   7.086   4.256  0.0946  2.1767 -0.4671
   85MOL   H13930547   6.076   7.036   4.506  1.3839 -1.8873  0.3958
   85MOL   H14030548   6.168   7.102   4.378 -1.6890  1.4817 -0.1243
   85MOL   H14130549   6.117   6.899   4.230 -1.6776  2.2232 -0.3843
   85MOL   H14230550   6.199   6.863   4.375 -1.0352  0.2706 -0.2143
   85MOL   H14330551   5.970   6.822   4.482  1.5048  1.9676 -0.5683
   85MOL   H14430552   6.024   6.702   4.357 -0.1980 -0.7807  1.1098
   85MOL   H14530553   5.904   6.831   4.322  0.0405  0.6929 -0.6815
   85MOL   C14630554   5.997   7.337   4.488 -0.3518 -0.1755 -0.3642
   85MOL   C14730555   6.142   7.319   4.538 -0.5365  0.3821 -0.1691
   85MOL   C14830556   6.167   7.346   4.682 -0.3063  0.5256 -0.3285
   85MOL   C14930557   6.079   7.271   4.788  0.3030  0.4680 -0.5404
   85MOL   C15030558   6.088   7.337   4.931  0.7609  0.2591  0.1860
   85MOL   C15130559   6.018   7.472   4.952 -0.3236 -0.2748 -0.0595
   85MOL   H15230560   5.990   7.446   4.481 -1.2049 -0.2819 -1.4344
   85MOL   H15330561   5.918   7.298   4.552 -0.8653  1.9453  0.3397
   85MOL   H15430562   6.179   7.217   4.533  2.3236  1.3830 -0.9266
   85MOL   H15530563   6.156   7.453   4.699 -1.2156  0.4069 -0.1623
   85MOL   H15630564   6.270   7.316   4.701 -0.8409 -1.8625 -1.1221
   85MOL   H15730565   5.974   7.270   4.758  0.5237 -1.2171 -1.3066
   85MOL   H15830566   6.108   7.167   4.778 -1.6319 -0.1362 -0.1297
   85MOL   H15930567   6.195   7.344   4.949  0.6219  2.1184  0.4688
   85MOL   H16030568   6.030   7.265   4.989 -0.6440  1.9514  0.9464
   85MOL   H16130569   6.025   7.504   5.056 -1.0022  1.2225 -0.4578
   85MOL   H16230570   6.065   7.548   4.889 -2.3205  1.5657  0.5983
   85MOL   H16330571   5.913   7.467   4.923 -0.2960 -0.1820 -0.1800
   85MOL   C16430572   6.242   7.403   4.456 -0.0359  0.4149 -0.6985
   85MOL   C16530573   6.389   7.419   4.494  0.7402  0.1182  0.6934
   85MOL   C16630574   6.445   7.279   4.492 -1.1323 -0.1164  0.7082
   85MOL   C16730575   6.592   7.274   4.534  0.2902 -0.3252 -0.3078
   85MOL   C16830576   6.649   7.135   4.530 -0.7935 -0.8042  0.5505
   85MOL   C16930577   6.785   7.125   4.603 -0.1513 -0.0531  0.3033
   85MOL   H17030578   6.243   7.385   4.348 -0.9323  0.4149 -0.7063
   85MOL   H17130579   6.215   7.509   4.460 -1.7648 -0.0572  0.6160
   85MOL   H17230580   6.390   7.447   4.600  1.3935 -1.5848  1.1558
   85MOL   H17330581   6.418   7.233   4.397  2.9152  0.2823 -0.7309
   85MOL   H17430582   6.399   7.211   4.564 -0.6676  0.5703  1.6581
   85MOL   H17530583   6.588   7.293   4.641  0.5029 -3.2318  0.2710
   85MOL   H17630584   6.653   7.344   4.477 -1.1082  0.7766 -0.4804
   85MOL   H17730585   6.656   7.122   4.422  1.5614 -2.3482  0.8700
   85MOL   H17830586   6.575   7.072   4.580 -1.6908  0.9902  1.5580
   85MOL   H17930587   6.781   7.169   4.703  0.9967 -1.2083  0.8649
   85MOL   H18030588   6.856   7.190   4.550 -0.1333 -2.4682 -2.7781
   85MOL   H18130589   6.816   7.021   4.597 -0.2690 -0.0657 -0.1349
   85MOL   C18230590   6.465   7.526   4.406  0.7333  1.2187 -0.3116
   85MOL   C18330591   6.528   7.644   4.483 -0.2175 -0.2578 -0.4607
   85MOL   C18430592   6.430   0.011   4.552  0.0025  0.1019  0.7664
   85MOL   C18530593   6.487   0.097   4.666 -0.2515 -0.5001  0.7073
   85MOL   C18630594   6.380   0.133   4.771 -0.1631 -0.5365 -1.2222
   85MOL   C18730595   6.262   0.214   4.714  0.2732  0.1441 -0.4376
   85MOL   H18830596   6.528   7.470   4.338  0.5512 -0.7759  1.1235
   85MOL   H18930597   6.389   7.564   4.337  1.7419  0.4680 -1.8567
   85MOL   H19030598   6.581   7.593   4.563  0.0032  1.6283  0.6082
   85MOL   H19130599   6.365   0.057   4.478  0.4717  1.3824  1.1317
   85MOL   H19230600   6.363   7.660   4.588  1.6591 -1.4194  0.6026
   85MOL   H19330601   6.526   0.182   4.610 -1.4437  0.7541  1.7584
   85MOL   H19430602   6.571   0.046   4.712  0.8923  0.1260 -0.6449
   85MOL   H19530603   6.433   0.194   4.844  2.0089 -3.6277 -0.1332
   85MOL   H19630604   6.337   0.046   4.821 -1.5336 -0.3191 -1.9843
   85MOL   H19730605   6.188   0.250   4.785 -2.0968 -2.5358 -1.4630
   85MOL   H19830606   6.201   0.165   4.638  0.2215  3.1873 -2.4753
   85MOL   H19930607   6.299   0.296   4.653 -0.9323  0.8120 -0.2916
   85MOL   C20030608   6.634   7.721   4.405  0.0757  0.2045  0.1917
   85MOL   C20130609   6.764   7.638   4.368 -0.3881  0.3034  1.3913
   85MOL   C20230610   6.757   7.599   4.216  0.2345  0.1772  0.9873
   85MOL   C20330611   6.841   7.478   4.164 -0.6852 -0.2578 -0.0949
   85MOL   C20430612   6.845   7.445   4.010  0.5017  0.3522 -0.5813
   85MOL   C20530613   6.922   7.544   3.929 -0.3411 -0.8941 -0.1744
   85MOL   H20630614   6.665   0.071   4.474  1.9648  0.6613 -1.1277
   85MOL   H20730615   6.595   0.043   4.316  2.7446  1.6972 -0.2021
   85MOL   H20830616   6.768   7.548   4.429 -0.1215 -0.0185  0.8982
   85MOL   H20930617   6.776   7.689   4.158 -0.7113 -0.0208  0.3624
   85MOL   H21030618   6.651   7.582   4.196  0.7013 -0.2847 -1.1207
   85MOL   H21130619   6.808   7.393   4.223  0.5298 -0.8472 -0.2486
   85MOL   H21230620   6.944   7.489   4.198  0.0684 -1.3269 -1.9469
   85MOL   H21330621   6.740   7.445   3.983  0.1388 -3.6304  0.4329
   85MOL   H21430622   6.894   7.349   3.992 -2.4128 -1.1318 -0.8806
   85MOL   H21530623   6.890   7.648   3.932 -0.0632 -0.8088 -0.2179
   85MOL   H21630624   7.025   7.551   3.963 -0.4275 -0.0220 -0.0933
   85MOL   H21730625   6.935   7.517   3.824 -4.2450 -4.2663  0.0749
   85MOL   C21830626   6.896   7.713   4.397 -0.3434  0.0715 -0.2489
   85MOL   C21930627   6.938   7.713   4.539 -0.9980  0.1718 -0.3826
   85MOL   C22030628   7.042   0.106   4.567  0.4738 -0.0721 -0.2347
   85MOL   C22130629   6.992   0.250   4.551  0.0419  0.6010  1.0816
   85MOL   C22230630   7.066   0.356   4.639 -0.4533 -0.6704  0.5934
   85MOL   C22330631   7.014   0.499   4.604 -0.0291 -0.3801 -0.0415
   85MOL   H22430632   6.977   7.677   4.334 -0.0719  0.4307 -0.1018
   85MOL   H22530633   6.885   0.089   4.365  1.5535  0.1448 -0.6984
   85MOL   H22630634   6.859   0.017   4.607  0.6533 -1.5206  2.3802
   85MOL   H22730635   7.120   0.093   4.492 -0.6926  1.4645 -1.7564
   85MOL   H22830636   7.089   0.100   4.665 -0.0519  2.2435  0.1930
   85MOL   H22930637   6.884   0.258   4.568 -0.6383 -1.1875 -2.0421
   85MOL   H23030638   7.011   0.285   4.450  2.4099 -1.4797  0.7684
   85MOL   H23130639   7.048   0.336   4.745  1.0911 -1.1300  0.7765
   85MOL   H23230640   7.174   0.347   4.644 -0.4856 -0.0880  2.5599
   85MOL   H23330641   7.040   0.578   4.675  0.1062 -0.1887 -0.3031
   85MOL   H23430642   6.906   0.491   4.589 -0.1318  0.3110  0.3170
   85MOL   H23530643   7.044   0.525   4.503 -0.2431 -1.8555 -0.5026
   85MOL   C23630644   6.988   7.580   4.596  0.4125  0.0814  1.3768
   85MOL   C23730645   6.965   7.567   4.748  0.0625  0.6240 -0.2721
   85MOL   C23830646   7.053   7.456   4.812 -0.2410  0.4307  0.0844
   85MOL   C23930647   7.198   7.496   4.829  0.0663  0.0288 -0.4619
   85MOL   C24030648   7.280   7.408   4.925 -0.1029  0.1849 -0.0662
   85MOL   C24130649   7.429   7.445   4.926 -0.9391 -0.0157 -0.9326
   85MOL   H24230650   6.941   7.502   4.536  0.8933  0.4515  0.5123
   85MOL   H24330651   7.094   7.562   4.578  0.6781  3.4829 -0.9972
   85MOL   H24430652   7.002   7.664   4.781 -0.4518  0.2670  1.4113
   85MOL   H24530653   7.014   7.423   4.909 -0.3372  1.7173  0.4921
   85MOL   H24630654   7.060   7.364   4.754 -0.3775  1.0730 -0.9592
   85MOL   H24730655   7.204   7.599   4.866 -0.7522 -0.3977  0.8624
   85MOL   H24830656   7.244   7.496   4.730 -0.2890  0.1478 -0.6262
   85MOL   H24930657   7.240   7.416   5.026 -1.4884  1.6701 -0.7213
   85MOL   H25030658   7.274   7.301   4.901 -1.3870  0.4262 -0.8374
   85MOL   H25130659   7.443   7.549   4.956 -0.2703 -0.7541  1.4685
   85MOL   H25230660   7.479   7.393   5.008 -0.8601  1.2497 -0.1667
   85MOL   H25330661   7.472   7.421   4.829 -1.6745  1.6049 -1.6843
   85MOL   C25430662   6.812   7.542   4.781 -0.1027  0.2682  0.4292
   85MOL   C25530663   6.749   7.587   4.911 -0.2908  0.3332 -0.2097
   85MOL   C25630664   6.603   7.549   4.911  0.3747 -0.3458  0.1363
   85MOL   C25730665   6.526   7.559   5.050  0.3279  0.2076  0.0433
   85MOL   C25830666   6.386   7.499   5.042  0.3449  0.2773  0.5597
   85MOL   C25930667   6.316   7.520   5.176  0.1507  0.5923 -0.2899
   85MOL   H26030668   6.799   7.436   4.760  2.6415  0.2418 -1.4892
   85MOL   H26130669   6.749   7.584   4.702  0.1221 -1.3225 -0.6155
   85MOL   H26230670   6.793   7.537   4.997  1.8066 -1.2149 -2.1278
   85MOL   H26330671   6.548   7.609   4.839 -1.5513 -2.1760  0.0397
   85MOL   H26430672   6.595   7.442   4.894 -0.8630 -0.6930  2.6658
   85MOL   H26530673   6.592   7.523   5.129 -1.1512 -0.0621  1.1753
   85MOL   H26630674   6.519   7.665   5.077 -2.0681  0.3803 -1.1802
   85MOL   H26730675   6.387   7.393   5.018 -0.3353  0.5318 -0.6148
   85MOL   H26830676   6.329   7.542   4.960 -1.7997 -2.2409  0.6487
   85MOL   H26930677   6.218   7.473   5.172  0.4973 -0.1023 -0.7958
   85MOL   H27030678   6.305   7.627   5.192  2.0804  0.5744  1.3713
   85MOL   H27130679   6.370   7.471   5.258  0.3378  0.4047 -0.5249
   85MOL   C27230680   6.777   0.004   4.938  0.8443  0.2792 -0.1127
   85MOL   C27330681   6.854   0.037   5.071 -0.7846  0.1140 -0.7293
   85MOL   C27430682   6.824   0.181   5.125 -0.7182 -0.2658 -0.1688
   85MOL   C27530683   6.683   0.216   5.179  0.3714  0.2771  0.2115
   85MOL   C27630684   6.634   0.152   5.300 -0.3359 -0.3521 -1.0978
   85MOL   C27730685   6.519   0.214   5.370 -0.8078 -0.1452  0.1110
   85MOL   H27830686   6.834   0.053   4.859  2.0972 -0.0169  0.6034
   85MOL   H27930687   6.679   0.052   4.944 -0.2770 -1.8680 -0.6521
   85MOL   H28030688   6.818   7.692   5.144 -0.0743  0.6474  0.1499
   85MOL   H28130689   6.860   0.247   5.046  3.0067 -3.1067 -1.0212
   85MOL   H28230690   6.907   0.206   5.193 -0.6879  3.3961 -1.4573
   85MOL   H28330691   6.606   0.183   5.109  0.3312 -0.1294  0.4510
   85MOL   H28430692   6.677   0.325   5.189  1.0668  0.2745  0.6427
   85MOL   H28530693   6.621   0.045   5.286  2.0742 -0.7830 -0.4108
   85MOL   H28630694   6.721   0.151   5.367 -1.3370  1.6865  0.2804
   85MOL   H28730695   6.540   0.287   5.449  1.0650 -0.3389 -0.1898
   85MOL   H28830696   6.459   0.270   5.298  0.0531 -1.7659 -1.9167
   85MOL   H28930697   6.460   0.146   5.431 -2.7455 -0.4852 -2.1066
   85MOL   C29030698   7.007   0.021   5.044  0.8671  0.8376 -0.1538
   85MOL   C29130699   7.096   0.019   5.171  0.0067  0.2620  0.2943
   85MOL   C29230700   7.081   7.614   5.245 -0.1082 -0.1622 -0.5497
   85MOL   C29330701   7.124   7.618   5.391  0.1977 -0.1705  0.0396
   85MOL   C29430702   7.085   7.503   5.479 -0.0229 -0.3732  0.3244
   85MOL   C29530703   7.140   7.516   5.620  0.2015  0.6250  0.1359
   85MOL   H29630704   7.041   0.095   4.972  2.7847  1.2045  1.0706
   85MOL   H29730705   7.030   7.655   4.992 -1.2327  0.0935  0.2119
   85MOL   H29830706   7.069   0.106   5.230  1.8254  1.4137 -0.5233
   85MOL   H29930707   7.128   7.535   5.186  0.5884  0.1133 -0.3540
   85MOL   H30030708   6.975   7.586   5.242  0.3828 -1.9570 -2.3409
   85MOL   H30130709   7.233   7.612   5.389  0.0589 -3.7701 -1.6415
   85MOL   H30230710   7.094   7.713   5.435 -1.0637 -0.6580  0.2341
   85MOL   H30330711   7.125   7.410   5.439  2.3023  0.0647  1.5409
   85MOL   H30430712   6.977   7.487   5.476  0.0652 -1.6065  2.4368
   85MOL   H30530713   7.058   7.550   5.682  0.4349  1.3802  0.0416
   85MOL   H30630714   7.214   7.596   5.624  1.9941 -1.0622  1.6299
   85MOL   H30730715   7.178   7.421   5.658  2.0333  1.4074  0.3488
   85MOL   C30830716   7.246   0.024   5.124  0.1427 -0.5863  0.3852
   85MOL   C30930717   7.297   0.164   5.064 -0.2532  0.3039  0.4324
   85MOL   C31030718   7.419   0.155   4.964  0.4204  0.1032 -0.3895
   85MOL   C31130719   7.377   0.134   4.817 -0.3928  0.3854 -0.9678
   85MOL   C31230720   7.498   0.144   4.723 -0.0897  0.7097 -0.1059
   85MOL   C31330721   7.461   0.134   4.574  0.0452 -0.4478  0.1454
   85MOL   H31430722   7.306   7.725   5.211 -0.8392  0.1999  1.3137
   85MOL   H31530723   7.275   7.662   5.069  3.0914 -1.0593  2.5613
   85MOL   H31630724   7.217   0.209   5.006  0.5760  0.7603 -0.3789
   85MOL   H31730725   7.477   0.070   5.001  0.1003 -0.2339 -0.6511
   85MOL   H31830726   7.479   0.242   4.989 -0.1127  0.6379 -0.9576
   85MOL   H31930727   7.309   0.215   4.791 -0.0319  1.5424  1.5597
   85MOL   H32030728   7.308   0.055   4.786 -0.0089  0.2886 -1.5734
   85MOL   H32130729   7.547   0.241   4.733  0.4907  0.4492 -0.4303
   85MOL   H32230730   7.567   0.069   4.761 -0.5884 -0.0332 -0.6514
   85MOL   H32330731   7.402   0.048   4.541  2.1226 -1.5425 -0.7564
   85MOL   H32430732   7.549   0.134   4.510 -1.1682  0.0816 -1.5811
   85MOL   H32530733   7.393   0.215   4.547 -0.4269 -0.6667  0.6699
   85MOL   C32630734   7.332   0.264   5.174 -0.1098 -0.2382  0.2487
   85MOL   C32730735   7.319   0.416   5.138 -0.1001  0.0795 -0.1671
   85MOL   C32830736   7.171   0.456   5.127  0.0797 -1.0102 -0.1391
   85MOL   C32930737   7.131   0.595   5.067  0.5023 -0.3885 -0.0919
   85MOL   C33030738   6.983   0.590   5.026 -0.3066 -0.3118  0.8383
   85MOL   C33130739   6.947   0.728   4.978  0.2625 -0.8555 -0.2107
   85MOL   H33230740   7.431   0.231   5.206 -0.7477  0.8159  3.5529
   85MOL   H33330741   7.262   0.242   5.255 -0.7874  0.2402 -0.2075
   85MOL   H33430742   7.368   0.424   5.041 -0.4122 -1.4183 -0.4610
   85MOL   H33530743   7.120   0.377   5.071 -1.9340  0.1548  0.0115
   85MOL   H33630744   7.134   0.450   5.229  1.1756  0.0881  0.3357
   85MOL   H33730745   7.196   0.632   4.988  0.7863  4.2450  2.1394
   85MOL   H33830746   7.150   0.669   5.145  0.4444 -0.8875  0.3973
   85MOL   H33930747   6.962   0.520   4.946 -2.1737 -0.8511  1.7796
   85MOL   H34030748   6.919   0.553   5.106 -2.3257 -1.3821 -1.2330
   85MOL   H34130749   6.954   0.802   5.058 -1.1102 -0.7219 -0.1996
   85MOL   H34230750   6.845   0.744   4.945  0.6722 -2.4199 -2.3160
   85MOL   H34330751   7.009   0.758   4.893  0.3918  0.2398  0.2578
   85MOL   C34430752   7.388   0.499   5.253 -0.0467  0.0617  0.4657
   85MOL   C34530753   7.534   0.476   5.264  0.2326 -0.1793 -0.8755
   85MOL   C34630754   7.609   0.597   5.330  0.2387 -0.4651  0.3338
   85MOL   C34730755   0.031   0.566   5.349  0.0922 -0.5737  0.2428
   85MOL   C34830756   0.105   0.579   5.209  0.1435  0.0721 -0.7613
   85MOL   C34930757   0.257   0.567   5.229 -0.0857 -0.3193 -0.3505
   85MOL   H35030758   7.376   0.606   5.235 -0.4985  0.0604  0.7440
   85MOL   H35130759   7.335   0.469   5.343 -0.0764  1.1879  0.8312
   85MOL   H35230760   7.578   0.449   5.168  0.7099 -0.6119 -0.5372
   85MOL   H35330761   7.599   0.693   5.279 -0.7709 -0.4261  0.5834
   85MOL   H35430762   7.571   0.613   5.431  0.8542  0.2014  0.4633
   85MOL   H35530763   0.069   0.627   5.431  2.0197 -1.1104 -0.2156
   85MOL   H35630764   0.049   0.469   5.395 -1.7048 -0.5935  0.9279
   85MOL   H35730765   0.066   0.495   5.151  1.1367  0.9461 -2.7563
   85MOL   H35830766   0.074   0.666   5.151  1.1317 -0.0173 -1.4379
   85MOL   H35930767   0.317   0.557   5.138  0.0925  1.3121 -0.4398
   85MOL   H36030768   0.293   0.655   5.283 -0.0559  0.0435 -0.9565
   85MOL   H36130769   0.283   0.480   5.289  1.4931 -0.4290 -1.1502
   85MOL   H36230770   7.550   0.389   5.328 -2.4154  0.0680  0.1828
   86MOL     C130771   0.390   1.333   6.612 -0.2779  0.4792 -0.2014
   86MOL     C230772   0.419   1.322   6.462  0.6117 -0.3154 -0.1959
   86MOL     C330773   0.332   1.222   6.381 -0.2848 -0.0720  0.0560
   86MOL     C430774   0.328   1.079   6.432 -0.0982  0.0864  0.2169
   86MOL     C530775   0.240   1.000   6.345  0.5822 -0.3148  0.3138
   86MOL     C630776   0.209   0.852   6.381  0.6870 -0.5857 -0.4790
   86MOL     H730777   0.283   1.341   6.626 -0.0370 -0.5407  2.5372
   86MOL     H830778   0.418   1.244   6.669  1.8976  2.1306  1.4303
   86MOL     H930779   0.399   1.419   6.416 -0.0255 -1.1561 -1.7284
   86MOL    H1030780   0.380   1.210   6.284  1.0725  0.0129  0.7128
   86MOL    H1130781   0.231   1.261   6.364 -0.6232 -1.5143 -1.3742
   86MOL    H1230782   0.288   1.078   6.533 -1.6402  1.7984 -0.3483
   86MOL    H1330783   0.426   1.030   6.425  0.3198  0.9757 -0.3143
   86MOL    H1430784   0.144   1.051   6.343  0.9424  0.4397  1.9592
   86MOL    H1530785   0.273   1.011   6.241  0.8003  1.2679  0.5478
   86MOL    H1630786   0.295   0.784   6.382  1.0331 -0.1440  0.8791
   86MOL    H1730787   0.139   0.805   6.313  0.3817  0.1472 -0.6817
   86MOL    H1830788   0.169   0.854   6.482  3.0196  0.6369  0.4725
   86MOL    H1930789   0.437   1.418   6.662 -0.4164  1.3595 -1.5581
   86MOL    C2030790   0.568   1.300   6.447 -0.2741 -0.1847 -1.0547
   86MOL    C2130791   0.624   1.337   6.305 -0.1983  0.9408 -1.0150
   86MOL    C2230792   0.674   1.493   6.302 -0.4451  0.2441  0.0555
   86MOL    C2330793   0.691   1.560   6.159  0.1690  0.1729  0.7721
   86MOL    C2430794   0.722   1.711   6.152  0.2513  0.9253 -0.0120
   86MOL    C2530795   0.610   1.798   6.210  0.4715 -0.3234  0.6569
   86MOL    H2630796   0.587   1.199   6.481  1.1504  0.3397 -0.2917
   86MOL    H2730797   0.612   1.368   6.520 -0.6911 -0.1799 -0.8063
   86MOL    H2830798   0.541   1.345   6.235 -0.5282  1.6642 -0.5478
   86MOL    H2930799   0.770   1.508   6.351  0.3904  2.0072 -2.0467
   86MOL    H3030800   0.592   1.545   6.352 -1.5687 -1.3411 -0.1336
   86MOL    H3130801   0.605   1.552   6.092 -1.3908  0.8495  2.6533
   86MOL    H3230802   0.776   1.506   6.119  0.9515  0.6145  1.8293
   86MOL    H3330803   0.814   1.744   6.199  0.3878  0.0494  0.3493
   86MOL    H3430804   0.743   1.741   6.049 -0.1888  1.3952  0.0320
   86MOL    H3530805   0.614   1.807   6.319 -0.1528  2.4150  0.4848
   86MOL    H3630806   0.611   1.898   6.168 -0.4925  0.3528  2.2120
   86MOL    H3730807   0.508   1.760   6.200  0.5852 -0.9550  1.7733
   86MOL    C3830808   0.736   1.240   6.264 -0.4607  0.0904  0.3729
   86MOL    C3930809   0.694   1.107   6.195  0.1772  0.6480 -0.4529
   86MOL    C4030810   0.597   1.133   6.075  0.2115  0.3352  0.1418
   86MOL    C4130811   0.657   1.217   5.964  0.2476  0.0683 -0.3008
   86MOL    C4230812   0.556   1.249   5.853 -0.2086 -0.1323 -0.1365
   86MOL    C4330813   0.627   1.299   5.730 -0.2024  0.3410 -0.2280
   86MOL    H4430814   0.802   1.226   6.349 -0.0769  0.0101  0.0660
   86MOL    H4530815   0.805   1.285   6.192  0.5082 -2.5743 -0.4303
   86MOL    H4630816   0.631   1.053   6.265  0.1751  0.1042 -0.8685
   86MOL    H4730817   0.569   1.034   6.039  0.5231 -0.0774  1.0168
   86MOL    H4830818   0.504   1.183   6.102 -0.2398 -0.0006 -0.7772
   86MOL    H4930819   0.700   1.309   6.004  0.3178 -0.0004 -0.2172
   86MOL    H5030820   0.745   1.163   5.928  1.2325  0.4931  1.4447
   86MOL    H5130821   0.496   1.163   5.824  1.7403 -1.5685  0.0704
   86MOL    H5230822   0.483   1.324   5.885 -0.1633 -0.4306  0.6577
   86MOL    H5330823   0.697   1.381   5.746  0.8901 -0.6425  0.1058
   86MOL    H5430824   0.556   1.325   5.652  1.0606 -0.0969 -1.5601
   86MOL    H5530825   0.690   1.215   5.697 -0.4606  0.2306 -0.4383
   86MOL    C5630826   0.816   1.015   6.170  0.2320 -0.5177 -0.1450
   86MOL    C5730827   0.794   0.865   6.131 -0.3036 -0.5401  0.5261
   86MOL    C5830828   0.737   0.781   6.247 -0.1265  0.2264 -1.5146
   86MOL    C5930829   0.625   0.685   6.205 -0.1324  0.3412 -0.3288
   86MOL    C6030830   0.496   0.753   6.159  0.0533 -0.2750 -0.5966
   86MOL    C6130831   0.396   0.649   6.125 -0.5901 -0.2106  0.6339
   86MOL    H6230832   0.866   1.063   6.086  1.1137  0.3652  0.8652
   86MOL    H6330833   0.881   1.024   6.257  0.7517 -1.0796 -0.4773
   86MOL    H6430834   0.724   0.871   6.047  0.4987  3.4087  0.0546
   86MOL    H6530835   0.810   0.714   6.293 -2.9785  0.0940  3.1601
   86MOL    H6630836   0.711   0.848   6.329 -0.2856 -0.6551 -0.8367
   86MOL    H6730837   0.604   0.632   6.297  0.5040 -0.3536 -0.5729
   86MOL    H6830838   0.669   0.614   6.134  0.3586  0.6038 -0.2925
   86MOL    H6930839   0.469   0.822   6.239 -0.5213 -0.7192 -0.4030
   86MOL    H7030840   0.514   0.816   6.072 -2.9240 -1.0322 -1.8227
   86MOL    H7130841   0.367   0.600   6.219 -0.5783  0.8152  1.1838
   86MOL    H7230842   0.308   0.696   6.081 -0.1007 -0.5760 -0.7524
   86MOL    H7330843   0.422   0.572   6.052  0.1668  0.3479  0.3151
   86MOL    C7430844   0.928   0.802   6.078  0.6808  0.4055 -0.2925
   86MOL    C7530845   0.950   0.835   5.930  0.0723 -0.0950  0.5756
   86MOL    C7630846   1.090   0.894   5.899 -0.4406  0.3810 -0.7637
   86MOL    C7730847   1.115   1.040   5.949 -0.0201  0.1077  0.3918
   86MOL    C7830848   1.059   1.157   5.869 -0.2952 -0.2650 -0.6721
   86MOL    C7930849   1.069   1.286   5.947 -0.3128  0.1743  0.5043
   86MOL    H8030850   1.004   0.843   6.146 -0.6493 -0.5073  1.7993
   86MOL    H8130851   0.939   0.696   6.100  0.7162  0.1890 -1.3709
   86MOL    H8230852   0.879   0.907   5.889  2.5433  1.6279 -0.8347
   86MOL    H8330853   1.161   0.827   5.948  0.3353  0.3835 -1.8663
   86MOL    H8430854   1.111   0.896   5.792  1.4266 -3.4810 -0.5691
   86MOL    H8530855   1.077   1.051   6.050 -0.0746 -2.3208  0.6687
   86MOL    H8630856   1.223   1.049   5.963 -0.4699 -0.5141  5.0113
   86MOL    H8730857   0.951   1.153   5.852 -1.0091  0.6680  3.1764
   86MOL    H8830858   1.114   1.168   5.775  0.4475  2.5974  0.0577
   86MOL    H8930859   1.020   1.295   6.044  0.3217 -0.0132  0.8469
   86MOL    H9030860   1.173   1.319   5.948 -0.8586  1.8977  0.4696
   86MOL    H9130861   1.007   1.354   5.888 -3.3644 -0.7538  2.5186
   86MOL    C9230862   0.946   0.702   5.846  0.6328  0.0409 -0.0359
   86MOL    C9330863   0.814   0.618   5.839 -0.1414 -0.0492 -0.3701
   86MOL    C9430864   0.687   0.701   5.790 -0.0490  0.1628 -0.1977
   86MOL    C9530865   0.693   0.711   5.635  0.6488 -0.0876  0.5253
   86MOL    C9630866   0.565   0.780   5.573  0.1963 -0.0614 -0.9043
   86MOL    C9730867   0.584   0.933   5.583  0.5230 -0.3530  0.6909
   86MOL    H9830868   0.965   0.723   5.741  1.8826 -0.9924 -0.0327
   86MOL    H9930869   1.030   0.638   5.873  0.5813 -0.0501 -0.0930
   86MOL   H10030870   0.783   0.602   5.943  0.3466  1.0471 -0.0458
   86MOL   H10130871   0.690   0.806   5.817  3.4623 -0.1228  0.8073
   86MOL   H10230872   0.596   0.656   5.830 -0.0415 -0.1483 -0.5242
   86MOL   H10330873   0.788   0.754   5.605  0.1857  2.1176  2.1397
   86MOL   H10430874   0.698   0.612   5.589  0.7320  1.1030 -2.1197
   86MOL   H10530875   0.546   0.758   5.468 -0.5770 -3.0314 -0.1797
   86MOL   H10630876   0.469   0.755   5.619  0.6017  0.5191  0.2717
   86MOL   H10730877   0.505   0.980   5.524  0.8442  0.5320  0.9631
   86MOL   H10830878   0.569   0.969   5.684 -2.9803 -0.7213  0.3567
   86MOL   H10930879   0.684   0.962   5.549  0.4905 -1.5325 -0.4545
   86MOL   C11030880   0.835   0.481   5.775  0.5009 -0.7214  0.1578
   86MOL   C11130881   0.724   0.376   5.813 -0.2671  0.3959 -0.4523
   86MOL   C11230882   0.731   0.316   5.956 -0.6210 -0.1795  0.4044
   86MOL   C11330883   0.604   0.257   6.022 -0.3345  0.3344 -0.0062
   86MOL   C11430884   0.649   0.182   6.149  0.1945 -0.4788 -0.0158
   86MOL   C11530885   0.693   0.283   6.254 -0.0050  0.2292  0.5133
   86MOL   H11630886   0.841   0.483   5.666  1.9303  1.3044  0.2231
   86MOL   H11730887   0.936   0.449   5.802  1.1344  0.3159 -0.9562
   86MOL   H11830888   0.633   0.436   5.814 -1.4758 -1.3858  2.5972
   86MOL   H11930889   0.763   0.399   6.019  1.6780 -0.0148 -0.9015
   86MOL   H12030890   0.814   0.245   5.952  0.9223  1.5481  1.0836
   86MOL   H12130891   0.552   0.188   5.955  1.6986 -0.5038 -0.7683
   86MOL   H12230892   0.528   0.329   6.051 -0.3905  0.3965 -0.2995
   86MOL   H12330893   0.735   0.120   6.121 -0.6633 -0.9398 -1.6844
   86MOL   H12430894   0.560   0.123   6.174 -0.7003  1.5299  1.7094
   86MOL   H12530895   0.612   0.345   6.291 -0.8515  0.2952 -1.3810
   86MOL   H12630896   0.737   0.228   6.337  2.9590  1.5421 -0.1073
   86MOL   H12730897   0.769   0.353   6.219 -0.7213  1.4901  1.4718
   86MOL   C12830898   0.701   0.271   5.700 -0.3071  0.2409  0.2753
   86MOL   C12930899   0.597   0.310   5.594  0.3095 -0.0329  0.0961
   86MOL   C13030900   0.453   0.296   5.656 -0.0780 -0.2134  0.2275
   86MOL   C13130901   0.349   0.407   5.604 -0.5061  0.2761 -1.0904
   86MOL   C13230902   0.208   0.370   5.635 -0.3209 -0.1270 -0.3186
   86MOL   C13330903   0.181   0.379   5.783 -0.2686  0.4806  0.2001
   86MOL   H13430904   0.674   0.172   5.738  0.9879 -0.3501 -0.3311
   86MOL   H13530905   0.794   0.255   5.646 -1.3925  1.0347 -1.8780
   86MOL   H13630906   0.616   0.412   5.561 -1.1374  0.5905  1.1532
   86MOL   H13730907   0.419   0.193   5.652  1.2644 -0.6672  0.1979
   86MOL   H13830908   0.462   0.312   5.764 -2.4093 -0.0720  0.4172
   86MOL   H13930909   0.369   0.430   5.499 -1.7936  2.9079 -0.7903
   86MOL   H14030910   0.377   0.499   5.654 -0.7923 -0.3641  0.2731
   86MOL   H14130911   0.145   0.444   5.585 -1.7146 -1.3059 -0.3256
   86MOL   H14230912   0.183   0.276   5.586 -0.6158  0.0357 -0.4781
   86MOL   H14330913   0.240   0.459   5.827 -0.2193  0.5983 -0.0766
   86MOL   H14430914   0.235   0.293   5.821  0.0096  0.6496  0.1893
   86MOL   H14530915   0.075   0.374   5.807 -0.2445 -1.5971 -0.0658
   86MOL   C14630916   0.620   0.221   5.464 -0.3816 -0.5027  0.0277
   86MOL   C14730917   0.732   0.269   5.358  0.0194 -1.0543 -0.4958
   86MOL   C14830918   0.676   0.379   5.262 -0.1930  0.1195  0.3053
   86MOL   C14930919   0.658   0.526   5.307 -0.2802  0.2496  0.0651
   86MOL   C15030920   0.649   0.623   5.188 -0.0166  0.1658 -0.2322
   86MOL   C15130921   0.783   0.677   5.126  0.0892  0.2355  1.0764
   86MOL   H15230922   0.643   0.117   5.488 -1.0089 -1.1139 -1.8959
   86MOL   H15330923   0.523   0.219   5.415 -0.3598  0.6980 -0.0769
   86MOL   H15430924   0.814   0.315   5.414 -0.9523 -0.4142  0.4078
   86MOL   H15530925   0.575   0.352   5.232  0.4022 -0.4953 -1.1910
   86MOL   H15630926   0.730   0.366   5.168 -0.2996  1.6367  0.0174
   86MOL   H15730927   0.566   0.531   5.365 -0.0836 -1.7403  0.5965
   86MOL   H15830928   0.738   0.568   5.368 -0.3356  0.3077  0.0971
   86MOL   H15930929   0.580   0.703   5.216 -0.6825 -0.1913 -0.8316
   86MOL   H16030930   0.598   0.566   5.111 -0.7401 -0.1139  0.4462
   86MOL   H16130931   0.829   0.749   5.194  0.5700  0.2561  0.7339
   86MOL   H16230932   0.853   0.596   5.107  0.2007  0.2963  1.2283
   86MOL   H16330933   0.763   0.723   5.029 -1.1957 -2.2835  0.0884
   86MOL   C16430934   0.803   0.157   5.283 -0.2566  0.2887 -0.1747
   86MOL   C16530935   0.929   0.198   5.198  0.0851  0.1118  0.2317
   86MOL   C16630936   1.051   0.144   5.271  0.1214 -0.4192  0.0964
   86MOL   C16730937   1.094   0.235   5.386 -0.1133 -0.4734  0.1072
   86MOL   C16830938   1.243   0.194   5.430  0.7341 -0.2717  0.7417
   86MOL   C16930939   1.311   0.308   5.507  0.1087  0.1754  0.1749
   86MOL   H17030940   0.834   0.086   5.360 -0.2183  1.5766  1.0268
   86MOL   H17130941   0.724   0.107   5.227 -0.9636  0.4106  0.7008
   86MOL   H17230942   0.938   0.307   5.195  0.4248  0.0443 -1.8163
   86MOL   H17330943   1.129   0.138   5.195  1.2310  1.1761  1.0788
   86MOL   H17430944   1.046   0.039   5.297  0.3563 -1.4209 -3.5690
   86MOL   H17530945   1.024   0.220   5.468  0.8787 -0.7607  0.9149
   86MOL   H17630946   1.092   0.341   5.363 -2.5312 -0.1583  1.5929
   86MOL   H17730947   1.298   0.161   5.342  0.8423  3.3266 -0.6076
   86MOL   H17830948   1.239   0.110   5.500  1.3924 -0.0933  0.9950
   86MOL   H17930949   1.315   0.398   5.445  1.4690 -1.5536 -2.3234
   86MOL   H18030950   1.410   0.283   5.546  0.9070  2.4564 -0.3324
   86MOL   H18130951   1.257   0.337   5.597 -0.8850 -0.7612 -0.1076
   86MOL   C18230952   0.934   0.145   5.049  0.3953 -0.4389 -0.1549
   86MOL   C18330953   0.823   0.200   4.957  0.1820 -0.3379 -0.3154
   86MOL   C18430954   0.786   0.103   4.847  0.2220 -0.2970  0.0920
   86MOL   C18530955   0.707   7.709   4.896 -0.1538 -0.0345 -0.5695
   86MOL   C18630956   0.651   7.639   4.776  0.0951 -0.2025 -0.7135
   86MOL   C18730957   0.559   7.515   4.808 -0.2122 -0.3872  0.4838
   86MOL   H18830958   1.032   0.180   5.015  0.1634  1.7558  1.3187
   86MOL   H18930959   0.935   0.036   5.040 -1.1069 -0.6735  2.1204
   86MOL   H19030960   0.733   0.214   5.017  0.8988  0.7172  0.5269
   86MOL   H19130961   0.720   0.158   4.781 -0.3556  2.3557  2.7569
   86MOL   H19230962   0.884   0.074   4.808  0.7886  0.8561  0.6237
   86MOL   H19330963   0.627   0.017   4.961  1.4860  0.9161  1.0117
   86MOL   H19430964   0.772   7.643   4.953  0.9254  0.4031 -1.2729
   86MOL   H19530965   0.731   7.613   4.707 -0.6108 -2.6834 -0.6112
   86MOL   H19630966   0.589   7.723   4.742  0.8079  0.4041 -0.5378
   86MOL   H19730967   0.612   7.433   4.856 -0.6882 -1.4365 -0.7596
   86MOL   H19830968   0.513   7.481   4.715 -1.1417 -0.3785  0.9276
   86MOL   H19930969   0.475   7.546   4.871 -0.1396 -0.1896  0.4810
   86MOL   C20030970   0.877   0.341   4.897 -0.1361  0.4091  0.5783
   86MOL   C20130971   0.794   0.403   4.786 -0.3418 -0.2248 -0.4921
   86MOL   C20230972   0.645   0.430   4.811  0.7741  0.3631 -0.0340
   86MOL   C20330973   0.558   0.428   4.684 -0.2463  0.2662 -0.1557
   86MOL   C20430974   0.408   0.441   4.722 -0.0162  0.3309 -0.4773
   86MOL   C20530975   0.311   0.480   4.612  0.2824  0.7954  0.0933
   86MOL   H20630976   0.973   0.312   4.854  0.5532  0.6290  1.9595
   86MOL   H20730977   0.905   0.401   4.983 -2.7114  0.5243  1.3770
   86MOL   H20830978   0.805   0.336   4.700  0.8205 -0.3739 -0.2325
   86MOL   H20930979   0.641   0.521   4.872 -1.2073  2.3015 -2.9351
   86MOL   H21030980   0.602   0.340   4.854  0.8238 -0.1233 -0.9911
   86MOL   H21130981   0.574   0.335   4.628 -0.4693  0.0532  0.1325
   86MOL   H21230982   0.582   0.510   4.617  0.8679  3.3478  3.8542
   86MOL   H21330983   0.402   0.518   4.798 -1.5935 -0.6304  0.4078
   86MOL   H21430984   0.381   0.358   4.787  0.5951  1.5415  1.3697
   86MOL   H21530985   0.299   0.414   4.525  0.7646  0.8975 -0.0506
   86MOL   H21630986   0.218   0.510   4.661  0.5158 -0.1390  1.1163
   86MOL   H21730987   0.353   0.568   4.563  1.5548 -0.7747 -1.7239
   86MOL   C21830988   0.869   0.533   4.743 -0.5704 -0.5137  0.2370
   86MOL   C21930989   1.020   0.515   4.703 -0.1518 -0.1711  0.9123
   86MOL   C22030990   1.096   0.654   4.704 -0.5158  0.2204  0.4965
   86MOL   C22130991   1.248   0.640   4.729  0.2139 -0.1227 -0.5640
   86MOL   C22230992   1.308   0.778   4.739 -0.1269 -0.5517 -0.2115
   86MOL   C22330993   1.466   0.781   4.751 -0.0803 -0.8268  0.0399
   86MOL   H22430994   0.820   0.587   4.662  1.0686  2.5966  1.2490
   86MOL   H22530995   0.883   0.604   4.825 -1.5668 -0.7038  0.5842
   86MOL   H22630996   1.070   0.461   4.783  0.9606 -1.0014 -0.3277
   86MOL   H22730997   1.062   0.711   4.791  0.9611  1.7762  0.0769
   86MOL   H22830998   1.071   0.705   4.611  0.9932  1.3720  0.6935
   86MOL   H22930999   1.309   0.584   4.658  1.5028 -0.3532  0.6978
   86MOL   H23031000   1.264   0.596   4.827  3.0229 -0.1938 -1.0142
   86MOL   H23131001   1.286   0.828   4.645 -1.0992  0.9988  0.8147
   86MOL   H23231002   1.258   0.825   4.824  1.9390 -2.0381  1.8927
   86MOL   H23331003   1.500   0.884   4.761 -1.7732 -0.2789  0.2042
   86MOL   H23431004   1.520   0.739   4.666 -0.7070  0.5066 -1.0336
   86MOL   H23531005   1.493   0.718   4.835 -1.9064 -1.9262 -0.1799
   86MOL   C23631006   1.035   0.440   4.565  0.3898  0.1297  0.0950
   86MOL   C23731007   1.132   0.323   4.545 -0.2853 -0.0112 -0.4360
   86MOL   C23831008   1.138   0.261   4.403 -0.5912 -0.3519 -0.0389
   86MOL   C23931009   1.128   0.365   4.290  0.0553 -0.8753  0.8594
   86MOL   C24031010   1.143   0.304   4.148  0.7503  0.8248 -0.4622
   86MOL   C24131011   1.232   0.394   4.065  0.2319  0.4152  0.2682
   86MOL   H24231012   0.934   0.411   4.536 -0.2218 -0.7071  2.9304
   86MOL   H24331013   1.063   0.511   4.487  0.5137  2.1797  1.9579
   86MOL   H24431014   1.228   0.372   4.563 -1.2310  0.9520  2.0798
   86MOL   H24531015   1.233   0.209   4.392  0.9723  2.5922 -1.0809
   86MOL   H24631016   1.060   0.185   4.397  0.2830 -1.2943  0.3177
   86MOL   H24731017   1.213   0.431   4.311  0.2835 -1.7170  2.6158
   86MOL   H24831018   1.045   0.436   4.298 -1.2862 -2.0384 -2.0486
   86MOL   H24931019   1.189   0.206   4.162 -0.0473  0.8566  2.9642
   86MOL   H25031020   1.044   0.294   4.103  1.3065 -1.0444 -1.3367
   86MOL   H25131021   1.189   0.488   4.031  1.4556  0.3988 -1.3821
   86MOL   H25231022   1.327   0.415   4.116  0.3208 -0.5484  0.5032
   86MOL   H25331023   1.265   0.340   3.977  2.7256  1.1464  0.7031
   86MOL   C25431024   1.133   0.209   4.647 -0.3899  0.4925  0.1575
   86MOL   C25531025   1.250   0.119   4.661  0.2743  0.9366 -0.2617
   86MOL   C25631026   1.202   7.705   4.630 -0.3336  0.5425  0.0810
   86MOL   C25731027   1.325   7.598   4.617  0.1434 -0.7494 -0.2692
   86MOL   C25831028   1.283   7.446   4.600 -0.2263 -1.0484 -0.0188
   86MOL   C25931029   1.228   7.422   4.454 -0.0496 -0.3541 -0.4754
   86MOL   H26031030   1.041   0.156   4.623 -0.3799  0.4306  0.2535
   86MOL   H26131031   1.127   0.252   4.747 -1.8243 -2.1692  1.2471
   86MOL   H26231032   1.323   0.150   4.587 -0.5086  0.6128 -1.1764
   86MOL   H26331033   1.136   7.668   4.709  1.6253 -0.8025  1.1473
   86MOL   H26431034   1.152   7.702   4.533 -0.4212  2.1906  0.0690
   86MOL   H26531035   1.378   7.625   4.525 -0.5167 -0.3258 -0.5226
   86MOL   H26631036   1.385   7.614   4.707  2.0377 -4.2166 -0.8026
   86MOL   H26731037   1.220   7.407   4.680  1.3111 -0.1811  1.6622
   86MOL   H26831038   1.375   7.388   4.603 -0.4784 -1.4634 -0.3472
   86MOL   H26931039   1.281   7.473   4.373 -0.8544  2.1020  0.4818
   86MOL   H27031040   1.126   7.460   4.443  0.6244  1.5011 -0.5099
   86MOL   H27131041   1.221   7.316   4.431 -1.1383 -1.2099  3.3594
   86MOL   C27231042   1.305   0.124   4.807  0.3050 -0.1411  0.2742
   86MOL   C27331043   1.367   0.265   4.852 -0.4239  0.0559  0.0222
   86MOL   C27431044   1.485   0.311   4.762  0.0736  0.1373 -0.6099
   86MOL   C27531045   1.620   0.250   4.797 -0.4398 -0.5985  0.9508
   86MOL   C27631046   1.736   0.272   4.699  0.1158 -0.1080  0.4374
   86MOL   C27731047   1.875   0.225   4.748  0.3638  0.2892  0.2921
   86MOL   H27831048   1.226   0.086   4.871  0.8384 -0.7894  0.5509
   86MOL   H27931049   1.381   0.047   4.822 -0.2188 -0.6733  0.2007
   86MOL   H28031050   1.294   0.344   4.837  0.2577  0.4878 -1.0892
   86MOL   H28131051   1.483   0.419   4.777  1.1525  0.0579  0.1675
   86MOL   H28231052   1.459   0.291   4.658 -1.3199  0.7707 -0.3947
   86MOL   H28331053   1.599   0.145   4.816  1.1584 -1.2219 -0.6083
   86MOL   H28431054   1.644   0.284   4.898  1.6914  1.4800 -0.2115
   86MOL   H28531055   1.719   0.220   4.605 -0.0440  0.6896  0.0303
   86MOL   H28631056   1.746   0.372   4.658  1.1937 -0.9335 -1.3704
   86MOL   H28731057   1.900   0.278   4.840 -0.1578  0.7961  0.1409
   86MOL   H28831058   1.882   0.117   4.765 -3.0813 -0.0491 -0.1465
   86MOL   H28931059   1.953   0.252   4.677  1.1232  1.8638  1.6668
   86MOL   C29031060   1.396   0.263   5.011 -0.6495  0.2514 -0.0343
   86MOL   C29131061   1.421   0.402   5.077 -0.0562  0.4211  0.1272
   86MOL   C29231062   1.299   0.492   5.101  0.1970  0.2433  0.1003
   86MOL   C29331063   1.313   0.637   5.136 -0.0605  0.0780  0.0117
   86MOL   C29431064   1.176   0.691   5.168  0.0208 -0.1997  0.1057
   86MOL   C29531065   1.160   0.845   5.167  0.1856  0.1950 -0.3862
   86MOL   H29631066   1.473   0.196   5.049  1.1997  1.7864 -0.9561
   86MOL   H29731067   1.304   0.228   5.057 -1.1157  0.3808 -0.8568
   86MOL   H29831068   1.480   0.462   5.008 -1.8093  2.1535  0.0761
   86MOL   H29931069   1.246   0.447   5.185 -1.2244  3.7126  1.1295
   86MOL   H30031070   1.227   0.482   5.020 -0.4377  3.3124  0.2435
   86MOL   H30131071   1.374   0.645   5.226 -1.3535  0.0576  0.9188
   86MOL   H30231072   1.375   0.681   5.058 -0.5638  0.3402 -0.2435
   86MOL   H30331073   1.143   0.645   5.261 -0.4997 -1.4511 -0.6898
   86MOL   H30431074   1.090   0.662   5.107 -2.7179  3.8409  1.8347
   86MOL   H30531075   1.061   0.890   5.174  1.0759  2.0777  0.4175
   86MOL   H30631076   1.206   0.880   5.074  3.0526 -0.1703  0.8324
   86MOL   H30731077   1.214   0.891   5.250 -3.5396  0.1216  2.1963
   86MOL   C30831078   1.501   0.383   5.210 -0.5805 -0.6055 -0.7544
   86MOL   C30931079   1.656   0.377   5.196  0.5552 -0.3249  0.0450
   86MOL   C31031080   1.717   0.310   5.320  0.2685 -0.7604 -0.1628
   86MOL   C31131081   1.685   0.159   5.330 -0.3545  0.0835 -0.6517
   86MOL   C31231082   1.796   0.071   5.285 -0.5688 -0.5963  0.5796
   86MOL   C31331083   1.781   7.652   5.336  0.0012  1.0212  0.3729
   86MOL   H31431084   1.478   0.459   5.284 -1.8990  0.1608 -1.9091
   86MOL   H31531085   1.472   0.290   5.258  0.6594 -0.1212  0.9577
   86MOL   H31631086   1.685   0.319   5.109  1.6092  0.5868 -0.2222
   86MOL   H31731087   1.668   0.356   5.406  1.0780 -0.2506  0.0229
   86MOL   H31831088   1.821   0.333   5.344 -0.5529  1.4735  1.4395
   86MOL   H31931089   1.590   0.119   5.294 -1.5880  1.2557  1.2050
   86MOL   H32031090   1.670   0.151   5.438  2.2769  1.3336 -0.1599
   86MOL   H32131091   1.812   0.088   5.179 -2.7780 -1.1404  0.1490
   86MOL   H32231092   1.887   0.112   5.330 -0.3886 -1.1640  0.7394
   86MOL   H32331093   1.770   7.655   5.444 -0.8798 -0.9043  0.3652
   86MOL   H32431094   1.871   7.591   5.321 -0.1103  0.3052  2.4624
   86MOL   H32531095   1.707   7.590   5.285  0.7458 -0.1902  0.7457
   86MOL   C32631096   1.715   0.519   5.179 -0.1270 -0.5703 -0.7076
   86MOL   C32731097   1.855   0.522   5.116 -0.1260  0.2060  0.0237
   86MOL   C32831098   1.850   0.539   4.959  0.8268 -0.1052  0.4418
   86MOL   C32931099   1.820   0.679   4.908 -0.1068  0.1563  0.8554
   86MOL   C33031100   1.814   0.689   4.754 -0.3786 -0.3181  0.3915
   86MOL   C33131101   1.946   0.669   4.670  0.2258 -0.4613 -0.1374
   86MOL   H33231102   1.711   0.564   5.278  1.5036 -2.2354  0.1405
   86MOL   H33331103   1.643   0.578   5.122 -2.1003 -2.3380 -0.1138
   86MOL   H33431104   1.899   0.423   5.128  0.4095  0.6657  2.0857
   86MOL   H33531105   1.947   0.511   4.920  1.2476  0.6118  0.9684
   86MOL   H33631106   1.777   0.468   4.920  1.9802 -1.8757  1.4692
   86MOL   H33731107   1.898   0.745   4.947 -0.5968  0.1568  1.8542
   86MOL   H33831108   1.728   0.718   4.951  0.2150  2.1478 -0.1930
   86MOL   H33931109   1.737   0.622   4.717 -0.6466  0.2784 -0.1187
   86MOL   H34031110   1.768   0.785   4.732  0.7530  1.2956  4.6238
   86MOL   H34131111   1.985   0.569   4.687 -0.0341 -0.3681  1.0474
   86MOL   H34231112   2.023   0.742   4.694 -0.9439  0.6030  0.4515
   86MOL   H34331113   1.941   0.668   4.561 -0.6172  1.1707 -0.1310
   86MOL   C34431114   1.951   0.628   5.188 -0.5538  0.0653  0.4583
   86MOL   C34531115   2.011   0.578   5.321 -0.4796  0.3078  0.3167
   86MOL   C34631116   2.119   0.666   5.382  0.6824 -0.7350  0.1759
   86MOL   C34731117   2.183   0.610   5.510  0.1102 -0.3344 -0.4572
   86MOL   C34831118   2.084   0.546   5.617 -0.0961  1.1535  0.7124
   86MOL   C34931119   2.128   0.547   5.760  0.0262 -0.0604  0.0251
   86MOL   H35031120   2.036   0.657   5.126 -0.3038  0.8389  1.1509
   86MOL   H35131121   1.893   0.718   5.205  0.9804  1.0215  0.7117
   86MOL   H35231122   2.041   0.474   5.306 -1.5963 -0.0804  0.7176
   86MOL   H35331123   2.199   0.681   5.310  1.0409 -0.7773  0.5631
   86MOL   H35431124   2.075   0.763   5.406  0.1020 -1.0805  0.5118
   86MOL   H35531125   2.260   0.533   5.500  0.4539 -0.1827  0.9134
   86MOL   H35631126   2.210   0.707   5.552 -1.0201  1.1883 -3.1434
   86MOL   H35731127   1.986   0.592   5.617  0.4879  2.4430  2.1963
   86MOL   H35831128   2.072   0.439   5.598 -0.7082  1.2783  0.3882
   86MOL   H35931129   2.228   0.506   5.769  0.7012  1.2964 -1.1612
   86MOL   H36031130   2.149   0.647   5.797 -1.4132  0.3664 -0.2644
   86MOL   H36131131   2.058   0.505   5.833  1.7091  0.0508  1.7451
   86MOL   H36231132   1.933   0.550   5.391 -1.3312  0.4835 -0.5498
   87MOL     C131133   3.367   2.114   3.582  0.4824  0.4003 -0.6391
   87MOL     C231134   3.339   1.974   3.647  0.2085 -0.3453  0.0886
   87MOL     C331135   3.440   1.867   3.604 -0.1467 -1.4742 -0.1796
   87MOL     C431136   3.448   1.748   3.706 -0.6967  0.4733  0.4212
   87MOL     C531137   3.567   1.652   3.678  0.4891  1.0710  0.7617
   87MOL     C631138   3.603   1.560   3.797  0.7137 -0.7998  0.5851
   87MOL     H731139   3.327   2.197   3.639 -0.2026  0.8093 -1.7000
   87MOL     H831140   3.473   2.133   3.564  0.5464  0.4741 -0.1809
   87MOL     H931141   3.348   1.983   3.755  1.6962  0.2375 -0.0806
   87MOL    H1031142   3.531   1.926   3.595 -0.1367 -1.4683 -0.0370
   87MOL    H1131143   3.428   1.845   3.498 -1.4981  2.3007 -0.9213
   87MOL    H1231144   3.352   1.697   3.706 -0.3782 -0.1386  0.1711
   87MOL    H1331145   3.468   1.790   3.805  1.5569  1.1484 -0.2815
   87MOL    H1431146   3.534   1.587   3.597  1.0390  0.2881  1.1647
   87MOL    H1531147   3.649   1.717   3.648  0.7806 -0.3306 -1.6278
   87MOL    H1631148   3.685   1.490   3.776  0.0260 -1.3321 -0.3743
   87MOL    H1731149   3.517   1.496   3.817 -0.4230  1.1473  2.0575
   87MOL    H1831150   3.632   1.626   3.878  0.2601  0.5964 -0.3697
   87MOL    H1931151   3.322   2.116   3.483 -0.6560 -1.4901 -0.2021
   87MOL    C2031152   3.195   1.918   3.621 -0.5039  0.6504  0.5623
   87MOL    C2131153   3.085   2.011   3.687  0.1662  0.9056 -0.7434
   87MOL    C2231154   2.955   2.017   3.604 -1.6220  0.0281  0.3181
   87MOL    C2331155   2.889   1.879   3.573  0.5896  0.0247 -1.1695
   87MOL    C2431156   2.769   1.880   3.484  0.2137  0.2515 -0.3512
   87MOL    C2531157   2.640   1.931   3.556  0.3055 -0.3352 -0.2182
   87MOL    H2631158   3.192   1.817   3.662  0.1554  0.1620 -0.5736
   87MOL    H2731159   3.189   1.915   3.512  0.6360 -1.1123  0.5406
   87MOL    H2831160   3.131   2.110   3.691 -3.1206  2.5153 -1.0178
   87MOL    H2931161   2.974   2.076   3.515  0.4409 -0.5168  0.3653
   87MOL    H3031162   2.895   2.100   3.639 -0.7155  0.2480  1.4144
   87MOL    H3131163   2.856   1.836   3.668 -0.0444  1.1891 -0.8576
   87MOL    H3231164   2.966   1.810   3.538 -2.2894 -3.2616 -1.3556
   87MOL    H3331165   2.789   1.945   3.399  1.9458  2.0730  1.3928
   87MOL    H3431166   2.749   1.778   3.451 -0.7950  0.4572 -0.3880
   87MOL    H3531167   2.616   1.870   3.643 -0.9368  0.9905  0.3811
   87MOL    H3631168   2.649   2.034   3.589  0.0001 -0.7506  1.1769
   87MOL    H3731169   2.552   1.923   3.493 -0.1007  2.1126 -0.0162
   87MOL    C3831170   3.076   1.977   3.834  0.5736 -1.1818  0.2347
   87MOL    C3931171   3.015   2.090   3.919  0.1075  0.6566  0.0132
   87MOL    C4031172   2.958   2.027   4.043 -0.4484 -0.3894 -0.4245
   87MOL    C4131173   2.869   1.910   4.041  0.6976 -0.3385  0.1614
   87MOL    C4231174   2.752   1.936   3.942 -0.0923 -0.3340 -0.1574
   87MOL    C4331175   2.665   1.818   3.931  0.0849 -0.4307  1.1815
   87MOL    H4431176   3.175   1.966   3.878  0.6459 -1.4748  0.0001
   87MOL    H4531177   3.028   1.879   3.838 -0.5639 -0.5982  1.2758
   87MOL    H4631178   2.935   2.132   3.858  1.0574  1.7452 -0.5091
   87MOL    H4731179   3.048   1.996   4.097  0.5133  1.4364 -0.9406
   87MOL    H4831180   2.896   2.092   4.104  1.2401  0.6702  0.1921
   87MOL    H4931181   2.919   1.815   4.019  3.9573  1.4665 -0.6173
   87MOL    H5031182   2.831   1.898   4.142  0.7317  3.3135  0.6660
   87MOL    H5131183   2.699   2.024   3.979  0.6369 -0.0438  0.2057
   87MOL    H5231184   2.782   1.961   3.840  1.4437 -0.6347  0.2080
   87MOL    H5331185   2.612   1.797   4.024 -1.0390 -0.4345  0.5486
   87MOL    H5431186   2.719   1.728   3.901 -1.5972 -1.2353  0.5238
   87MOL    H5531187   2.591   1.832   3.852  1.7302 -1.2283 -0.5629
   87MOL    C5631188   3.113   2.207   3.952 -0.0713 -0.5789  0.7571
   87MOL    C5731189   3.052   2.323   4.043 -0.4637  0.1945  0.3949
   87MOL    C5831190   2.928   2.392   3.974  0.2738  0.7045 -0.7885
   87MOL    C5931191   2.968   2.463   3.840 -0.2474 -0.4399 -0.5652
   87MOL    C6031192   2.850   2.556   3.790  0.2668  0.1920  0.0864
   87MOL    C6131193   2.727   2.473   3.726  0.0419 -0.0560 -0.7648
   87MOL    H6231194   3.185   2.163   4.021  1.2485  1.4048  0.6890
   87MOL    H6331195   3.163   2.258   3.870 -2.1677 -0.4457 -0.4836
   87MOL    H6431196   3.027   2.276   4.138  2.4788 -2.1082  0.1045
   87MOL    H6531197   2.850   2.319   3.958 -0.1146  0.5021  1.8173
   87MOL    H6631198   2.876   2.459   4.043  0.1592  0.8182 -0.9862
   87MOL    H6731199   2.981   2.398   3.753  1.0681  0.5809 -1.1622
   87MOL    H6831200   3.053   2.530   3.850  0.4152 -1.4813  0.9491
   87MOL    H6931201   2.821   2.603   3.885  0.9934 -2.0798  1.4731
   87MOL    H7031202   2.886   2.635   3.724 -1.7937  1.7084  0.7182
   87MOL    H7131203   2.661   2.549   3.685  2.1708  1.3578 -1.6599
   87MOL    H7231204   2.770   2.414   3.644  1.1572 -0.6541  0.2359
   87MOL    H7331205   2.681   2.400   3.793 -1.2718 -0.0801 -1.6792
   87MOL    C7431206   3.160   2.420   4.090 -0.0003 -0.1978  0.1638
   87MOL    C7531207   3.113   2.553   4.152 -0.1463 -0.2034 -0.1692
   87MOL    C7631208   3.055   2.514   4.295 -0.4269 -0.1521  1.0471
   87MOL    C7731209   2.963   2.624   4.354 -1.2925 -0.7479  0.0503
   87MOL    C7831210   2.908   2.581   4.492 -0.2818  0.2091  0.6692
   87MOL    C7931211   2.793   2.673   4.539  0.1164  0.2832 -0.3516
   87MOL    H8031212   3.229   2.359   4.149  0.0175 -0.4423 -0.1052
   87MOL    H8131213   3.218   2.439   4.000  0.8193  0.5341  0.8429
   87MOL    H8231214   3.038   2.603   4.090  0.1070 -1.0333 -1.1662
   87MOL    H8331215   2.989   2.430   4.275  1.5508 -1.4601 -0.1083
   87MOL    H8431216   3.124   2.485   4.374 -2.4372 -0.3197  2.7946
   87MOL    H8531217   3.012   2.721   4.359 -1.1345 -0.9084  2.3845
   87MOL    H8631218   2.883   2.649   4.284 -1.8684  1.7157  1.5330
   87MOL    H8731219   2.989   2.584   4.564 -0.4796  0.0635  0.8998
   87MOL    H8831220   2.868   2.479   4.487  0.6209 -0.2205  1.9594
   87MOL    H8931221   2.721   2.687   4.459  1.0335 -1.6629 -1.5411
   87MOL    H9031222   2.742   2.629   4.625  3.0073 -1.3466  0.5968
   87MOL    H9131223   2.830   2.769   4.576 -0.2027  0.2705  0.0012
   87MOL    C9231224   3.234   2.653   4.174 -0.0296 -0.0970  0.1300
   87MOL    C9331225   3.297   2.710   4.050 -0.0185  0.1556  0.6368
   87MOL    C9431226   3.200   2.810   3.981  0.1651 -0.1792 -0.0940
   87MOL    C9531227   3.202   2.808   3.830 -0.5670 -0.3534  0.6142
   87MOL    C9631228   3.100   2.905   3.763  0.0951  0.1149  0.2715
   87MOL    C9731229   3.132   3.047   3.800  0.3164  0.3781  0.1040
   87MOL    H9831230   3.184   2.729   4.234 -1.4560  0.1677 -1.3308
   87MOL    H9931231   3.300   2.606   4.246  0.3214 -1.4833 -1.0781
   87MOL   H10031232   3.304   2.629   3.978  0.6044 -0.0766  0.9573
   87MOL   H10131233   3.233   2.910   4.010  1.4011 -1.2667  2.3303
   87MOL   H10231234   3.097   2.813   4.017  1.0999  1.3402  2.6023
   87MOL   H10331235   3.299   2.828   3.786 -1.7021  0.2453 -1.7186
   87MOL   H10431236   3.172   2.711   3.788  0.2789 -1.1164  1.7366
   87MOL   H10531237   3.094   2.898   3.655  0.3356 -0.2347  0.2820
   87MOL   H10631238   2.997   2.884   3.791 -0.1408 -1.6587 -1.8016
   87MOL   H10731239   3.231   3.077   3.766 -0.9766  1.4388 -2.8820
   87MOL   H10831240   3.057   3.112   3.756 -1.7675 -1.1199  1.4017
   87MOL   H10931241   3.134   3.063   3.908 -1.7104 -3.9556  0.8790
   87MOL   C11031242   3.435   2.769   4.083  0.3958 -0.2045 -0.9376
   87MOL   C11131243   3.529   2.787   3.964 -0.1562 -0.6321  0.2390
   87MOL   C11231244   3.571   2.647   3.904 -0.5025 -0.2962  0.2798
   87MOL   C11331245   3.627   2.638   3.754 -0.2166 -0.4573  0.3919
   87MOL   C11431246   3.676   2.492   3.722  0.4874 -0.6109  0.2110
   87MOL   C11531247   3.567   2.406   3.650  0.1011 -0.3381 -0.2696
   87MOL   H11631248   3.411   2.871   4.111  2.0808 -0.0769  0.0823
   87MOL   H11731249   3.477   2.716   4.168  0.0267  2.0235  0.6739
   87MOL   H11831250   3.479   2.833   3.879  0.6648  0.7518  0.4794
   87MOL   H11931251   3.487   2.579   3.920 -1.3005  1.1696  2.5314
   87MOL   H12031252   3.650   2.601   3.963 -0.4300 -0.9382 -0.3053
   87MOL   H12131253   3.705   2.713   3.741 -0.3491 -0.3736  0.0563
   87MOL   H12231254   3.553   2.676   3.683  0.0439  1.7283  1.2595
   87MOL   H12331255   3.715   2.443   3.810 -1.8216 -2.3320  0.3443
   87MOL   H12431256   3.762   2.493   3.655 -0.3066 -1.1640 -0.8393
   87MOL   H12531257   3.532   2.449   3.556 -0.9129  1.6390  0.9576
   87MOL   H12631258   3.594   2.302   3.635 -1.8253 -0.6849 -1.5105
   87MOL   H12731259   3.478   2.395   3.712 -1.0799 -0.8336 -2.0187
   87MOL   C12831260   3.647   2.887   3.995 -0.3613  0.0149 -0.0152
   87MOL   C12931261   3.617   3.023   4.065  0.1751  0.4387 -0.0079
   87MOL   C13031262   3.534   3.111   3.969 -0.3971 -0.0943  0.3827
   87MOL   C13131263   3.485   3.244   4.026 -0.1087  0.0992 -0.3369
   87MOL   C13231264   3.378   3.308   3.933  0.1638 -0.2773 -0.3143
   87MOL   C13331265   3.318   3.432   3.997 -0.0727 -0.0447  0.2983
   87MOL   H13431266   3.705   2.902   3.905  1.2796 -0.4248  0.9478
   87MOL   H13531267   3.724   2.842   4.059  0.1424  2.6091  1.2745
   87MOL   H13631268   3.553   3.021   4.153  0.9494  0.6986  0.5697
   87MOL   H13731269   3.598   3.119   3.881  0.7562  0.9215  1.2920
   87MOL   H13831270   3.454   3.064   3.912 -0.4569 -0.2934  0.6294
   87MOL   H13931271   3.562   3.316   4.055  0.9363  0.0483 -2.8776
   87MOL   H14031272   3.443   3.225   4.125  0.7675 -0.7467 -0.1125
   87MOL   H14131273   3.440   3.323   3.844  0.6802 -1.5969 -0.1820
   87MOL   H14231274   3.301   3.237   3.904  2.1337 -2.4326 -0.3935
   87MOL   H14331275   3.401   3.494   4.032 -1.4322  0.5523  2.6065
   87MOL   H14431276   3.261   3.413   4.088 -0.3356 -0.6037  0.0142
   87MOL   H14531277   3.265   3.502   3.932  1.3844  1.3834  0.5929
   87MOL   C14631278   3.753   3.096   4.093 -0.4262  0.7489 -0.0950
   87MOL   C14731279   3.845   3.028   4.202 -0.1691 -0.6365  0.3959
   87MOL   C14831280   3.774   3.000   4.335 -0.1009 -0.0014  0.0549
   87MOL   C14931281   3.707   3.119   4.408  0.0063  0.2804 -0.2856
   87MOL   C15031282   3.633   3.084   4.538 -0.6318  0.2571  0.1108
   87MOL   C15131283   3.535   3.185   4.578 -0.0301 -1.0498 -0.1173
   87MOL   H15231284   3.808   3.095   3.999 -0.3700 -1.2098 -0.0669
   87MOL   H15331285   3.743   3.201   4.120 -2.2996  0.6704 -0.4258
   87MOL   H15431286   3.888   2.934   4.167  1.3704 -0.3141  1.3697
   87MOL   H15531287   3.852   2.956   4.398 -0.2204  0.6557  0.6698
   87MOL   H15631288   3.706   2.916   4.318 -0.8086  0.7896 -1.0617
   87MOL   H15731289   3.771   3.206   4.419 -0.6958  0.5677  1.8214
   87MOL   H15831290   3.640   3.157   4.331  0.7272  3.3566  0.5446
   87MOL   H15931291   3.701   3.059   4.619 -0.6576  1.3511  0.4811
   87MOL   H16031292   3.594   2.984   4.517 -1.5028  0.2671  1.6102
   87MOL   H16131293   3.455   3.137   4.635  0.3471  1.7985  2.9724
   87MOL   H16231294   3.587   3.254   4.645  0.0744 -2.8659  1.6989
   87MOL   H16331295   3.484   3.231   4.493  0.8677  0.9032  0.3568
   87MOL   C16431296   3.984   3.099   4.216  0.1515 -0.1525  0.6285
   87MOL   C16531297   4.091   3.083   4.106  0.3612 -0.2514 -0.5157
   87MOL   C16631298   4.188   3.200   4.100  0.5527  0.1037 -0.3315
   87MOL   C16731299   4.121   3.330   4.058  0.5163 -0.5906  0.0279
   87MOL   C16831300   4.217   3.447   4.073  0.0940  0.4322  0.2888
   87MOL   C16931301   4.212   3.553   3.962 -0.6227  0.3970  0.2497
   87MOL   H17031302   3.974   3.204   4.245 -0.0829  0.7158 -2.4904
   87MOL   H17131303   4.036   3.068   4.307 -1.9591 -1.8829  1.3032
   87MOL   H17231304   4.038   3.090   4.011 -0.0567  1.5430 -0.1572
   87MOL   H17331305   4.264   3.180   4.025 -0.3453 -0.4916 -1.0972
   87MOL   H17431306   4.231   3.194   4.200 -1.6653  0.9292  0.6970
   87MOL   H17531307   4.030   3.353   4.113  1.3090  0.7068  0.8030
   87MOL   H17631308   4.090   3.322   3.953  1.0419 -1.6408 -0.0458
   87MOL   H17731309   4.320   3.411   4.075 -0.3530 -0.8772  0.6689
   87MOL   H17831310   4.206   3.483   4.175  0.0134  0.0147  0.4306
   87MOL   H17931311   4.293   3.624   3.976  0.6276 -1.5060  3.2916
   87MOL   H18031312   4.123   3.612   3.943 -0.0892  1.6050  1.4236
   87MOL   H18131313   4.232   3.497   3.870 -2.3103 -0.1983  0.2239
   87MOL   C18231314   4.163   2.947   4.131 -0.7267  0.2691  0.0407
   87MOL   C18331315   4.267   2.895   4.024  0.0869  0.6157  0.3623
   87MOL   C18431316   4.198   2.868   3.887  0.1783 -0.6053 -0.2714
   87MOL   C18531317   4.255   2.772   3.782  0.1013 -0.1511 -0.4563
   87MOL   C18631318   4.157   2.738   3.664  0.4447  0.3780  0.3972
   87MOL   C18731319   4.024   2.672   3.693 -0.0501  0.5145 -0.5715
   87MOL   H18831320   4.215   2.964   4.225  0.7381 -0.9906 -0.5052
   87MOL   H18931321   4.097   2.866   4.162 -2.2523  1.3277 -0.4107
   87MOL   H19031322   4.342   2.973   4.017  1.2659 -0.4018  1.4587
   87MOL   H19131323   4.105   2.825   3.921 -0.5599  0.6672 -0.6334
   87MOL   H19231324   4.179   2.965   3.840 -1.1448 -1.3252 -1.2278
   87MOL   H19331325   4.281   2.679   3.831  0.3296  0.1727  0.0386
   87MOL   H19431326   4.349   2.811   3.743  1.1382  0.6116  2.7054
   87MOL   H19531327   4.211   2.677   3.592  0.8113  0.4540  0.6041
   87MOL   H19631328   4.146   2.837   3.620  0.4968 -0.6138 -1.9259
   87MOL   H19731329   3.952   2.677   3.611 -0.7632 -0.7860 -0.0408
   87MOL   H19831330   3.978   2.721   3.778 -0.4885 -1.3286  0.2761
   87MOL   H19931331   4.037   2.567   3.722 -1.4586  0.4874 -0.0301
   87MOL   C20031332   4.332   2.767   4.072  0.0649 -0.2747  0.1206
   87MOL   C20131333   4.485   2.778   4.053 -0.0532 -0.1825  0.0574
   87MOL   C20231334   4.564   2.884   4.148  0.2502  0.3010  0.0444
   87MOL   C20331335   4.573   2.819   4.281 -0.4917  0.3869 -1.0298
   87MOL   C20431336   4.575   2.913   4.402 -0.1553  0.1232  0.1810
   87MOL   C20531337   4.435   2.977   4.419  0.0147 -0.0744 -0.5223
   87MOL   H20631338   4.291   2.674   4.032  1.2313 -0.4233 -0.7213
   87MOL   H20731339   4.304   2.754   4.177  0.0328  1.9129  0.4028
   87MOL   H20831340   4.483   2.818   3.951 -0.9383 -1.2744 -0.3768
   87MOL   H20931341   4.503   2.974   4.162  1.5455  1.1580  0.2561
   87MOL   H21031342   4.658   2.922   4.109 -1.2565  3.3616 -0.8285
   87MOL   H21131343   4.652   2.744   4.286 -0.6862  0.2042 -0.7424
   87MOL   H21231344   4.490   2.752   4.300  2.0309 -2.3634  0.7584
   87MOL   H21331345   4.662   2.979   4.406 -0.1013 -0.0125  1.4357
   87MOL   H21431346   4.587   2.856   4.494 -3.1443 -1.3223 -0.2558
   87MOL   H21531347   4.404   3.043   4.339  1.5053  1.4650  0.1338
   87MOL   H21631348   4.366   2.900   4.453  1.3639 -0.3949  1.6379
   87MOL   H21731349   4.434   3.043   4.507  0.0055 -1.2988  0.4095
   87MOL   C21831350   4.545   2.635   4.042 -0.6425  0.2288  0.0089
   87MOL   C21931351   4.689   2.623   3.996 -0.0906  0.3395  0.5719
   87MOL   C22031352   4.705   2.691   3.861 -0.3279 -0.0953  0.7329
   87MOL   C22131353   4.616   2.640   3.749 -0.5137 -0.2079  0.3535
   87MOL   C22231354   4.653   2.696   3.607  0.3281  0.1127  0.1168
   87MOL   C22331355   4.552   2.641   3.508  0.2265  0.3476 -0.2792
   87MOL   H22431356   4.551   2.595   4.143 -1.5488  1.6664  0.6564
   87MOL   H22531357   4.476   2.576   3.982  0.7792 -1.3944 -0.0702
   87MOL   H22631358   4.750   2.688   4.058  2.0821  0.7451 -1.9511
   87MOL   H22731359   4.807   2.703   3.826 -0.7991  2.0415 -0.0159
   87MOL   H22831360   4.685   2.797   3.876  0.3112 -0.3883  4.0404
   87MOL   H22931361   4.511   2.668   3.762 -0.9821 -1.9622  0.5477
   87MOL   H23031362   4.627   2.532   3.740  0.9825  0.0225 -0.7818
   87MOL   H23131363   4.663   2.804   3.608 -1.7184  0.3721 -2.3245
   87MOL   H23231364   4.749   2.655   3.577  1.3883  2.5768  0.0598
   87MOL   H23331365   4.574   2.666   3.404 -1.0641 -1.3938 -0.9908
   87MOL   H23431366   4.450   2.669   3.534  0.7457  2.0301  0.0001
   87MOL   H23531367   4.555   2.532   3.514  0.4198  0.1457 -3.4986
   87MOL   C23631368   4.743   2.475   3.999  0.1363  0.8378  0.1064
   87MOL   C23731369   4.902   2.454   3.995 -0.2433  0.1540  0.0889
   87MOL   C23831370   4.930   2.303   3.975  0.9295 -0.3375 -0.1069
   87MOL   C23931371   5.076   2.274   3.933  0.6579 -0.1729  0.1473
   87MOL   C24031372   5.102   2.124   3.904 -0.1761 -0.3894 -0.5608
   87MOL   C24131373   5.252   2.090   3.875 -0.0289 -0.2778 -0.0634
   87MOL   H24231374   4.705   2.422   4.087  2.5118  0.9154  1.2264
   87MOL   H24331375   4.703   2.432   3.907 -2.5441 -0.9116  2.0134
   87MOL   H24431376   4.923   2.503   3.900 -0.3359 -0.5002 -0.2728
   87MOL   H24531377   4.911   2.248   4.067  1.2145  1.7471  1.2367
   87MOL   H24631378   4.873   2.262   3.892  0.5729 -1.3039  0.6179
   87MOL   H24731379   5.150   2.305   4.006  0.6141  0.3148 -0.0154
   87MOL   H24831380   5.096   2.338   3.847 -0.8315 -0.1817 -0.2344
   87MOL   H24931381   5.072   2.066   3.991  0.8637  1.5053  1.0896
   87MOL   H25031382   5.045   2.086   3.819 -2.0211  2.2116 -0.5300
   87MOL   H25131383   5.313   2.086   3.966  1.2050 -0.2156 -0.8710
   87MOL   H25231384   5.258   1.987   3.840  1.2996 -0.0429 -0.5423
   87MOL   H25331385   5.297   2.145   3.793 -1.6124  1.5788  0.2861
   87MOL   C25431386   4.963   2.515   4.131 -0.7036 -0.0236 -0.1086
   87MOL   C25531387   5.046   2.647   4.110 -0.1481  0.8204 -0.1162
   87MOL   C25631388   5.165   2.616   4.010  0.2377  0.4696  0.2658
   87MOL   C25731389   5.203   2.741   3.926  0.0533  0.9583  0.5620
   87MOL   C25831390   5.274   2.696   3.794  0.4300 -0.0105  0.2738
   87MOL   C25931391   5.277   2.802   3.682 -0.4023  0.4921 -0.2330
   87MOL   H26031392   5.023   2.435   4.176 -1.3218 -0.7383 -0.5480
   87MOL   H26131393   4.876   2.534   4.193 -1.3879  0.7044 -1.2820
   87MOL   H26231394   4.978   2.722   4.070 -0.6763  0.8020  0.7308
   87MOL   H26331395   5.258   2.572   4.046 -1.3550 -3.1770  0.1383
   87MOL   H26431396   5.124   2.549   3.935 -0.0603  0.1490  0.7127
   87MOL   H26531397   5.122   2.800   3.883 -1.0254  0.6769  2.1794
   87MOL   H26631398   5.261   2.813   3.983  0.4948  1.2103 -0.1961
   87MOL   H26731399   5.233   2.602   3.757 -0.5251  0.3101  0.4911
   87MOL   H26831400   5.376   2.681   3.828  0.1972  0.5642  1.2595
   87MOL   H26931401   5.177   2.836   3.656 -0.9959 -1.0631 -0.0192
   87MOL   H27031402   5.333   2.761   3.598  1.4848 -0.9235  1.6652
   87MOL   H27131403   5.331   2.891   3.715 -0.7714  0.4441  0.4965
   87MOL   C27231404   5.119   2.695   4.242 -0.4903  0.3863 -1.0409
   87MOL   C27331405   5.043   2.779   4.344  0.5258 -0.3248  0.5826
   87MOL   C27431406   4.934   2.707   4.419  0.3192 -0.6197  0.0120
   87MOL   C27531407   4.903   2.776   4.557 -0.0425  0.2713  0.2879
   87MOL   C27631408   4.871   2.689   4.679  0.1006  0.3686  0.1991
   87MOL   C27731409   4.752   2.585   4.664  0.1743  0.0308  0.3867
   87MOL   H27831410   5.174   2.616   4.292  1.4710  0.7215 -2.5943
   87MOL   H27931411   5.206   2.751   4.208 -0.1651  0.2364 -0.4612
   87MOL   H28031412   5.116   2.807   4.420  2.3469 -2.0124 -0.5118
   87MOL   H28131413   4.985   2.612   4.439  1.5232 -0.0116 -0.1464
   87MOL   H28231414   4.848   2.688   4.354  1.3186  0.4582 -1.6520
   87MOL   H28331415   4.821   2.845   4.542 -0.5419  0.0666  1.9984
   87MOL   H28431416   4.987   2.842   4.576  0.6474 -0.8676  1.3012
   87MOL   H28531417   4.960   2.634   4.709 -0.3526 -0.3539  0.2283
   87MOL   H28631418   4.854   2.756   4.763  3.2756  0.9546  0.4566
   87MOL   H28731419   4.656   2.635   4.656  0.3738  0.6534  1.7366
   87MOL   H28831420   4.779   2.517   4.583  1.8604  0.3367  0.6651
   87MOL   H28931421   4.730   2.522   4.751  0.8507 -0.8628 -0.0827
   87MOL   C29031422   4.983   2.910   4.280 -0.4142 -0.5995 -0.2049
   87MOL   C29131423   5.088   3.018   4.258  0.0528 -0.1042  0.0980
   87MOL   C29231424   5.041   3.121   4.150  0.2530 -1.1544 -0.0063
   87MOL   C29331425   5.037   3.051   4.011  0.1808  0.0977 -0.7267
   87MOL   C29431426   5.017   3.149   3.885 -0.3701  0.1527 -1.3047
   87MOL   C29531427   4.959   3.063   3.761  0.0725  0.4313  0.1450
   87MOL   H29631428   4.916   2.954   4.354  0.0101  1.2311 -0.8857
   87MOL   H29731429   4.921   2.885   4.194  1.2201 -1.1868 -1.2256
   87MOL   H29831430   5.182   2.971   4.230  1.1475  2.8901 -1.4598
   87MOL   H29931431   5.109   3.206   4.139  0.6418 -1.5684 -0.8596
   87MOL   H30031432   4.951   3.172   4.183  0.7882  0.0225 -0.3068
   87MOL   H30131433   5.134   3.004   3.999  0.0850 -0.6470  1.2561
   87MOL   H30231434   4.955   2.979   4.001 -0.3214  0.7486 -1.2964
   87MOL   H30331435   5.108   3.203   3.859  0.9214 -0.6007  1.4623
   87MOL   H30431436   4.945   3.224   3.919 -2.0736 -2.8671  2.1521
   87MOL   H30531437   4.934   3.125   3.675  1.6915 -1.7931 -1.9955
   87MOL   H30631438   4.865   3.017   3.791  0.3061  1.0527  1.9173
   87MOL   H30731439   5.030   2.983   3.739 -0.0594  0.3592 -0.0160
   87MOL   C30831440   5.123   3.093   4.384 -0.4089  0.1879 -0.1419
   87MOL   C30931441   5.252   3.183   4.376 -0.1400  0.5640 -0.2478
   87MOL   C31031442   5.380   3.097   4.355 -1.1545  0.7086 -0.3968
   87MOL   C31131443   5.414   3.002   4.473  0.1503 -0.4716  0.3610
   87MOL   C31231444   5.567   2.959   4.463  0.2216 -0.2375  0.3226
   87MOL   C31331445   5.582   2.826   4.388 -0.3979 -0.1100 -0.0278
   87MOL   H31431446   5.032   3.146   4.413 -0.4553 -1.2940  2.5368
   87MOL   H31531447   5.131   3.033   4.475 -0.0356 -2.8055 -2.0917
   87MOL   H31631448   5.242   3.249   4.290 -1.1655  1.9181  0.8878
   87MOL   H31731449   5.462   3.165   4.336 -0.2137 -0.5085 -0.7442
   87MOL   H31831450   5.369   3.031   4.269  0.9986 -0.9926  0.5838
   87MOL   H31931451   5.351   2.914   4.485  0.0766 -0.5491 -0.5515
   87MOL   H32031452   5.408   3.055   4.568 -0.9772 -0.3693  0.2399
   87MOL   H32131453   5.627   3.033   4.410  1.1518 -1.6613 -0.6455
   87MOL   H32231454   5.605   2.948   4.565  0.7390  1.0725  0.2806
   87MOL   H32331455   5.552   2.831   4.283  0.5997  0.3993 -0.2955
   87MOL   H32431456   5.516   2.759   4.443  0.3638 -2.1936 -1.5900
   87MOL   H32531457   5.687   2.801   4.376  0.0313  1.5257  0.1663
   87MOL   C32631458   5.259   3.272   4.498  0.0053  0.0070  0.2901
   87MOL   C32731459   5.170   3.399   4.503  0.7266 -0.0601  0.2133
   87MOL   C32831460   5.125   3.440   4.638  0.0461 -0.3824 -0.1634
   87MOL   C32931461   5.070   3.331   4.735 -0.5843  0.7560  0.5270
   87MOL   C33031462   5.017   3.399   4.859 -0.4046 -0.6382  0.2753
   87MOL   C33131463   5.120   3.428   4.964  0.6834  0.2947 -0.8752
   87MOL   H33231464   5.365   3.289   4.514 -0.3584  1.2396  1.4798
   87MOL   H33331465   5.234   3.208   4.582  0.1393  0.2024  0.4763
   87MOL   H33431466   5.078   3.388   4.445  1.9525 -0.0031 -1.7816
   87MOL   H33531467   5.203   3.494   4.692 -1.4135  0.7591  0.8802
   87MOL   H33631468   5.054   3.523   4.629 -0.5334 -0.7194  1.1174
   87MOL   H33731469   5.143   3.254   4.761  0.0487  0.8086 -1.0123
   87MOL   H33831470   4.998   3.269   4.681 -0.5360 -0.0416  1.3708
   87MOL   H33931471   4.965   3.492   4.834 -0.8591 -1.5517 -2.2829
   87MOL   H34031472   4.943   3.332   4.902 -1.0230 -0.2076 -0.1018
   87MOL   H34131473   5.064   3.463   5.051  0.9483 -1.7934  0.1586
   87MOL   H34231474   5.204   3.490   4.933  0.8994 -0.0388 -0.9638
   87MOL   H34331475   5.162   3.329   4.982  0.4658  0.3344 -0.1370
   87MOL   C34431476   5.240   3.520   4.432  0.2356 -0.1003 -0.1344
   87MOL   C34531477   5.150   3.604   4.331  0.3478 -0.2055 -0.3564
   87MOL   C34631478   5.125   3.518   4.205  0.3038 -0.3612 -0.1062
   87MOL   C34731479   5.072   3.605   4.089 -0.1777 -0.4869  0.2272
   87MOL   C34831480   4.921   3.643   4.098 -0.5499 -0.1406  0.5109
   87MOL   C34931481   4.868   3.731   3.979 -0.4819  0.1442 -0.0520
   87MOL   H35031482   5.269   3.589   4.511  1.9100 -0.9510  0.0133
   87MOL   H35131483   5.337   3.504   4.385  1.4736 -0.1794  2.3591
   87MOL   H35231484   5.199   3.696   4.301  0.1827  0.3492  1.0343
   87MOL   H35331485   5.222   3.476   4.175  0.6712  1.5491 -1.7202
   87MOL   H35431486   5.050   3.442   4.226 -0.4512 -0.1110 -1.8472
   87MOL   H35531487   5.132   3.694   4.071 -0.5624 -0.3411 -0.3530
   87MOL   H35631488   5.082   3.556   3.993  4.6752 -2.2136  1.4938
   87MOL   H35731489   4.862   3.554   4.119  1.0283 -1.4135 -0.3908
   87MOL   H35831490   4.916   3.711   4.183  2.2691  0.3990  0.2873
   87MOL   H35931491   4.863   3.674   3.886 -0.3735 -0.3350  0.2376
   87MOL   H36031492   4.764   3.764   3.981 -0.2315  0.9866 -0.8955
   87MOL   H36131493   4.932   3.819   3.972  1.9343 -1.4720  1.0982
   87MOL   H36231494   5.053   3.636   4.369  0.7618 -1.0525  1.4793
   88MOL     C131495   7.038   5.137   0.908 -0.2784  0.2278  0.0222
   88MOL     C231496   6.895   5.194   0.914  0.3337  0.2909  0.3661
   88MOL     C331497   6.788   5.100   0.847  0.0169  0.2567 -0.2802
   88MOL     C431498   6.798   4.945   0.888  0.0612 -0.3183  0.2586
   88MOL     C531499   6.684   4.862   0.818  0.0136  0.4512 -0.5942
   88MOL     C631500   6.689   4.711   0.817 -0.0996  0.2745  0.5429
   88MOL     H731501   7.116   5.200   0.949 -0.2976 -0.3990  1.0266
   88MOL     H831502   7.053   5.049   0.970 -0.0960 -0.7563 -1.3846
   88MOL     H931503   6.861   5.201   1.018 -1.6846  2.6123 -0.3918
   88MOL    H1031504   6.811   5.109   0.741  0.8630  2.0525  0.0427
   88MOL    H1131505   6.688   5.143   0.859  0.7875  2.3881 -1.1850
   88MOL    H1231506   6.794   4.936   0.996 -0.0166 -1.8519  0.1288
   88MOL    H1331507   6.892   4.908   0.846 -0.7657 -1.0766 -0.9479
   88MOL    H1431508   6.588   4.897   0.854 -1.0881 -3.9974  1.1504
   88MOL    H1531509   6.683   4.885   0.711 -0.0611 -2.1751 -1.2031
   88MOL    H1631510   6.701   4.674   0.919 -1.3832  0.4157  0.7543
   88MOL    H1731511   6.766   4.663   0.756 -0.4402  0.0640  0.2823
   88MOL    H1831512   6.596   4.670   0.780 -0.3178  0.5428  0.7917
   88MOL    H1931513   7.069   5.110   0.807  2.2209  0.1956  0.7765
   88MOL    C2031514   6.879   5.341   0.859 -0.0477 -0.6243  0.3022
   88MOL    C2131515   6.913   5.449   0.968  0.0359  0.4609  0.1606
   88MOL    C2231516   6.946   5.580   0.898  0.2036 -0.0023  0.3077
   88MOL    C2331517   7.089   5.631   0.917  0.1523 -0.1095  0.4614
   88MOL    C2431518   7.104   5.771   0.855  0.1692 -0.1042  0.8001
   88MOL    C2531519   7.086   5.787   0.703  0.9824  0.6927 -0.1004
   88MOL    H2631520   6.783   5.360   0.810  0.1092 -1.8630 -0.4955
   88MOL    H2731521   6.956   5.349   0.783  0.3301  0.8392  0.8140
   88MOL    H2831522   7.004   5.408   1.011 -0.5373 -0.2418  0.7171
   88MOL    H2931523   6.874   5.656   0.927 -2.1561 -1.7271 -0.8997
   88MOL    H3031524   6.932   5.564   0.791  1.5967  0.3027  0.0684
   88MOL    H3131525   7.167   5.565   0.878 -1.0734 -0.9431 -0.5904
   88MOL    H3231526   7.099   5.631   1.026 -0.7597  2.9260  0.5839
   88MOL    H3331527   7.024   5.834   0.894  1.5373  2.2585 -0.0930
   88MOL    H3431528   7.199   5.810   0.891 -0.3905  1.1496  0.9498
   88MOL    H3531529   7.159   5.734   0.642  0.0304 -0.5772 -0.1594
   88MOL    H3631530   6.984   5.756   0.682  2.0130 -1.4609 -2.0823
   88MOL    H3731531   7.080   5.893   0.676  0.3595  0.5417 -0.5607
   88MOL    C3831532   6.806   5.465   1.072 -0.7550 -0.3971 -0.2349
   88MOL    C3931533   6.848   5.527   1.204 -0.0828  0.5392  0.9230
   88MOL    C4031534   6.736   5.618   1.262  0.0560  0.8132 -0.6101
   88MOL    C4131535   6.706   5.735   1.182  0.1697 -0.4766  0.6702
   88MOL    C4231536   6.826   5.832   1.165 -0.5276 -0.2081  0.1738
   88MOL    C4331537   6.790   5.963   1.095  0.2498 -0.2400  0.2153
   88MOL    H4431538   6.766   5.367   1.097  1.8035 -1.1857  0.9501
   88MOL    H4531539   6.719   5.514   1.028 -0.1260  1.5694  0.6357
   88MOL    H4631540   6.929   5.598   1.189  1.4878 -1.9186 -2.9640
   88MOL    H4731541   6.653   5.550   1.282  0.5062  0.6518  0.8002
   88MOL    H4831542   6.749   5.667   1.359 -1.1897 -0.7228  0.3716
   88MOL    H4931543   6.684   5.710   1.078 -3.8207  1.1845  1.0108
   88MOL    H5031544   6.614   5.792   1.197  0.1531 -0.4316  0.3990
   88MOL    H5131545   6.864   5.857   1.264 -1.8813  0.7901  0.4621
   88MOL    H5231546   6.917   5.799   1.114  0.0710  2.3769 -0.5162
   88MOL    H5331547   6.744   5.932   1.001 -0.8787  0.1965  0.6196
   88MOL    H5431548   6.861   6.045   1.085 -1.0011  1.1778  2.5550
   88MOL    H5531549   6.707   6.015   1.143 -0.0352  0.1910 -0.7181
   88MOL    C5631550   6.901   5.430   1.308 -0.3342 -0.3558 -0.1669
   88MOL    C5731551   6.949   5.476   1.447  0.3588  0.0758  0.1414
   88MOL    C5831552   7.038   5.604   1.441  0.1118  0.1074  0.0223
   88MOL    C5931553   7.170   5.588   1.353  0.2546  0.3010  0.3679
   88MOL    C6031554   7.275   5.704   1.364  0.7077  0.3452 -0.0035
   88MOL    C6131555   7.236   5.816   1.265 -0.3262  0.4097  0.3607
   88MOL    H6231556   6.820   5.359   1.326 -1.8063  1.6270  1.3096
   88MOL    H6331557   6.980   5.371   1.262  0.5340 -0.5756  1.5494
   88MOL    H6431558   6.868   5.509   1.511  0.6650 -0.7638  0.9701
   88MOL    H6531559   6.985   5.688   1.396  1.2707  0.6341 -0.3801
   88MOL    H6631560   7.077   5.630   1.539  0.4767  0.5815 -0.2438
   88MOL    H6731561   7.139   5.562   1.252  0.4541 -0.3383  0.4679
   88MOL    H6831562   7.231   5.505   1.388  1.7602  1.9862  1.8851
   88MOL    H6931563   7.291   5.738   1.467  1.4603 -1.0782  0.3629
   88MOL    H7031564   7.370   5.671   1.322  0.4436 -0.8637  0.3505
   88MOL    H7131565   7.197   5.778   1.170  1.5337 -0.3573 -0.1219
   88MOL    H7231566   7.159   5.884   1.302 -1.2440 -0.9478  1.0379
   88MOL    H7331567   7.325   5.869   1.231 -0.1907 -0.5282 -0.7893
   88MOL    C7431568   7.002   5.352   1.528  0.5096 -0.3061  0.4698
   88MOL    C7531569   7.077   5.388   1.666 -0.4526 -0.5994  0.4550
   88MOL    C7631570   6.991   5.474   1.758  1.0158 -0.1716 -0.3490
   88MOL    C7731571   7.059   5.523   1.887  0.8135 -0.0799  0.4554
   88MOL    C7831572   7.002   5.665   1.925  0.4081 -0.7689  0.4822
   88MOL    C7931573   7.044   5.694   2.068 -0.2836 -0.2558  0.5393
   88MOL    H8031574   6.917   5.286   1.543  0.4333 -0.2029  0.4898
   88MOL    H8131575   7.076   5.303   1.465  1.1132 -1.7909  2.2877
   88MOL    H8231576   7.164   5.447   1.637 -1.9503  1.2780 -0.3344
   88MOL    H8331577   6.950   5.559   1.704  2.5534 -0.5395 -2.1523
   88MOL    H8431578   6.910   5.406   1.785  0.9579  0.6128  1.5339
   88MOL    H8531579   7.040   5.447   1.963  0.1853  1.0609  1.4579
   88MOL    H8631580   7.167   5.524   1.872  0.6037 -0.6758 -1.1790
   88MOL    H8731581   6.894   5.664   1.916  0.3443 -0.5636  1.1523
   88MOL    H8831582   7.033   5.739   1.851 -2.4622 -2.1493 -2.1856
   88MOL    H8931583   7.004   5.612   2.127  2.0256 -2.4401 -0.8176
   88MOL    H9031584   7.153   5.699   2.077 -0.0286 -2.9843 -0.3368
   88MOL    H9131585   6.997   5.788   2.095  0.9111  1.1944 -2.1433
   88MOL    C9231586   7.127   5.259   1.733 -0.8033  0.3566 -0.1798
   88MOL    C9331587   7.249   5.192   1.655  0.4250 -0.1218 -0.1540
   88MOL    C9431588   7.385   5.252   1.706  0.3608 -0.7513 -0.4932
   88MOL    C9531589   7.500   5.252   1.601  0.3285  0.7424 -0.6851
   88MOL    C9631590   7.634   5.320   1.654  0.2082 -0.2245  0.2259
   88MOL    C9731591   0.029   5.327   1.553  0.0099 -0.4675  0.2483
   88MOL    H9831592   7.153   5.270   1.839  2.6001 -0.8622 -0.8133
   88MOL    H9931593   7.045   5.187   1.735  0.6264 -1.3726 -2.0901
   88MOL   H10031594   7.236   5.217   1.549 -0.6886 -2.1194 -0.5225
   88MOL   H10131595   7.424   5.201   1.795 -0.2311 -1.3030 -0.5501
   88MOL   H10231596   7.360   5.353   1.739 -0.6486 -0.6572 -1.5218
   88MOL   H10331597   7.518   5.148   1.574  1.3425  0.5445  0.6851
   88MOL   H10431598   7.476   5.315   1.515  1.4834 -0.3143 -1.7921
   88MOL   H10531599   7.614   5.423   1.684 -3.3160 -0.5502 -0.8312
   88MOL   H10631600   7.677   5.271   1.742  0.1010 -2.3463 -0.8646
   88MOL   H10731601   0.116   5.368   1.606 -1.0782  1.4298  0.6206
   88MOL   H10831602   0.060   5.228   1.521  1.8789  0.6891 -1.6570
   88MOL   H10931603   7.727   5.385   1.466 -0.0471  0.3873  0.8253
   88MOL   C11031604   7.252   5.033   1.666 -0.0043 -0.0800  0.2089
   88MOL   C11131605   7.153   4.958   1.575  0.4030 -0.4119 -0.3950
   88MOL   C11231606   7.086   4.834   1.641  0.6691  0.0679 -0.1936
   88MOL   C11331607   6.988   4.856   1.759  0.0725 -0.1667 -0.4542
   88MOL   C11431608   6.952   4.721   1.828 -0.2823  0.5855  0.1730
   88MOL   C11531609   7.066   4.675   1.922 -0.5709 -0.1613  0.4329
   88MOL   H11631610   7.351   4.994   1.644  0.0130 -0.7033  1.3370
   88MOL   H11731611   7.222   5.008   1.768  1.9453 -0.8330  0.6190
   88MOL   H11831612   7.069   5.018   1.541  0.3298 -1.2710 -1.7886
   88MOL   H11931613   7.172   4.774   1.671  1.7993  2.0110  0.5777
   88MOL   H12031614   7.047   4.769   1.563  3.5043 -1.9675  0.0072
   88MOL   H12131615   6.890   4.897   1.735 -0.3063  0.2023  1.6776
   88MOL   H12231616   7.035   4.914   1.839  0.0577 -1.0555  0.2012
   88MOL   H12331617   6.942   4.642   1.754  1.2570  0.5576 -0.0203
   88MOL   H12431618   6.856   4.717   1.880  1.3187 -0.0691  3.1715
   88MOL   H12531619   7.164   4.679   1.875 -0.3353  3.7633  1.1008
   88MOL   H12631620   7.072   4.752   1.999 -0.8291  0.3318 -0.0356
   88MOL   H12731621   7.038   4.580   1.966 -0.3987 -2.0909 -3.4417
   88MOL   C12831622   7.219   4.929   1.442  0.4563  0.0185  0.0209
   88MOL   C12931623   7.134   4.870   1.329 -0.4806  0.1368 -0.6146
   88MOL   C13031624   7.226   4.858   1.201  0.5110 -0.3943 -0.2568
   88MOL   C13131625   7.175   4.784   1.068 -0.4427 -0.0757  0.3926
   88MOL   C13231626   7.280   4.739   0.973 -0.1723 -0.1935  0.3941
   88MOL   C13331627   7.208   4.675   0.851  0.6588 -0.0672  0.0835
   88MOL   H13431628   7.308   4.871   1.467 -0.0832 -0.3232  1.1617
   88MOL   H13531629   7.263   5.021   1.405  0.3491 -0.1424 -0.5074
   88MOL   H13631630   7.102   4.768   1.349  0.2937  0.0112 -0.0084
   88MOL   H13731631   7.264   4.956   1.174  1.3734 -1.4769 -3.1502
   88MOL   H13831632   7.312   4.796   1.229  0.2828 -0.1587  0.9794
   88MOL   H13931633   7.101   4.841   1.012 -1.2306 -2.5428 -1.1619
   88MOL   H14031634   7.135   4.692   1.112  0.7643 -1.0341 -0.4876
   88MOL   H14131635   7.348   4.819   0.942  0.1687 -0.0181  1.5772
   88MOL   H14231636   7.339   4.662   1.022 -1.0788 -1.9458 -1.1895
   88MOL   H14331637   7.150   4.591   0.889 -0.3362  0.0279 -1.1867
   88MOL   H14431638   7.282   4.664   0.773 -0.1369  0.8530 -0.8134
   88MOL   H14531639   7.142   4.747   0.802  0.8338 -0.1336 -0.2461
   88MOL   C14631640   7.007   4.955   1.296  0.7228  0.5276 -0.3456
   88MOL   C14731641   6.877   4.920   1.373  0.4555  0.3053 -0.2672
   88MOL   C14831642   6.833   4.779   1.353 -0.0947  0.1334 -0.1445
   88MOL   C14931643   6.802   4.731   1.213 -0.6162 -1.2451 -0.0782
   88MOL   C15031644   6.779   4.583   1.221 -0.3171  0.1952  0.1811
   88MOL   C15131645   6.654   4.542   1.300 -0.0269 -0.6530 -0.7209
   88MOL   H15231646   7.032   5.061   1.309  0.5990  0.4956  0.1647
   88MOL   H15331647   6.977   4.950   1.192  0.6391  0.6109 -0.3254
   88MOL   H15431648   6.888   4.930   1.481  2.3716  1.0192 -0.5190
   88MOL   H15531649   6.742   4.774   1.412 -0.7064  0.3857 -1.0573
   88MOL   H15631650   6.894   4.705   1.404 -0.4174 -1.6036 -2.1963
   88MOL   H15731651   6.714   4.782   1.173  1.1792  0.8637 -1.4308
   88MOL   H15831652   6.888   4.750   1.149 -0.2875  1.5570  1.1189
   88MOL   H15931653   6.864   4.526   1.259 -0.3195  0.0917  0.0275
   88MOL   H16031654   6.773   4.556   1.116 -2.0349  1.2317 -0.0088
   88MOL   H16131655   6.652   4.433   1.307 -0.0795 -0.5925  0.2405
   88MOL   H16231656   6.655   4.583   1.401 -3.0462 -1.4735 -0.3244
   88MOL   H16331657   6.561   4.572   1.254 -1.5145 -3.5135  0.2990
   88MOL   C16431658   6.769   5.025   1.340 -0.2506 -0.2345  0.0169
   88MOL   C16531659   6.627   5.019   1.404  0.4569 -0.2591 -0.7393
   88MOL   C16631660   6.629   5.043   1.562  0.2831  0.2602 -0.4124
   88MOL   C16731661   6.634   5.188   1.605 -0.4165  0.4373 -0.5232
   88MOL   C16831662   6.652   5.207   1.758 -0.6782  0.0557  0.4022
   88MOL   C16931663   6.524   5.196   1.837 -0.3461  0.6344 -0.3490
   88MOL   H17031664   6.816   5.118   1.371  1.2138 -1.0627  0.3453
   88MOL   H17131665   6.767   5.037   1.232 -1.9533  1.3073  0.2037
   88MOL   H17231666   6.577   4.923   1.390  0.3563 -0.2640 -0.3568
   88MOL   H17331667   6.711   4.981   1.598 -1.0315 -0.5512  1.2852
   88MOL   H17431668   6.541   4.985   1.591  0.7713 -0.8862 -1.1710
   88MOL   H17531669   6.540   5.233   1.573 -0.6034  0.5342  0.1553
   88MOL   H17631670   6.718   5.230   1.549  0.8589 -0.1207  0.9400
   88MOL   H17731671   6.679   5.313   1.765 -0.9592  0.1157  0.6042
   88MOL   H17831672   6.732   5.144   1.797 -1.9856 -0.0972  2.9621
   88MOL   H17931673   6.532   5.245   1.934  0.5912  3.3108 -1.7291
   88MOL   H18031674   6.497   5.091   1.847 -0.3924  0.7273  0.5478
   88MOL   H18131675   6.439   5.245   1.790 -1.2858  0.8605  1.5308
   88MOL   C18231676   6.541   5.122   1.341 -0.2819  0.2304 -0.0751
   88MOL   C18331677   6.492   5.078   1.197  0.0986  0.1357 -0.3196
   88MOL   C18431678   6.475   5.202   1.107  0.4116 -0.0489  0.4497
   88MOL   C18531679   6.404   5.330   1.163 -0.4696 -0.2847  0.1520
   88MOL   C18631680   6.379   5.438   1.043 -0.2620 -0.7107  0.2752
   88MOL   C18731681   6.302   5.562   1.094  0.1369  0.1540  0.6386
   88MOL   H18831682   6.449   5.139   1.396  0.0858 -1.8426  1.2431
   88MOL   H18931683   6.601   5.213   1.333 -0.9428  0.6666 -0.1353
   88MOL   H19031684   6.564   5.009   1.154 -0.4827 -0.8002  0.1933
   88MOL   H19131685   6.578   5.225   1.080  0.3956  1.4451  1.5689
   88MOL   H19231686   6.421   5.171   1.018 -1.6886  1.3508  1.1865
   88MOL   H19331687   6.466   5.374   1.241 -0.5736  0.2121 -0.0473
   88MOL   H19431688   6.305   5.304   1.200 -0.9408 -0.6706 -1.3696
   88MOL   H19531689   6.317   5.392   0.967 -0.1994  0.2890 -0.3877
   88MOL   H19631690   6.478   5.469   1.009 -1.6055  2.6151 -0.8290
   88MOL   H19731691   6.213   5.533   1.149  0.8920  0.2301  1.9091
   88MOL   H19831692   6.271   5.631   1.015  2.7018  0.2202 -0.3595
   88MOL   H19931693   6.365   5.613   1.166  0.0059 -1.4715  1.9185
   88MOL   C20031694   6.361   4.997   1.203  0.1062  0.5876  0.0009
   88MOL   C20131695   6.311   4.922   1.074 -1.1331 -0.1472 -0.1190
   88MOL   C20231696   6.370   4.773   1.077 -0.2737 -0.5334  0.1875
   88MOL   C20331697   6.339   4.678   0.954 -0.3033 -0.1437  0.0742
   88MOL   C20431698   6.413   4.550   0.965  0.1630 -0.3927 -0.5146
   88MOL   C20531699   6.381   4.458   0.844 -0.6632 -0.0175  0.1234
   88MOL   H20631700   6.285   5.067   1.234  0.0070  0.9828 -1.1336
   88MOL   H20731701   6.358   4.928   1.288 -0.7838  1.9217  1.0752
   88MOL   H20831702   6.346   4.965   0.980  1.8203  0.6221  1.2710
   88MOL   H20931703   6.339   4.729   1.172  2.2420  0.2908  1.4303
   88MOL   H21031704   6.475   4.795   1.096 -0.6369 -0.3356  2.1272
   88MOL   H21131705   6.370   4.727   0.862  0.3191 -1.7562 -0.5987
   88MOL   H21231706   6.233   4.654   0.945 -0.3118  0.5004 -1.5733
   88MOL   H21331707   6.392   4.501   1.060 -1.7814  1.6139  0.1465
   88MOL   H21431708   6.521   4.567   0.971  0.1354 -1.0132  3.3390
   88MOL   H21531709   6.274   4.442   0.859 -0.7688 -0.2385 -0.8705
   88MOL   H21631710   6.411   4.490   0.744 -0.4391  1.4880  0.6660
   88MOL   H21731711   6.427   4.361   0.864 -0.5750  0.0702  0.3484
   88MOL   C21831712   6.155   4.913   1.078  0.5193 -0.1105 -0.5665
   88MOL   C21931713   6.092   5.044   1.036 -0.1740  0.0149  0.2052
   88MOL   C22031714   5.968   5.076   1.122 -0.3000  0.2180 -0.2803
   88MOL   C22131715   5.918   5.223   1.121  0.0090  0.2717 -0.6570
   88MOL   C22231716   5.791   5.244   1.203  0.5318 -0.2568  0.6711
   88MOL   C22331717   5.757   5.386   1.235 -0.4116 -0.6667 -0.5649
   88MOL   H22431718   6.118   4.838   1.009  0.7447 -1.9009  1.2255
   88MOL   H22531719   6.127   4.883   1.179 -0.5455  0.2098 -0.7608
   88MOL   H22631720   6.158   5.129   1.053 -0.5369 -0.0992  2.3641
   88MOL   H22731721   5.988   5.042   1.223  0.1490 -1.1894 -0.8252
   88MOL   H22831722   5.889   5.006   1.098 -1.6192  1.4531  0.4218
   88MOL   H22931723   5.901   5.272   1.025 -0.4899  1.6737  0.1301
   88MOL   H23031724   5.993   5.295   1.155  0.3638 -0.8464  1.0378
   88MOL   H23131725   5.716   5.214   1.131  0.2163  1.8756  0.0792
   88MOL   H23231726   5.781   5.176   1.288 -0.7112  1.6571  2.1086
   88MOL   H23331727   5.657   5.385   1.277 -0.1684 -3.2091 -0.0083
   88MOL   H23431728   5.742   5.452   1.149  0.1875  1.5066  0.9467
   88MOL   H23531729   5.822   5.434   1.309 -1.2534  0.9680 -0.8511
   88MOL   C23631730   6.048   5.039   0.882 -0.2317  0.5888  0.5458
   88MOL   C23731731   6.152   5.023   0.769 -0.1446  0.1664  0.1010
   88MOL   C23831732   6.238   5.144   0.752  0.1086  0.1114  0.1357
   88MOL   C23931733   6.385   5.125   0.720 -0.2168 -0.3942  0.1891
   88MOL   C24031734   6.458   5.260   0.691  0.1395 -0.2229  0.1380
   88MOL   C24131735   6.428   5.314   0.558 -0.3750  0.0337 -0.0975
   88MOL   H24231736   5.978   4.956   0.879  1.1999 -0.6589  0.6140
   88MOL   H24331737   5.985   5.121   0.849  0.9013  0.6138 -1.6618
   88MOL   H24431738   6.209   4.934   0.795 -2.9586 -1.7989 -0.1371
   88MOL   H24531739   6.185   5.200   0.674 -2.4413 -2.9547 -0.4347
   88MOL   H24631740   6.228   5.203   0.843  1.6172 -0.1272  0.4642
   88MOL   H24731741   6.396   5.069   0.627  0.4078  0.6015 -0.3476
   88MOL   H24831742   6.431   5.075   0.805  2.1484  1.4354  0.0332
   88MOL   H24931743   6.427   5.337   0.762  2.7880  0.3793  0.6704
   88MOL   H25031744   6.566   5.254   0.695  0.1585 -0.1845 -0.3427
   88MOL   H25131745   6.322   5.312   0.533 -0.3360 -0.8595 -0.2074
   88MOL   H25231746   6.461   5.417   0.550  2.3183 -0.8055 -0.3336
   88MOL   H25331747   6.472   5.256   0.476 -0.7418  1.2595 -1.1740
   88MOL   C25431748   6.068   4.981   0.646 -0.0685  0.5732 -0.7358
   88MOL   C25531749   6.021   4.835   0.629  0.3048  0.3783  0.1050
   88MOL   C25631750   6.099   4.742   0.539  0.7098  0.2833 -0.3845
   88MOL   C25731751   6.246   4.725   0.574 -0.1615 -0.0474  0.2291
   88MOL   C25831752   6.324   4.694   0.450 -0.7632  1.0083 -1.2323
   88MOL   C25931753   6.471   4.707   0.466  0.4666  0.4224 -0.4908
   88MOL   H26031754   6.127   5.005   0.558 -0.1257  3.2335 -0.0778
   88MOL   H26131755   5.985   5.051   0.642  0.6509  1.3509 -2.4348
   88MOL   H26231756   6.036   4.793   0.728  1.7022 -1.4163 -0.8403
   88MOL   H26331757   6.054   4.643   0.543 -0.8104  1.0176  2.1064
   88MOL   H26431758   6.091   4.776   0.436 -0.5117 -1.8733 -1.0303
   88MOL   H26531759   6.285   4.822   0.606 -1.2268  1.6062 -3.2257
   88MOL   H26631760   6.258   4.653   0.654 -0.1963 -1.3811 -0.9521
   88MOL   H26731761   6.293   4.764   0.372 -1.1105  0.4627 -1.5840
   88MOL   H26831762   6.314   4.593   0.411  1.6378  0.1213  0.3333
   88MOL   H26931763   6.512   4.660   0.555  0.2733 -0.3579 -0.8108
   88MOL   H27031764   6.490   4.814   0.477 -3.3220  0.9924  1.5002
   88MOL   H27131765   6.538   4.671   0.388 -0.8441 -0.0978 -1.3994
   88MOL   C27231766   5.868   4.822   0.604 -0.2360 -0.4308 -0.4184
   88MOL   C27331767   5.804   4.685   0.621 -0.7158 -0.2326 -0.2493
   88MOL   C27431768   5.655   4.687   0.565  0.0030  0.0801  0.3280
   88MOL   C27531769   5.652   4.714   0.415  0.4900  0.6896 -0.0013
   88MOL   C27631770   5.522   4.675   0.346 -0.0404  0.0379 -0.0608
   88MOL   C27731771   5.541   4.672   0.194  0.5507  0.1712 -0.4243
   88MOL   H27831772   5.818   4.890   0.673  2.6605  0.1586  1.2080
   88MOL   H27931773   5.854   4.874   0.509 -3.1868 -0.4133 -0.0129
   88MOL   H28031774   5.857   4.610   0.563  2.2814  0.5905  1.3453
   88MOL   H28131775   5.601   4.756   0.629 -1.3336 -0.8312  0.2166
   88MOL   H28231776   5.607   4.592   0.589 -1.3520  1.0067  1.3283
   88MOL   H28331777   5.730   4.651   0.372 -0.1050  1.0009 -1.5526
   88MOL   H28431778   5.683   4.816   0.394 -0.6154  0.3969 -3.2899
   88MOL   H28531779   5.501   4.573   0.380 -1.3833 -0.2907 -1.8113
   88MOL   H28631780   5.449   4.750   0.375 -0.6564 -0.2568 -0.8212
   88MOL   H28731781   5.579   4.763   0.148  1.5642 -0.2718 -0.4774
   88MOL   H28831782   5.612   4.591   0.175 -1.8738 -1.9568 -0.6101
   88MOL   H28931783   5.451   4.645   0.140 -0.2520 -2.1780  1.9554
   88MOL   C29031784   5.805   4.641   0.776 -0.1567  0.5514  0.5158
   88MOL   C29131785   5.906   4.528   0.808 -0.1785  0.2870 -0.3850
   88MOL   C29231786   5.941   4.539   0.958  0.3248  0.6691  0.4852
   88MOL   C29331787   5.832   4.529   1.070 -0.5350  0.5254 -0.7640
   88MOL   C29431788   5.880   4.477   1.209  0.9682 -0.2421 -0.4549
   88MOL   C29531789   5.925   4.595   1.299 -0.8521  0.6203  0.0540
   88MOL   H29631790   5.702   4.621   0.805  0.9099 -3.1995  2.0368
   88MOL   H29731791   5.811   4.731   0.838 -2.8162 -0.6918  2.6955
   88MOL   H29831792   5.998   4.535   0.749 -1.3877  1.9387 -2.1259
   88MOL   H29931793   6.002   4.629   0.964  0.2650  0.6290  1.7008
   88MOL   H30031794   6.016   4.461   0.973 -0.5800 -0.7328 -1.9205
   88MOL   H30131795   5.792   4.630   1.079 -2.2017 -0.2092  0.4044
   88MOL   H30231796   5.744   4.475   1.035 -1.4931  0.7615  1.2233
   88MOL   H30331797   5.951   4.395   1.191  1.7718 -0.2740  2.6964
   88MOL   H30431798   5.796   4.436   1.264  1.1836  2.4675  1.9695
   88MOL   H30531799   5.843   4.663   1.319 -1.4848 -0.2175  0.3651
   88MOL   H30631800   6.006   4.653   1.254 -2.1323  2.0622 -0.4205
   88MOL   H30731801   5.969   4.567   1.394 -2.8106  1.6365  1.2791
   88MOL   C30831802   5.848   4.386   0.769 -0.3637  0.2835  0.0827
   88MOL   C30931803   5.905   4.258   0.843  0.4387  0.5194  0.6028
   88MOL   C31031804   6.048   4.225   0.783  0.4117 -0.0391 -0.6511
   88MOL   C31131805   6.048   4.160   0.644 -0.0082  0.6064 -0.0346
   88MOL   C31231806   6.196   4.158   0.578  0.5466 -0.1014  0.0999
   88MOL   C31331807   6.207   4.065   0.457 -0.1494 -0.1824  0.1787
   88MOL   H31431808   5.744   4.392   0.799 -0.0183  1.4177  1.1289
   88MOL   H31531809   5.848   4.380   0.661  0.7102 -1.1473  0.1395
   88MOL   H31631810   5.920   4.265   0.951  1.0972  0.1237  0.5359
   88MOL   H31731811   6.092   4.159   0.858  0.1807  1.3780  0.7506
   88MOL   H31831812   6.114   4.312   0.784  0.7975 -0.3296  2.1732
   88MOL   H31931813   5.973   4.205   0.578  0.3565 -1.0522 -1.6045
   88MOL   H32031814   6.017   4.056   0.648 -0.3817  0.7404  0.4490
   88MOL   H32131815   6.223   4.259   0.547  2.0252 -0.4053  0.3498
   88MOL   H32231816   6.261   4.139   0.663  0.9428  1.3182  0.1248
   88MOL   H32331817   6.311   4.070   0.424 -0.3608 -1.4428 -0.7426
   88MOL   H32431818   6.154   4.103   0.370  0.4632  0.7812  0.2184
   88MOL   H32531819   6.181   3.967   0.496  0.5355 -0.3556  0.2172
   88MOL   C32631820   5.798   4.145   0.826  0.1440 -0.1837 -0.1737
   88MOL   C32731821   5.675   4.141   0.924 -0.3385  0.7332  0.6186
   88MOL   C32831822   5.569   4.039   0.867  0.2010  0.2995 -0.1987
   88MOL   C32931823   5.456   4.105   0.789 -1.0632  0.4876 -0.4027
   88MOL   C33031824   5.347   4.015   0.723 -0.2248 -0.1188 -1.2615
   88MOL   C33131825   5.250   4.077   0.622 -0.3888  0.5848  0.2775
   88MOL   H33231826   5.849   4.049   0.825  3.0767  1.3270 -1.2115
   88MOL   H33331827   5.758   4.168   0.727  1.3223  0.8262 -0.4266
   88MOL   H33431828   5.615   4.231   0.929 -2.3499 -0.5561  0.0904
   88MOL   H33531829   5.625   3.969   0.804  0.2162 -1.6605  1.9321
   88MOL   H33631830   5.517   3.973   0.937 -0.3994 -1.6151 -2.3818
   88MOL   H33731831   5.508   4.151   0.705  0.1606 -0.2654 -0.0756
   88MOL   H33831832   5.415   4.180   0.857 -0.4005  1.1026 -0.6688
   88MOL   H33931833   5.410   3.941   0.674  3.1420  0.8347  1.4401
   88MOL   H34031834   5.288   3.970   0.802  0.9637  0.9989  0.2907
   88MOL   H34131835   5.289   4.096   0.522 -0.3343  1.9099  0.5391
   88MOL   H34231836   5.204   4.172   0.650 -2.0176 -0.1405  0.1110
   88MOL   H34331837   5.163   4.011   0.619 -0.0271  0.1097  0.0878
   88MOL   C34431838   5.722   4.090   1.063 -0.0670 -0.1776 -0.1131
   88MOL   C34531839   5.630   4.136   1.176 -0.1917  1.0662  0.0374
   88MOL   C34631840   5.675   4.111   1.319  0.2611 -0.4931  0.2439
   88MOL   C34731841   5.582   4.167   1.417  0.2724 -0.4552 -0.2721
   88MOL   C34831842   5.613   4.116   1.567  0.5937  0.2578 -0.3927
   88MOL   C34931843   5.552   3.980   1.586  0.6819 -0.7923  0.4493
   88MOL   H35031844   5.736   3.982   1.062  0.7272 -0.1246  2.0880
   88MOL   H35131845   5.820   4.134   1.085 -0.8260  2.3008 -1.4394
   88MOL   H35231846   5.538   4.081   1.157  0.0988  0.0456  1.4944
   88MOL   H35331847   5.692   4.005   1.336 -1.8303 -0.8496  0.2327
   88MOL   H35431848   5.776   4.152   1.325 -0.9606  3.1761 -2.1509
   88MOL   H35531849   5.594   4.274   1.408 -2.4316 -0.3428 -3.2696
   88MOL   H35631850   5.478   4.147   1.392  0.1923  0.9562 -1.0654
   88MOL   H35731851   5.720   4.106   1.588  1.0646  0.3694 -2.5287
   88MOL   H35831852   5.570   4.172   1.650 -2.6723 -3.0917  0.3088
   88MOL   H35931853   5.605   3.920   1.660 -1.4329 -1.8057  1.1938
   88MOL   H36031854   5.444   3.979   1.605 -0.0155  1.7030 -2.9111
   88MOL   H36131855   5.562   3.915   1.499  2.8664 -0.8869  0.7449
   88MOL   H36231856   5.626   4.243   1.159  0.4071  1.2295  0.8968
   89MOL     C131857   1.202   7.334   7.400  0.1070  1.0153  0.0114
   89MOL     C231858   1.166   7.482   7.446  0.3601  0.7839 -0.0410
   89MOL     C331859   1.283   7.585   7.434  0.3561  0.1922 -0.1121
   89MOL     C431860   1.402   7.557   7.535  0.2068 -0.0873  0.0181
   89MOL     C531861   1.526   7.645   7.508 -0.1372 -0.9712 -0.4384
   89MOL     C631862   1.503   0.062   7.480  0.3102 -0.2479 -0.4909
   89MOL     H731863   1.284   7.297   7.461  1.1148  2.7192 -0.2832
   89MOL     H831864   1.118   7.265   7.401  0.7630  0.1622 -1.3247
   89MOL     H931865   1.091   7.525   7.379 -0.9167  0.7768  1.3646
   89MOL    H1031866   1.240   7.684   7.444 -1.6098 -0.6040 -0.4294
   89MOL    H1131867   1.330   7.590   7.336  2.4303  0.9404  0.8861
   89MOL    H1231868   1.430   7.452   7.527 -0.2545 -0.1188 -1.2369
   89MOL    H1331869   1.374   7.584   7.637 -1.7741 -1.4675 -0.1230
   89MOL    H1431870   1.591   7.633   7.594  0.9101  0.1020 -1.0681
   89MOL    H1531871   1.582   7.602   7.426  0.8194 -0.6779  0.0609
   89MOL    H1631872   1.448   0.111   7.560 -1.3477  1.4694 -2.6085
   89MOL    H1731873   1.455   0.093   7.387  1.4834  2.6833 -0.1657
   89MOL    H1831874   1.604   0.102   7.488  0.2643 -0.4479  1.2010
   89MOL    H1931875   1.240   7.336   7.298 -0.8235  2.9863 -0.3273
   89MOL    C2031876   1.117   7.494   7.590  0.0318  0.6795  0.3377
   89MOL    C2131877   0.991   7.409   7.621  0.0909  0.6723 -0.6799
   89MOL    C2231878   0.973   7.408   0.047 -0.1011 -0.1683  0.4863
   89MOL    C2331879   0.939   7.536   0.128 -0.1942  0.0566 -0.2482
   89MOL    C2431880   0.955   7.503   0.277  0.0004 -0.2771  0.1918
   89MOL    C2531881   0.953   7.625   0.376  0.6317  0.1941 -0.5315
   89MOL    H2631882   1.103   7.599   7.617  1.6586  1.0297 -0.1309
   89MOL    H2731883   1.191   7.446   7.653 -1.7436 -0.1551  1.8607
   89MOL    H2831884   1.011   7.306   7.591 -2.1106  0.0918 -0.2399
   89MOL    H2931885   1.059   7.352   0.085  0.0751 -2.1217 -2.6532
   89MOL    H3031886   0.896   7.338   0.078 -0.3780 -0.3794 -0.6526
   89MOL    H3131887   0.836   7.559   0.100 -0.2863 -1.0749 -0.8368
   89MOL    H3231888   1.009   7.614   0.099  1.3133 -0.8949  0.7888
   89MOL    H3331889   0.878   7.432   0.305 -0.1872 -0.2543 -0.2538
   89MOL    H3431890   1.053   7.454   0.280  0.0549 -0.3928 -2.1433
   89MOL    H3531891   0.958   7.582   0.477 -0.2282  1.0692 -0.1086
   89MOL    H3631892   1.037   7.691   0.353 -0.3507  1.5799 -0.1916
   89MOL    H3731893   0.865   7.688   0.365  1.2817  1.2808  0.3387
   89MOL    C3831894   0.869   7.457   7.542  0.3251  0.0398  0.3805
   89MOL    C3931895   0.729   7.409   7.584  0.4203  0.1876 -0.6349
   89MOL    C4031896   0.614   7.487   7.515  0.0352 -0.5410  0.2008
   89MOL    C4131897   0.596   7.448   7.367 -0.4165  0.1231  0.2636
   89MOL    C4231898   0.483   7.526   7.295  0.6856  0.1008  0.4866
   89MOL    C4331899   0.502   7.673   7.269 -0.7035 -0.3602 -0.1637
   89MOL    H4431900   0.889   7.433   7.437  0.0013  0.6543  0.1763
   89MOL    H4531901   0.860   7.565   7.547 -0.1072  0.1602 -2.0825
   89MOL    H4631902   0.716   7.427   7.691 -4.8595  0.4963 -1.2231
   89MOL    H4731903   0.525   7.473   7.576 -0.5640  4.7305  0.7709
   89MOL    H4831904   0.642   7.591   7.529 -0.4412 -0.1717 -1.4971
   89MOL    H4931905   0.687   7.471   7.311 -1.0959  1.7541 -0.1789
   89MOL    H5031906   0.567   7.343   7.362  1.3619 -0.2718 -2.7036
   89MOL    H5131907   0.478   7.476   7.198 -2.6319 -1.3623  1.3415
   89MOL    H5231908   0.389   7.510   7.347  0.0787 -0.4616 -0.7616
   89MOL    H5331909   0.496   0.008   7.358 -2.3701 -1.6568  0.6645
   89MOL    H5431910   0.417   7.702   7.208 -0.6604 -0.4542 -0.2691
   89MOL    H5531911   0.582   7.703   7.201  1.6304 -1.0545  2.1611
   89MOL    C5631912   0.715   7.254   7.581 -0.6918  0.1268 -0.4521
   89MOL    C5731913   0.594   7.180   7.630 -0.5770  0.2733  0.5377
   89MOL    C5831914   0.603   7.169   0.048 -0.1148  0.4762 -0.2954
   89MOL    C5931915   0.463   7.189   0.117 -0.4024  0.0171 -0.3083
   89MOL    C6031916   0.490   7.198   0.271 -0.2362 -0.0646 -1.2978
   89MOL    C6131917   0.366   7.185   0.354 -0.4137 -0.1020 -0.1073
   89MOL    H6231918   0.723   7.222   7.477  1.6956 -1.5058  0.2079
   89MOL    H6331919   0.800   7.205   7.628 -0.1890  1.8305  0.4548
   89MOL    H6431920   0.516   7.252   7.607 -1.8669 -1.8967 -2.2552
   89MOL    H6531921   0.654   7.076   0.072 -0.3711  0.3790 -0.1289
   89MOL    H6631922   0.666   7.244   0.095  0.8479  0.8438 -2.1188
   89MOL    H6731923   0.394   7.109   0.092  0.2410 -0.7133  0.2527
   89MOL    H6831924   0.415   7.283   0.090  0.5503  0.5598 -0.1466
   89MOL    H6931925   0.553   7.116   0.306  0.3359  0.8724 -0.0806
   89MOL    H7031926   0.555   7.282   0.294 -0.3382 -0.6645  1.3459
   89MOL    H7131927   0.286   7.251   0.324 -2.5352 -2.0112  1.1890
   89MOL    H7231928   0.314   7.090   0.344 -0.2089 -0.3933  1.4658
   89MOL    H7331929   0.393   7.189   0.460  1.4384  2.1217 -0.6116
   89MOL    C7431930   0.568   7.045   7.560 -0.4868  0.3059  0.1875
   89MOL    C7531931   0.506   7.041   7.415 -0.1025  0.2973 -0.5078
   89MOL    C7631932   0.578   6.944   7.319  0.2014  1.0413  0.2960
   89MOL    C7731933   0.713   6.993   7.278 -0.8722 -0.1051 -0.0836
   89MOL    C7831934   0.715   7.093   7.161 -0.5444 -0.0805  0.3326
   89MOL    C7931935   0.858   7.153   7.137  0.0101  0.1356  0.4318
   89MOL    H8031936   0.661   6.988   7.560  1.2240  3.0060 -1.1688
   89MOL    H8131937   0.496   6.994   7.624 -1.1343 -2.1798 -2.4254
   89MOL    H8231938   0.523   7.138   7.368 -1.7357  0.9444  0.2278
   89MOL    H8331939   0.575   6.842   7.359 -1.0950 -0.2179 -2.8413
   89MOL    H8431940   0.519   6.938   7.228  1.6116  1.0750 -0.6293
   89MOL    H8531941   0.764   7.037   7.364 -0.1306  1.3624 -1.2490
   89MOL    H8631942   0.780   6.909   7.257  0.0564  1.0239 -1.7289
   89MOL    H8731943   0.651   7.180   7.180  0.4696  0.1509  2.8846
   89MOL    H8831944   0.684   7.046   7.068  1.0377  1.2915 -0.9361
   89MOL    H8931945   0.893   7.186   7.235 -0.4311 -0.0266  0.6496
   89MOL    H9031946   0.929   7.082   7.095  1.1282  1.6605 -0.2979
   89MOL    H9131947   0.855   7.236   7.067  0.3037 -0.1947  0.0311
   89MOL    C9231948   0.351   7.026   7.420  0.5342  0.1510  0.0043
   89MOL    C9331949   0.276   7.054   7.294  0.0384  0.0813 -0.0938
   89MOL    C9431950   0.135   6.975   7.301 -0.0195 -0.3865 -0.5636
   89MOL    C9531951   0.138   6.830   7.256  0.4320  0.1466 -0.0473
   89MOL    C9631952   0.000   6.771   7.284  1.0645  0.6347 -0.2393
   89MOL    C9731953   0.003   6.619   7.255  0.0923 -0.1764  0.1997
   89MOL    H9831954   0.322   6.935   7.471 -1.8976  0.7101 -0.3348
   89MOL    H9931955   0.325   7.111   7.483  1.8549 -0.6922  1.7158
   89MOL   H10031956   0.329   7.023   7.204  0.9100  1.1497  0.0467
   89MOL   H10131957   0.065   7.031   7.240 -0.6428  0.1728  0.6387
   89MOL   H10231958   0.101   6.983   7.404  1.1454 -2.4955  0.0356
   89MOL   H10331959   0.160   6.825   7.150 -0.4776 -1.9026 -0.1677
   89MOL   H10431960   0.220   6.783   7.310 -0.3486 -1.4816 -0.2435
   89MOL   H10531961   7.703   6.779   7.390  0.0250  0.5171 -0.4602
   89MOL   H10631962   7.646   6.812   7.224  0.6483  2.4838  1.5546
   89MOL   H10731963   0.029   6.617   7.149  1.3138  2.0771  0.4208
   89MOL   H10831964   0.069   6.559   7.317  0.9637  0.5766  0.0053
   89MOL   H10931965   7.633   6.574   7.277  0.9402 -1.4479  1.3616
   89MOL   C11031966   0.253   7.207   7.272 -0.3602  0.5430 -0.2442
   89MOL   C11131967   0.207   7.267   7.138  0.4553  0.0825  0.4749
   89MOL   C11231968   0.319   7.245   7.032  0.2565  0.4162  0.7182
   89MOL   C11331969   0.272   7.168   6.906  0.0708  0.4534  0.2366
   89MOL   C11431970   0.198   7.029   6.922  0.7962 -0.4526  0.3951
   89MOL   C11531971   0.189   6.952   6.791 -0.0570  0.1241 -0.2848
   89MOL   H11631972   0.171   7.231   7.340 -0.3082 -1.1515  0.4441
   89MOL   H11731973   0.335   7.266   7.312 -0.3358  0.3407  0.0053
   89MOL   H11831974   0.130   7.197   7.107  0.5758 -0.1532  0.7001
   89MOL   H11931975   0.400   7.186   7.075  0.2847 -1.0274 -1.2418
   89MOL   H12031976   0.359   7.342   7.001 -0.0079  0.2340 -0.2009
   89MOL   H12131977   0.358   7.144   6.844 -0.6062  0.6635 -0.7940
   89MOL   H12231978   0.207   7.228   6.842  0.9523 -0.4181 -1.5028
   89MOL   H12331979   0.097   7.050   6.959  0.4793 -0.5141 -0.4329
   89MOL   H12431980   0.240   6.970   7.004 -1.5181 -0.6946  1.4571
   89MOL   H12531981   0.288   6.912   6.773  1.0982  1.0814  3.5464
   89MOL   H12631982   0.119   6.868   6.787  2.3329 -2.0066  1.5247
   89MOL   H12731983   0.146   7.020   6.716 -0.4156 -0.9398 -1.0630
   89MOL   C12831984   0.137   7.402   7.151  0.7724 -0.1724 -0.1206
   89MOL   C12931985   0.014   7.428   7.057  0.6557 -0.2771 -0.1493
   89MOL   C13031986   7.718   7.580   7.029 -0.9724 -0.6465 -0.4232
   89MOL   C13131987   0.099   7.641   6.939 -0.1986  0.0182  0.7253
   89MOL   C13231988   0.075   0.062   6.914  0.0917 -0.2458  0.2581
   89MOL   C13331989   0.184   0.130   6.821  0.3307 -0.0577  0.1772
   89MOL   H13431990   0.210   7.481   7.145 -0.3501  0.8864 -0.0385
   89MOL   H13531991   0.099   7.410   7.253  2.2206  0.3979  0.3825
   89MOL   H13631992   0.051   7.377   6.968 -0.2315 -0.5839 -0.3462
   89MOL   H13731993   7.627   7.603   6.974 -1.9028  0.6097  1.5946
   89MOL   H13831994   7.721   7.627   7.128  2.8565 -0.1221 -0.7124
   89MOL   H13931995   0.104   7.590   6.843  1.1158  1.1783  0.1763
   89MOL   H14031996   0.198   7.626   6.981  0.0048 -1.4751 -0.2610
   89MOL   H14131997   7.707   0.074   6.862  0.0102 -1.0838  0.2120
   89MOL   H14231998   0.071   0.107   7.013 -1.8531  1.5981 -0.6076
   89MOL   H14331999   0.144   0.153   6.722  1.8861 -2.4811 -1.0825
   89MOL   H14432000   0.275   0.072   6.808 -0.0961  0.0278 -4.1589
   89MOL   H14532001   0.209   0.222   6.872 -0.5667 -0.9228  2.2386
   89MOL   C14632002   7.627   7.346   7.117 -0.5748  0.5759  0.3726
   89MOL   C14732003   7.513   7.315   7.023 -0.3890  0.0180 -0.0013
   89MOL   C14832004   7.387   7.283   7.108 -0.3624  0.0577  0.1901
   89MOL   C14932005   7.256   7.320   7.055 -0.0883  0.1260  0.0802
   89MOL   C15032006   7.146   7.277   7.153 -0.1255 -0.5901 -0.0184
   89MOL   C15132007   7.013   7.337   7.117 -0.0553  0.5756  0.5923
   89MOL   H15232008   7.662   7.247   7.146  0.4344 -0.0534 -2.7550
   89MOL   H15332009   7.602   7.391   7.213 -0.1682 -0.4841  0.9881
   89MOL   H15432010   7.484   7.413   6.985  1.1613  0.1835 -0.8023
   89MOL   H15532011   7.408   7.316   7.210 -1.1938 -0.8478  0.6701
   89MOL   H15632012   7.382   7.176   7.129  0.3189  0.3155  1.7672
   89MOL   H15732013   7.259   7.428   7.045 -0.7109  0.1218 -0.1709
   89MOL   H15832014   7.241   7.286   6.953  3.6724  1.6527 -1.0811
   89MOL   H15932015   7.173   7.306   7.255  0.0792  0.0038 -0.2440
   89MOL   H16032016   7.149   7.168   7.153  2.2484 -0.5746  0.5813
   89MOL   H16132017   6.971   7.290   7.028  0.3135 -2.6290  2.0506
   89MOL   H16232018   6.956   7.295   7.200 -0.3302 -1.1226 -0.4335
   89MOL   H16332019   6.999   7.445   7.115 -1.6254  0.3813  0.9953
   89MOL   C16432020   7.542   7.216   6.908 -0.6301  0.0675 -0.6568
   89MOL   C16532021   7.493   7.263   6.766 -0.2082 -0.2639 -0.0517
   89MOL   C16632022   7.583   7.380   6.709  0.4926  1.1966 -0.3944
   89MOL   C16732023   7.505   7.476   6.614  0.2984 -0.7028  0.0776
   89MOL   C16832024   7.592   7.596   6.580 -0.7690 -0.7070  0.5744
   89MOL   C16932025   7.522   7.688   6.485 -0.4077 -0.0891  0.3954
   89MOL   H17032026   7.650   7.208   6.900 -0.5766 -0.4059  0.4809
   89MOL   H17132027   7.517   7.112   6.929  0.3221 -0.9500 -4.2350
   89MOL   H17232028   7.394   7.306   6.782 -0.8979 -1.5773 -0.7689
   89MOL   H17332029   7.670   7.338   6.658 -0.4321  0.8601 -1.7397
   89MOL   H17432030   7.636   7.445   6.779 -1.4461  0.3188  1.9191
   89MOL   H17532031   7.422   7.512   6.676  0.7717  0.3432  0.1133
   89MOL   H17632032   7.468   7.415   6.532 -1.1161  0.8395 -0.4610
   89MOL   H17732033   7.684   7.554   6.537 -0.0905 -0.1997  1.5243
   89MOL   H17832034   7.617   7.639   6.677  0.6321  1.1159 -0.5475
   89MOL   H17932035   7.535   7.642   6.387  0.9216  1.5191 -0.2160
   89MOL   H18032036   7.574   0.057   6.477  0.6021 -0.7943 -1.9882
   89MOL   H18132037   7.417   7.703   6.507  0.0041  1.6714  1.2699
   89MOL   C18232038   7.491   7.146   6.662  0.3885  0.0831 -0.4031
   89MOL   C18332039   7.375   7.048   6.690 -0.2778  0.2241  0.5596
   89MOL   C18432040   7.423   6.894   6.669  0.2396  0.1068  0.5899
   89MOL   C18532041   7.506   6.834   6.789  0.6869 -0.1073  0.2653
   89MOL   C18632042   7.526   6.677   6.774  0.5026 -0.4607 -0.3028
   89MOL   C18732043   7.598   6.613   6.896  0.2833  0.0176 -1.0904
   89MOL   H18832044   7.467   7.182   6.562  0.1198  0.3007 -0.2603
   89MOL   H18932045   7.586   7.093   6.655  1.3762  1.4867  1.8204
   89MOL   H19032046   7.344   7.057   6.794  1.2345 -1.6904  1.1909
   89MOL   H19132047   7.332   6.834   6.680  1.3287 -1.5515  0.5929
   89MOL   H19232048   7.452   6.865   6.569 -0.7377  0.0381  0.3185
   89MOL   H19332049   7.465   6.864   6.885  0.3377  0.6993 -0.1276
   89MOL   H19432050   7.599   6.889   6.799  0.2845  0.6084  0.1286
   89MOL   H19532051   7.577   6.647   6.682  1.1723 -1.1807  0.2972
   89MOL   H19632052   7.424   6.638   6.771  0.0794  0.6940 -1.1509
   89MOL   H19732053   7.527   6.621   6.978  0.6895  0.7847 -0.8064
   89MOL   H19832054   7.695   6.659   6.916 -0.6144  0.5057  2.5004
   89MOL   H19932055   7.610   6.506   6.881  1.3360  0.1321 -1.1126
   89MOL   C20032056   7.253   7.093   6.609  0.3751  0.2670  0.0760
   89MOL   C20132057   7.119   7.022   6.619 -0.4156 -0.1231  0.5807
   89MOL   C20232058   7.069   7.023   6.763 -0.6132  0.1543  0.1075
   89MOL   C20332059   7.094   6.895   6.839  0.0364  0.6682 -0.0024
   89MOL   C20432060   7.002   6.881   6.965  0.5710 -0.8780  0.2901
   89MOL   C20532061   6.953   6.742   6.997  0.1626  0.6825  1.0635
   89MOL   H20632062   7.280   7.081   6.504  0.8090 -1.2920  0.3562
   89MOL   H20732063   7.233   7.198   6.629  2.0086  0.1950  2.2629
   89MOL   H20832064   7.137   6.920   6.585 -1.2627 -0.0686 -0.0510
   89MOL   H20932065   6.963   7.049   6.766 -0.4044  0.8361  1.8033
   89MOL   H21032066   7.104   7.106   6.823 -2.9473 -0.1399  1.9800
   89MOL   H21132067   7.202   6.889   6.856  0.1573  2.7697  0.0702
   89MOL   H21232068   7.052   6.824   6.768  0.2410  0.5211  0.0244
   89MOL   H21332069   6.909   6.936   6.956 -0.1911 -1.8702  1.8965
   89MOL   H21432070   7.047   6.925   7.054 -2.7637  1.8131  0.7438
   89MOL   H21532071   6.888   6.730   7.084  2.1660 -1.8433  2.2505
   89MOL   H21632072   6.882   6.730   6.915  0.7403  2.3041  0.3068
   89MOL   H21732073   7.029   6.667   6.974  0.6307  1.2816  0.6393
   89MOL   C21832074   7.012   7.096   6.527 -0.0336 -0.0305 -0.3199
   89MOL   C21932075   6.877   7.022   6.499  0.1669  0.8772  0.2000
   89MOL   C22032076   6.892   6.948   6.363 -0.7976 -0.3257  0.0812
   89MOL   C22132077   6.968   6.814   6.374  0.2036  0.3000  0.3080
   89MOL   C22232078   6.961   6.727   6.247 -0.0124  0.2710 -0.4625
   89MOL   C22332079   7.054   6.782   6.135 -0.4117 -0.3589 -0.3414
   89MOL   H22432080   6.991   7.192   6.575  0.0659 -0.9986  1.7078
   89MOL   H22532081   7.049   7.119   6.427 -0.4280 -2.9219 -1.1651
   89MOL   H22632082   6.864   6.952   6.582 -2.3471 -1.1738 -1.8657
   89MOL   H22732083   6.931   7.009   6.281  1.2343 -0.3653  0.9802
   89MOL   H22832084   6.795   6.925   6.320 -0.0297 -0.9405 -1.3917
   89MOL   H22932085   6.934   6.759   6.462  1.7990  0.1564  0.8650
   89MOL   H23032086   7.071   6.831   6.405 -0.2916  3.2036  0.5143
   89MOL   H23132087   6.987   6.625   6.276  1.4526  0.7299 -0.1375
   89MOL   H23232088   6.859   6.722   6.208 -1.9464  1.7649  4.1048
   89MOL   H23332089   7.018   6.869   6.080  3.6681  0.5168 -1.8418
   89MOL   H23432090   7.077   6.705   6.060  1.7572  0.0050 -0.0951
   89MOL   H23532091   7.155   6.810   6.165 -0.5009 -1.3585  0.9437
   89MOL   C23632092   6.757   7.117   6.505  0.4364 -0.4191  0.2869
   89MOL   C23732093   6.703   7.153   6.641 -0.9713 -0.2398  0.2404
   89MOL   C23832094   6.585   7.064   6.684  0.2173 -0.7452  0.3225
   89MOL   C23932095   6.629   6.932   6.751  0.0433 -0.0157 -0.1484
   89MOL   C24032096   6.520   6.849   6.820  0.1471 -0.1561 -0.3993
   89MOL   C24132097   6.575   6.703   6.838  0.6959  0.0581 -0.3602
   89MOL   H24232098   6.769   7.206   6.443  0.3539 -0.8507 -0.3623
   89MOL   H24332099   6.674   7.072   6.450 -0.5895  2.1297 -0.3189
   89MOL   H24432100   6.778   7.139   6.720 -0.2376  0.4849 -0.3102
   89MOL   H24532101   6.531   7.122   6.759 -0.1573  3.1999 -2.8101
   89MOL   H24632102   6.514   7.028   6.610 -1.9577  1.6948  1.1312
   89MOL   H24732103   6.717   6.953   6.812 -1.0608 -0.4870  1.6258
   89MOL   H24832104   6.672   6.869   6.673 -1.3195 -0.3315 -0.6590
   89MOL   H24932105   6.487   6.901   6.910  0.3054  0.7884 -0.8753
   89MOL   H25032106   6.431   6.849   6.756  1.0698 -2.1095 -1.7036
   89MOL   H25132107   6.631   6.699   6.931 -2.3003 -1.7533  1.4257
   89MOL   H25232108   6.493   6.635   6.860  0.4158  0.9034  1.2921
   89MOL   H25332109   6.639   6.665   6.758 -1.7761  0.0833 -2.4047
   89MOL   C25432110   6.654   7.303   6.651  0.2640  0.4868 -0.3682
   89MOL   C25532111   6.751   7.412   6.616  0.4794 -0.6457 -0.1512
   89MOL   C25632112   6.871   7.418   6.725 -0.0993 -0.0550  0.5905
   89MOL   C25732113   6.990   7.513   6.686 -1.2255 -0.4528 -0.5526
   89MOL   C25832114   7.109   7.515   6.790  0.8090 -0.1257 -0.3060
   89MOL   C25932115   7.202   7.638   6.769  0.1042 -0.1752  0.1682
   89MOL   H26032116   6.620   7.311   6.755 -0.5289 -1.2873 -0.4785
   89MOL   H26132117   6.564   7.306   6.591  0.5475 -2.7808 -1.0430
   89MOL   H26232118   6.790   7.390   6.517  2.8917 -1.3761  0.9315
   89MOL   H26332119   6.835   7.455   6.821 -0.9209  0.4567  0.0957
   89MOL   H26432120   6.897   7.313   6.736 -0.2002 -0.1183  0.2279
   89MOL   H26532121   7.030   7.509   6.585  3.2551  2.5342  0.9633
   89MOL   H26632122   6.943   7.611   6.675 -3.1756 -1.6304 -3.3357
   89MOL   H26732123   7.152   7.416   6.774 -0.5434 -0.7822  0.0424
   89MOL   H26832124   7.065   7.525   6.889  1.0976 -0.6585 -0.1226
   89MOL   H26932125   7.283   7.630   6.842 -0.2668  1.3691  0.7709
   89MOL   H27032126   7.146   0.002   6.793  1.1658  1.0564 -1.8786
   89MOL   H27132127   7.236   7.639   6.665 -2.1233 -0.8746 -0.6012
   89MOL   C27232128   6.678   7.553   6.597  0.0198  0.3372 -0.2338
   89MOL   C27332129   6.573   7.567   6.484 -0.0810 -0.5417 -0.0579
   89MOL   C27432130   6.636   7.583   6.339  0.1730  0.0013 -0.5872
   89MOL   C27532131   6.546   7.531   6.231 -0.0241 -0.0076 -0.6163
   89MOL   C27632132   6.598   7.552   6.091  0.5495  0.4985  0.1184
   89MOL   C27732133   6.583   7.705   6.043  0.4573  0.4915 -0.0655
   89MOL   H27832134   6.622   7.581   6.686  0.7412  1.3445 -0.0804
   89MOL   H27932135   6.749   7.634   6.575  0.2402 -0.0252 -0.8709
   89MOL   H28032136   6.511   7.477   6.483 -1.8968  0.6517  1.5228
   89MOL   H28132137   6.716   7.509   6.335 -0.4462 -0.7291  0.2769
   89MOL   H28232138   6.676   7.684   6.334  2.2775 -0.6125  2.1709
   89MOL   H28332139   6.451   7.583   6.217 -1.0374 -1.8316 -0.7090
   89MOL   H28432140   6.517   7.427   6.243 -0.9990  0.1332 -1.6381
   89MOL   H28532141   6.704   7.528   6.080  0.7034  0.7496  1.0301
   89MOL   H28632142   6.547   7.488   6.018  0.9100  0.4132 -0.0574
   89MOL   H28732143   6.481   0.010   6.023 -0.1578 -2.6854 -2.3481
   89MOL   H28832144   6.638   0.043   6.111  1.5094  0.3084 -0.7239
   89MOL   H28932145   6.642   7.717   5.952 -0.8192 -0.0756 -0.9816
   89MOL   C29032146   6.479   7.689   6.509  0.0205 -0.0654  0.1897
   89MOL   C29132147   6.363   7.663   6.607 -1.2695 -0.0767  0.3502
   89MOL   C29232148   6.379   0.034   6.733  0.3431  0.1518 -0.2025
   89MOL   C29332149   6.350   0.182   6.711 -0.3445 -0.8314 -0.4611
   89MOL   C29432150   6.367   0.280   6.831  0.3081  0.1901  0.5058
   89MOL   C29532151   6.296   0.417   6.808  1.0829  0.3555  0.5090
   89MOL   H29632152   6.439   0.002   6.415  1.2769  1.4468  0.2677
   89MOL   H29732153   6.535   0.049   6.543  0.6893 -0.1504 -0.6790
   89MOL   H29832154   6.382   7.567   6.654 -2.1274 -0.2521  0.3334
   89MOL   H29932155   6.473   0.010   6.781  0.7837 -0.7226 -1.4600
   89MOL   H30032156   6.304   0.004   6.806 -0.3099  0.0309 -0.9157
   89MOL   H30132157   6.418   0.208   6.630  1.0760  0.4227  1.0782
   89MOL   H30232158   6.250   0.194   6.668 -0.1287 -0.4276 -0.8595
   89MOL   H30332159   6.473   0.298   6.850  0.1323  1.1315  0.6141
   89MOL   H30432160   6.337   0.230   6.924  2.0446 -2.1354 -0.1326
   89MOL   H30532161   6.347   0.465   6.724 -0.5080 -0.0791 -0.7272
   89MOL   H30632162   6.294   0.487   6.892 -2.5269  0.0118  0.7882
   89MOL   H30732163   6.194   0.401   6.774  0.4878  1.4436  1.7203
   89MOL   C30832164   6.222   7.669   6.559 -0.3340 -0.8027  0.4935
   89MOL   C30932165   6.192   7.552   6.453  0.5770 -0.6704  0.0814
   89MOL   C31032166   6.122   7.611   6.329 -0.5363 -0.0713 -0.1494
   89MOL   C31132167   6.145   7.531   6.197  0.4324 -0.0824  0.2106
   89MOL   C31232168   6.090   7.599   6.069 -0.0360  0.2934 -0.6830
   89MOL   C31332169   6.156   7.551   5.939 -0.9833 -0.8968  0.9951
   89MOL   H31432170   6.150   7.670   6.641 -1.3603  0.8721 -0.3845
   89MOL   H31532171   6.195   0.038   6.515  0.3210 -0.4581  0.8359
   89MOL   H31632172   6.286   7.502   6.426 -0.2060 -1.6265 -0.9219
   89MOL   H31732173   6.159   7.712   6.313  2.9986 -1.5292 -1.5608
   89MOL   H31832174   6.015   7.625   6.349 -0.3994 -1.2181  1.4856
   89MOL   H31932175   6.105   7.429   6.203 -0.9838  0.4542  0.1588
   89MOL   H32032176   6.253   7.516   6.197  0.5966  0.9766  1.6665
   89MOL   H32132177   5.984   7.577   6.063  0.2846 -1.5478  0.0048
   89MOL   H32232178   6.103   7.707   6.068 -0.1142  0.3147  0.2378
   89MOL   H32332179   6.103   7.601   5.858  1.5717 -0.9341 -0.7652
   89MOL   H32432180   6.146   7.443   5.926 -0.0980 -0.8058 -0.6517
   89MOL   H32532181   6.257   7.591   5.930  0.0395 -3.6109 -0.1653
   89MOL   C32632182   6.109   7.438   6.511 -0.2396  0.4543 -0.1480
   89MOL   C32732183   6.193   7.332   6.587 -0.2245 -1.1206 -0.4058
   89MOL   C32832184   6.128   7.289   6.724 -0.1808  0.6447  0.3790
   89MOL   C32932185   6.103   7.388   6.829 -0.5553 -0.6048 -0.1921
   89MOL   C33032186   6.052   7.316   6.962  0.2821 -0.2971 -0.3019
   89MOL   C33132187   6.033   7.420   7.076 -0.0749  0.4158  0.8439
   89MOL   H33232188   6.050   7.381   6.440  2.1286  1.7771 -3.2896
   89MOL   H33332189   6.033   7.479   6.578 -0.9713  1.9278 -1.8517
   89MOL   H33432190   6.289   7.373   6.617 -0.7572 -0.2393  0.0892
   89MOL   H33532191   6.036   7.237   6.699  0.7573  0.4843 -2.9729
   89MOL   H33632192   6.195   7.215   6.768 -1.3115 -0.4869  0.2123
   89MOL   H33732193   6.024   7.454   6.795  0.3058  0.6991  0.2835
   89MOL   H33832194   6.192   7.451   6.837 -1.7284  1.4776 -2.9675
   89MOL   H33932195   5.950   7.285   6.941 -0.2845  0.8135  0.7508
   89MOL   H34032196   6.108   7.226   6.987 -0.3881 -0.8261 -0.6951
   89MOL   H34132197   5.951   7.384   7.138 -0.5622  0.6517  0.3406
   89MOL   H34232198   6.004   7.517   7.036  2.2367 -0.0206 -2.0704
   89MOL   H34332199   6.123   7.445   7.133 -0.0831 -1.4850  1.7449
   89MOL   C34432200   6.223   7.201   6.516 -0.2225 -0.4867 -0.6181
   89MOL   C34532201   6.322   7.211   6.403 -0.2801  0.4842  0.3321
   89MOL   C34632202   6.302   7.095   6.297 -0.4177 -0.3838 -0.1732
   89MOL   C34732203   6.412   7.115   6.186 -0.4405 -0.6672 -0.3511
   89MOL   C34832204   6.380   7.202   6.064  0.3253 -0.6740 -0.0313
   89MOL   C34932205   6.262   7.152   5.977  0.1974  0.1316  0.5689
   89MOL   H35032206   6.267   7.125   6.581  0.3237  0.2737 -0.0959
   89MOL   H35132207   6.126   7.161   6.485  0.9831 -2.8745 -1.4944
   89MOL   H35232208   6.422   7.219   6.445  1.1509 -1.5632 -2.5210
   89MOL   H35332209   6.337   7.003   6.344  0.3901 -0.4088 -0.8194
   89MOL   H35432210   6.204   7.070   6.258 -1.6626 -2.3825  3.8939
   89MOL   H35532211   6.512   7.137   6.224 -0.3522 -0.0286 -0.9546
   89MOL   H35632212   6.414   7.012   6.152  3.0902 -0.3863 -1.2180
   89MOL   H35732213   6.374   7.307   6.092 -1.3498 -0.3086 -1.6798
   89MOL   H35832214   6.472   7.196   6.007  0.4116  3.9007 -0.5409
   89MOL   H35932215   6.178   7.142   6.045 -1.1665 -0.3747 -1.1469
   89MOL   H36032216   6.235   7.213   5.891  1.8486  1.7430  1.1559
   89MOL   H36132217   6.277   7.050   5.941  0.2488 -0.6222  2.6627
   89MOL   H36232218   6.316   7.302   6.342 -0.2174 -0.5509 -1.2538
   90MOL     C132219   3.582   0.126   1.705 -0.4624  0.3645  0.0115
   90MOL     C232220   3.492   0.172   1.585 -0.2166  0.4074  0.1216
   90MOL     C332221   3.530   0.319   1.542  0.3971 -0.1705  0.5628
   90MOL     C432222   3.461   0.372   1.412  0.1346  0.0847  1.0897
   90MOL     C532223   3.522   0.507   1.375  0.1866  0.0106 -0.1299
   90MOL     C632224   3.464   0.552   1.235  0.0773 -0.4060 -0.2476
   90MOL     H732225   3.547   0.175   1.796  1.1819  4.3996 -1.4293
   90MOL     H832226   3.570   0.019   1.725  1.5285  0.4716  1.8925
   90MOL     H932227   3.533   0.105   1.509  1.6766  4.0849 -2.2122
   90MOL    H1032228   3.637   0.319   1.523  0.0334 -1.5738 -1.7417
   90MOL    H1132229   3.513   0.388   1.624 -3.6064 -0.6276  0.2085
   90MOL    H1232230   3.352   0.368   1.414  0.1981 -3.2840  1.4450
   90MOL    H1332231   3.497   0.307   1.332 -1.6960  0.0509  0.2663
   90MOL    H1432232   3.506   0.588   1.446  0.2534 -2.1529  2.4150
   90MOL    H1532233   3.629   0.488   1.361  0.3727  0.4450  0.6790
   90MOL    H1632234   3.455   0.462   1.175 -2.1480 -0.2063 -0.2376
   90MOL    H1732235   3.528   0.627   1.187  0.4951 -0.8592 -0.4062
   90MOL    H1832236   3.366   0.596   1.255  0.6621  0.5404  0.5912
   90MOL    H1932237   3.688   0.136   1.685  0.0579 -0.9618  1.9581
   90MOL    C2032238   3.345   0.164   1.623  0.3383  0.1052 -0.4888
   90MOL    C2132239   3.247   0.108   1.522  0.6695 -0.5586 -0.3581
   90MOL    C2232240   3.265   7.681   1.500  0.5481 -0.4510  0.5850
   90MOL    C2332241   3.181   7.637   1.374  0.5066  0.1543  0.4692
   90MOL    C2432242   3.215   7.497   1.325 -1.1882  0.3453 -0.4286
   90MOL    C2532243   3.164   7.475   1.180  0.6985  0.2423  0.0811
   90MOL    H2632244   3.317   0.267   1.648  0.8571  0.3622 -0.9537
   90MOL    H2732245   3.340   0.106   1.715  1.8567  0.7232 -0.0112
   90MOL    H2832246   3.268   0.151   1.424 -0.3312 -0.4208 -0.5099
   90MOL    H2932247   3.223   7.632   1.587 -3.0446  1.4388  0.0134
   90MOL    H3032248   3.366   7.642   1.488 -0.5063 -2.7213 -1.2089
   90MOL    H3132249   3.207   7.700   1.289 -0.6426  1.0150  0.7383
   90MOL    H3232250   3.075   7.651   1.392  0.8287  0.0544  2.5899
   90MOL    H3332251   3.318   7.464   1.330 -1.5797 -0.6993  0.9860
   90MOL    H3432252   3.154   7.451   1.403  0.7559  1.4652  1.8083
   90MOL    H3532253   3.172   7.368   1.159 -0.6209  0.6197 -2.6828
   90MOL    H3632254   3.061   7.508   1.165  0.6195 -0.3487 -0.7636
   90MOL    H3732255   3.238   7.512   1.108  0.7315  0.2476  0.1187
   90MOL    C3832256   3.101   0.147   1.571 -0.6805  0.4019  0.1576
   90MOL    C3932257   3.068   0.296   1.535 -0.6838 -0.1384  0.2991
   90MOL    C4032258   3.015   0.306   1.386 -0.0674  0.4554 -0.3748
   90MOL    C4132259   3.039   0.442   1.336  0.1246 -0.0090  0.2034
   90MOL    C4232260   3.031   0.451   1.185  0.3512  0.1450 -0.0212
   90MOL    C4332261   3.051   0.591   1.128  0.5791 -0.2911  0.3686
   90MOL    H4432262   3.099   0.127   1.678 -0.0244  1.3570  0.3546
   90MOL    H4532263   3.025   0.087   1.521 -2.0429  2.3148 -0.1176
   90MOL    H4632264   3.152   0.364   1.544 -0.5276 -0.0666 -1.5047
   90MOL    H4732265   3.065   0.233   1.323  0.1656 -0.9404  1.3805
   90MOL    H4832266   2.908   0.287   1.381  0.0608 -0.0707 -1.1895
   90MOL    H4932267   2.949   0.486   1.380 -1.2199 -0.8704 -1.6122
   90MOL    H5032268   3.136   0.477   1.370 -0.1482  0.4452  0.5188
   90MOL    H5132269   3.114   0.388   1.153  0.2576 -0.5302  1.0460
   90MOL    H5232270   2.934   0.420   1.147  1.4601 -1.7434 -1.3958
   90MOL    H5332271   3.036   0.607   1.021  3.4468  2.9866  0.3682
   90MOL    H5432272   3.154   0.617   1.152  0.3485  1.9103 -0.9011
   90MOL    H5532273   2.985   0.663   1.177 -1.1068 -1.6273  0.1244
   90MOL    C5632274   2.959   0.348   1.637 -0.0633  0.9730  0.7057
   90MOL    C5732275   2.999   0.359   1.788 -0.3908  1.0320 -0.5220
   90MOL    C5832276   2.869   0.379   1.870  0.3705 -0.7281  0.2311
   90MOL    C5932277   2.792   0.248   1.889  0.0334  0.0648  0.0015
   90MOL    C6032278   2.661   0.275   1.964  0.0254  0.0321 -0.4023
   90MOL    C6132279   2.569   0.387   1.918  0.2215  0.1303 -0.2311
   90MOL    H6232280   2.938   0.451   1.610 -0.9144  1.1191  1.9290
   90MOL    H6332281   2.874   0.281   1.625 -0.2849  1.2627  0.6531
   90MOL    H6432282   3.045   0.263   1.808 -1.9236  0.0495 -1.5584
   90MOL    H6532283   2.884   0.424   1.968 -2.1150  2.0374 -0.5721
   90MOL    H6632284   2.809   0.457   1.824  0.0984 -1.1090 -0.0599
   90MOL    H6732285   2.847   0.169   1.939 -3.4385 -3.1858 -1.0418
   90MOL    H6832286   2.775   0.213   1.787  0.5778  0.1918 -0.1312
   90MOL    H6932287   2.609   0.180   1.974  2.6234 -1.0832  3.2308
   90MOL    H7032288   2.692   0.305   2.064  0.3933  2.0232 -1.0798
   90MOL    H7132289   2.619   0.483   1.903 -2.5361  1.5977 -0.3836
   90MOL    H7232290   2.528   0.361   1.821 -1.4856 -4.4344  1.5985
   90MOL    H7332291   2.485   0.400   1.987  0.8129  1.1079  0.3208
   90MOL    C7432292   3.100   0.474   1.816  0.3339  0.0010  0.5318
   90MOL    C7532293   3.169   0.481   1.957 -0.3345 -0.1231 -0.1170
   90MOL    C7632294   3.226   0.344   2.007 -0.6063 -0.0299  0.0372
   90MOL    C7732295   3.293   0.340   2.146 -0.4405  0.3887 -0.2181
   90MOL    C7832296   3.341   0.200   2.177 -0.1865  0.4455  0.0076
   90MOL    C7932297   3.404   0.178   2.319 -0.5051 -0.1886  0.1318
   90MOL    H8032298   3.162   0.467   1.727  0.8915 -0.0105  0.9187
   90MOL    H8132299   3.037   0.562   1.803  0.1941  0.0445  1.4964
   90MOL    H8232300   3.098   0.515   2.032  1.4799  0.4344  1.3541
   90MOL    H8332301   3.150   0.267   1.995 -1.2981  0.4554  1.2776
   90MOL    H8432302   3.306   0.325   1.935 -0.7031 -0.1732 -0.0329
   90MOL    H8532303   3.369   0.416   2.163 -0.0232  0.2497 -1.3804
   90MOL    H8632304   3.224   0.367   2.225 -1.4218  0.4003 -1.0708
   90MOL    H8732305   3.417   0.175   2.103  0.6708  0.1502  0.9761
   90MOL    H8832306   3.270   0.117   2.168 -0.8863  1.2001 -1.8743
   90MOL    H8932307   3.336   0.239   2.379 -0.0895 -1.0131  1.4798
   90MOL    H9032308   3.417   0.073   2.347  1.1687  0.3673  1.5801
   90MOL    H9132309   3.498   0.229   2.340 -1.0369 -0.6184  3.9837
   90MOL    C9232310   3.283   0.601   1.948  0.3768  0.6722  0.0941
   90MOL    C9332311   3.247   0.740   1.887  0.6100  0.0920 -0.1674
   90MOL    C9432312   3.144   0.803   1.985  0.3517 -0.0528  0.3241
   90MOL    C9532313   3.087   0.936   1.930  0.5482 -1.0258 -0.1646
   90MOL    C9632314   2.942   0.956   1.988 -0.6934 -0.4846  1.1524
   90MOL    C9732315   2.869   1.080   1.934 -0.2990 -0.3327 -0.3248
   90MOL    H9832316   3.333   0.623   2.042 -2.0763  2.2413  1.0699
   90MOL    H9932317   3.358   0.564   1.878  0.3189 -0.0544  0.4154
   90MOL   H10032318   3.206   0.734   1.787  1.9708  1.5529 -0.8416
   90MOL   H10132319   3.165   0.805   2.092  1.1293 -0.4538  0.1819
   90MOL   H10232320   3.054   0.742   1.983  0.3958 -0.1037 -0.2430
   90MOL   H10332321   3.141   1.019   1.976 -1.0286 -0.0147 -0.1051
   90MOL   H10432322   3.083   0.944   1.821 -0.0627 -0.7340 -0.1250
   90MOL   H10532323   2.877   0.872   1.964  0.0093 -0.6697 -0.1281
   90MOL   H10632324   2.952   0.979   2.095 -0.1255  1.5978  0.6868
   90MOL   H10732325   2.799   1.121   2.006 -0.0065 -2.1686  1.0401
   90MOL   H10832326   2.939   1.162   1.916 -1.4644  0.9829  1.0235
   90MOL   H10932327   2.821   1.072   1.837  0.8613  3.4075 -1.2830
   90MOL   C11032328   3.372   0.829   1.873  0.8789 -0.0104 -0.4994
   90MOL   C11132329   3.462   0.791   1.742 -0.1738  0.4812 -0.4361
   90MOL   C11232330   3.603   0.748   1.792 -0.2127 -0.1440  0.2774
   90MOL   C11332331   3.696   0.694   1.691 -0.4785 -0.0683  0.1926
   90MOL   C11432332   3.812   0.614   1.749  0.8180  0.2311  0.0204
   90MOL   C11532333   3.896   0.541   1.641 -0.7165 -0.1136 -0.9115
   90MOL   H11632334   3.347   0.935   1.867 -1.0798 -0.5237 -2.1634
   90MOL   H11732335   3.423   0.826   1.969  0.6105 -0.9243 -0.3818
   90MOL   H11832336   3.406   0.702   1.714  0.3526 -0.1275  0.3960
   90MOL   H11932337   3.587   0.684   1.879 -0.5572 -0.9609 -0.3897
   90MOL   H12032338   3.660   0.825   1.844 -0.8482  1.2419 -1.0309
   90MOL   H12132339   3.730   0.766   1.617  1.4835 -2.2417 -1.0594
   90MOL   H12232340   3.629   0.623   1.643  1.2995 -0.9836 -0.9771
   90MOL   H12332341   3.788   0.535   1.820 -0.5310 -1.1547 -1.9355
   90MOL   H12432342   3.881   0.673   1.810 -0.3859  0.9391  0.7309
   90MOL   H12532343   3.982   0.509   1.700 -0.6038  1.5335 -0.1602
   90MOL   H12632344   3.838   0.470   1.581 -0.5923 -0.9161 -0.0882
   90MOL   H12732345   3.933   0.612   1.567 -3.4107  1.6720 -0.6062
   90MOL   C12832346   3.475   0.889   1.626 -0.5815 -0.9255 -0.2555
   90MOL   C12932347   3.352   0.935   1.549  0.4716 -0.3210 -0.4680
   90MOL   C13032348   3.303   0.818   1.463  0.9448 -0.8541 -0.0941
   90MOL   C13132349   3.157   0.815   1.427 -0.1135 -0.0735  0.4148
   90MOL   C13232350   3.061   0.767   1.534  0.2825 -0.1471 -0.3859
   90MOL   C13332351   2.912   0.772   1.492  0.1415  0.1919 -0.2745
   90MOL   H13432352   3.554   0.868   1.554 -0.1847  1.1727 -0.4439
   90MOL   H13532353   3.514   0.975   1.680  2.0144 -2.7424  0.9058
   90MOL   H13632354   3.280   0.965   1.626  1.1047 -1.4677  0.5947
   90MOL   H13732355   3.360   0.813   1.370  0.7187  1.6221 -0.4113
   90MOL   H13832356   3.319   0.719   1.505  1.7114 -0.4539  0.5737
   90MOL   H13932357   3.142   0.744   1.346 -0.2210  1.5236 -0.9939
   90MOL   H14032358   3.125   0.908   1.381 -1.5924 -1.2906 -1.0647
   90MOL   H14132359   3.096   0.671   1.573  1.8288  0.1494 -1.0395
   90MOL   H14232360   3.069   0.841   1.614 -0.9180 -1.1899  0.7394
   90MOL   H14332361   2.901   0.725   1.394  2.2758  0.9465 -0.8934
   90MOL   H14432362   2.885   0.878   1.486  0.6461  0.3113 -0.4563
   90MOL   H14532363   2.847   0.724   1.565  0.3022  0.2741 -0.0790
   90MOL   C14632364   3.371   1.061   1.459  0.2843  0.1094 -0.2834
   90MOL   C14732365   3.440   1.185   1.525 -0.4085 -0.7115 -0.5239
   90MOL   C14832366   3.388   1.217   1.674 -0.2301  0.6290 -0.3961
   90MOL   C14932367   3.248   1.275   1.687  0.4668  0.6058  0.1451
   90MOL   C15032368   3.214   1.320   1.834  0.1679  0.2655  0.5443
   90MOL   C15132369   3.099   1.429   1.829  0.4852  0.8151 -0.6518
   90MOL   H15232370   3.436   1.035   1.375 -0.0774  0.6215 -0.7205
   90MOL   H15332371   3.274   1.092   1.420  0.6239 -0.3675 -1.5549
   90MOL   H15432372   3.545   1.157   1.534 -0.2490  0.5728  1.9421
   90MOL   H15532373   3.459   1.288   1.717  3.2360 -2.6662 -0.3531
   90MOL   H15632374   3.393   1.128   1.737 -1.2545  0.0596 -1.0990
   90MOL   H15732375   3.243   1.365   1.625 -1.2024  1.4298  1.4515
   90MOL   H15832376   3.174   1.205   1.649  1.9518 -0.1659 -1.3736
   90MOL   H15932377   3.308   1.357   1.876  0.6087  0.2574 -0.4247
   90MOL   H16032378   3.190   1.231   1.893  0.6527  0.3399  0.8521
   90MOL   H16132379   3.069   1.460   1.930  0.2409  0.6911 -0.6874
   90MOL   H16232380   3.127   1.512   1.764  1.1114  1.2029  0.0953
   90MOL   H16332381   3.007   1.385   1.792 -0.7666  2.1622  0.7628
   90MOL   C16432382   3.437   1.319   1.448  0.1677  0.8335 -0.3138
   90MOL   C16532383   3.502   1.333   1.313  0.1849  0.0796  0.2903
   90MOL   C16632384   3.642   1.266   1.301 -0.2730 -0.4189  0.6883
   90MOL   C16732385   3.743   1.338   1.393 -0.1046  0.4493  0.2764
   90MOL   C16832386   3.876   1.274   1.385  0.0103  0.1879 -0.2955
   90MOL   C16932387   3.880   1.136   1.439 -0.2545 -0.9033  0.5991
   90MOL   H17032388   3.341   1.366   1.429 -0.2378 -0.1352 -0.7078
   90MOL   H17132389   3.476   1.394   1.517 -1.7433  0.1775  1.5217
   90MOL   H17232390   3.521   1.440   1.305 -1.0507  0.3266  0.4582
   90MOL   H17332391   3.673   1.279   1.197  0.9853 -1.3083  0.9424
   90MOL   H17432392   3.630   1.161   1.327  0.1139 -0.6287  0.0464
   90MOL   H17532393   3.703   1.358   1.493  0.1707  1.6281  0.1562
   90MOL   H17632394   3.751   1.444   1.370  1.8952  0.3721  0.4983
   90MOL   H17732395   3.947   1.331   1.446 -0.8331 -1.2046  2.0824
   90MOL   H17832396   3.921   1.278   1.286  0.9758  0.9478  0.1622
   90MOL   H17932397   3.987   1.119   1.433 -0.2353 -0.4764 -0.4247
   90MOL   H18032398   3.836   1.059   1.376 -1.1699 -0.1426  0.2938
   90MOL   H18132399   3.837   1.116   1.537 -2.1825 -0.3504 -0.1129
   90MOL   C18232400   3.403   1.301   1.197 -0.7479  0.4489  0.4452
   90MOL   C18332401   3.283   1.396   1.180 -0.3228 -1.0661 -0.8490
   90MOL   C18432402   3.171   1.339   1.083  0.0403  0.3903 -0.2447
   90MOL   C18532403   3.101   1.217   1.133 -0.1763  0.2388 -0.2069
   90MOL   C18632404   2.971   1.184   1.061 -0.5419  0.1074  0.0278
   90MOL   C18732405   2.877   1.092   1.141 -0.6149 -0.2846 -0.3010
   90MOL   H18832406   3.455   1.280   1.103  0.0279 -1.6888  1.3268
   90MOL   H18932407   3.360   1.205   1.225  0.1646 -0.3239 -0.7743
   90MOL   H19032408   3.230   1.404   1.276 -0.7952  0.0781 -1.1888
   90MOL   H19132409   3.095   1.414   1.061 -0.6235 -0.2552 -0.1880
   90MOL   H19232410   3.216   1.306   0.989  0.2355  0.1854 -0.0817
   90MOL   H19332411   3.074   1.237   1.237  1.6068  1.5028  0.0301
   90MOL   H19432412   3.167   1.131   1.147 -1.6953 -0.9969 -0.4951
   90MOL   H19532413   2.993   1.153   0.959 -1.7186 -1.7034  0.3157
   90MOL   H19632414   2.914   1.276   1.045 -0.2574  0.3733  0.5012
   90MOL   H19732415   2.777   1.085   1.099 -1.8768 -0.0242  2.5523
   90MOL   H19832416   2.870   1.133   1.242 -2.0728  1.0136 -0.9057
   90MOL   H19932417   2.910   0.989   1.136 -1.5607 -0.5137 -2.2611
   90MOL   C20032418   3.319   1.546   1.152  0.1259 -0.5763  0.0484
   90MOL   C20132419   3.204   1.640   1.197 -0.1961 -0.1107  0.0961
   90MOL   C20232420   3.212   1.686   1.346 -0.3474 -0.2633  1.1174
   90MOL   C20332421   3.089   1.743   1.405 -0.5588 -0.3389 -0.8633
   90MOL   C20432422   3.109   1.803   1.550 -0.2215  0.0411  0.2944
   90MOL   C20532423   2.997   1.898   1.595 -0.0299 -0.0062  0.2512
   90MOL   H20632424   3.342   1.553   1.045 -0.8744  1.4729 -0.0597
   90MOL   H20732425   3.414   1.574   1.197  0.6674 -2.2102 -0.0463
   90MOL   H20832426   3.101   1.609   1.182 -0.3921  0.8958 -0.7129
   90MOL   H20932427   3.289   1.762   1.360 -1.1357  0.1514  3.4176
   90MOL   H21032428   3.249   1.614   1.419 -1.2411  0.4306  2.2845
   90MOL   H21132429   3.008   1.670   1.406 -1.9729  1.1854  0.4706
   90MOL   H21232430   3.049   1.823   1.342  0.9204  2.1744  1.2318
   90MOL   H21332431   3.202   1.861   1.545 -0.9628  1.1100 -1.7611
   90MOL   H21432432   3.109   1.717   1.617  2.4831 -0.9322 -0.8824
   90MOL   H21532433   2.988   1.920   1.702  0.2284  0.6202  0.1432
   90MOL   H21632434   3.025   1.990   1.544 -1.4622 -0.5178 -1.4795
   90MOL   H21732435   2.895   1.884   1.560 -0.3034 -0.8578  1.3613
   90MOL   C21832436   3.223   1.772   1.116  0.2596  0.5025 -0.1091
   90MOL   C21932437   3.127   1.773   0.994  0.0126  0.6211 -0.4284
   90MOL   C22032438   3.157   1.676   0.882  0.0413 -0.8919 -0.2532
   90MOL   C22132439   3.058   1.667   0.769 -0.3306 -0.1765  0.1144
   90MOL   C22232440   3.064   1.543   0.673 -0.1327  1.2483  0.0795
   90MOL   C22332441   2.992   1.423   0.726  0.1429 -0.5188  0.0324
   90MOL   H22432442   3.205   1.857   1.182 -3.0235 -0.1329 -0.1131
   90MOL   H22532443   3.323   1.788   1.075  0.1587 -0.4711 -0.7426
   90MOL   H22632444   3.032   1.746   1.040 -0.1174  2.0999  0.2017
   90MOL   H22732445   3.154   1.571   0.914  1.4638 -0.5227  1.1454
   90MOL   H22832446   3.252   1.695   0.832 -0.0673 -0.6439 -0.3623
   90MOL   H22932447   3.088   1.753   0.710  0.0322 -0.3705  0.0139
   90MOL   H23032448   2.957   1.689   0.805 -0.3321 -0.7312  0.4613
   90MOL   H23132449   3.018   1.567   0.577 -2.2908  2.4449  1.3719
   90MOL   H23232450   3.166   1.513   0.650  0.0721  2.3480 -0.5071
   90MOL   H23332451   3.006   1.333   0.667 -3.2898 -2.3242  1.7999
   90MOL   H23432452   2.885   1.442   0.737  0.5348  2.6013 -1.0065
   90MOL   H23532453   3.023   1.392   0.825 -0.2687 -0.3292  0.2238
   90MOL   C23632454   3.118   1.917   0.924  0.9722 -0.6615 -0.6501
   90MOL   C23732455   3.082   2.045   1.011  0.7445  0.3407 -0.3257
   90MOL   C23832456   2.944   2.033   1.085  0.1921  0.3667  0.6617
   90MOL   C23932457   2.933   2.100   1.226  0.1323 -0.1707  0.5924
   90MOL   C24032458   2.788   2.100   1.282  0.1501 -0.1788  0.4306
   90MOL   C24132459   2.767   2.148   1.419  0.3811 -0.1083  0.0579
   90MOL   H24232460   3.207   1.932   0.862  1.5901  1.8819  0.7931
   90MOL   H24332461   3.036   1.904   0.853 -1.4543 -0.1397  1.9799
   90MOL   H24432462   3.154   2.052   1.093  1.0096 -1.8073 -0.3478
   90MOL   H24532463   2.854   2.053   1.027  0.2666 -1.1766 -0.0198
   90MOL   H24632464   2.928   1.927   1.106 -1.4001  0.9950  2.8379
   90MOL   H24732465   2.955   2.207   1.223 -1.9015  0.3017  1.5315
   90MOL   H24832466   3.003   2.056   1.297  0.8874  1.5170  0.9354
   90MOL   H24932467   2.711   2.140   1.216  0.5908  1.2470  0.7784
   90MOL   H25032468   2.764   1.994   1.274 -0.5460  0.2032 -4.1297
   90MOL   H25132469   2.844   2.114   1.489  1.0010 -2.0835 -1.5277
   90MOL   H25232470   2.773   2.255   1.433  0.9078 -0.3044  1.4304
   90MOL   H25332471   2.673   2.105   1.454  0.6886 -2.7853 -2.1982
   90MOL   C25432472   3.098   2.175   0.930 -0.7178 -0.4526  0.8453
   90MOL   C25532473   3.251   2.201   0.886 -0.0125  0.0244 -0.3484
   90MOL   C25632474   3.325   2.309   0.971 -0.2479  0.8007  0.1703
   90MOL   C25732475   3.263   2.447   0.972  0.5880 -0.0656  0.3626
   90MOL   C25832476   3.301   2.525   1.091  0.0465 -0.7098 -1.1067
   90MOL   C25932477   3.274   2.680   1.083 -0.3287 -0.3394  0.5245
   90MOL   H26032478   3.051   2.264   0.971 -1.8184 -0.2945 -0.7287
   90MOL   H26132479   3.049   2.162   0.834  1.4537  0.7977 -0.4684
   90MOL   H26232480   3.312   2.112   0.900  0.4064  0.2982 -0.4102
   90MOL   H26332481   3.327   2.276   1.075 -0.5164  2.0179  0.5661
   90MOL   H26432482   3.431   2.315   0.943  0.6593 -0.8990  2.9858
   90MOL   H26532483   3.300   2.490   0.879  3.5661 -1.7903  0.6864
   90MOL   H26632484   3.155   2.436   0.965  0.4995  0.9251  0.0436
   90MOL   H26732485   3.404   2.502   1.115 -1.1630 -1.4931  4.1214
   90MOL   H26832486   3.248   2.479   1.175 -0.6199  1.6321 -0.2003
   90MOL   H26932487   3.308   2.721   1.178 -1.2271  1.3067  0.1537
   90MOL   H27032488   3.170   2.708   1.065  0.8485  4.9697  1.2412
   90MOL   H27132489   3.336   2.712   1.000 -0.5965  1.5049  1.0193
   90MOL   C27232490   3.268   2.220   0.736 -0.4363 -0.3529  0.3691
   90MOL   C27332491   3.401   2.190   0.669 -0.4276 -0.3362 -0.0393
   90MOL   C27432492   3.462   2.290   0.563  0.0749  0.4645 -0.6287
   90MOL   C27532493   3.362   2.327   0.453 -0.5269  0.1245  0.0828
   90MOL   C27632494   3.426   2.430   0.358 -0.1389 -0.5414 -0.8550
   90MOL   C27732495   3.543   2.389   0.266 -0.4636 -0.1249 -0.2181
   90MOL   H27832496   3.197   2.159   0.680  1.7895 -0.6677 -2.2559
   90MOL   H27932497   3.233   2.318   0.704  4.1770  1.0746 -0.7465
   90MOL   H28032498   3.474   2.192   0.750 -2.3726  2.7681  1.7606
   90MOL   H28132499   3.550   2.238   0.525 -0.7505 -1.6483  0.2621
   90MOL   H28232500   3.494   2.381   0.613 -2.5036  0.8748  0.3833
   90MOL   H28332501   3.270   2.373   0.490  0.5150  0.6008  2.1990
   90MOL   H28432502   3.328   2.242   0.395 -3.6135  0.3761  1.4003
   90MOL   H28532503   3.344   2.468   0.299 -1.8218 -1.2530  0.9771
   90MOL   H28632504   3.457   2.518   0.415 -0.6279 -0.4905 -0.6697
   90MOL   H28732505   3.615   2.352   0.339 -1.4661 -2.5848 -0.4427
   90MOL   H28832506   3.511   2.309   0.200  3.5617 -2.1419  0.1348
   90MOL   H28932507   3.587   2.471   0.208  1.6785 -1.1213 -0.0354
   90MOL   C29032508   3.387   2.044   0.605  0.0158 -0.3617  0.0199
   90MOL   C29132509   3.516   1.966   0.561  0.0180  0.3665  1.3546
   90MOL   C29232510   3.602   1.910   0.674  0.2256  0.2762  0.1592
   90MOL   C29332511   3.749   1.960   0.654  0.8274 -0.2114 -0.3992
   90MOL   C29432512   3.842   1.906   0.768  0.3382 -0.4558  0.2045
   90MOL   C29532513   3.857   1.993   0.899  0.3205  0.2418 -0.2381
   90MOL   H29632514   3.316   2.040   0.522  0.3393  0.9918 -0.3266
   90MOL   H29732515   3.330   1.979   0.671 -2.8249  1.4507 -0.5888
   90MOL   H29832516   3.572   2.034   0.497  1.9585 -2.2357  0.1998
   90MOL   H29932517   3.607   1.802   0.685  1.2407 -0.0023 -2.6911
   90MOL   H30032518   3.569   1.952   0.769  0.0112  0.4350  0.0176
   90MOL   H30132519   3.793   1.929   0.560  1.1723  1.3087 -0.7476
   90MOL   H30232520   3.748   2.069   0.657 -1.3469 -0.1576 -1.6319
   90MOL   H30332521   3.944   1.890   0.733  0.2277  0.3850 -0.5191
   90MOL   H30432522   3.822   1.800   0.780 -2.5025  0.1604  1.3148
   90MOL   H30532523   3.918   2.081   0.879  0.6318  0.1754  0.4171
   90MOL   H30632524   3.886   1.950   0.994 -3.4429 -0.7367  0.5679
   90MOL   H30732525   3.762   2.038   0.930 -0.4147 -1.0821 -0.5571
   90MOL   C30832526   3.471   1.851   0.461 -0.0918  0.4876 -0.7710
   90MOL   C30932527   3.583   1.760   0.404 -0.1409 -0.0311  0.5659
   90MOL   C31032528   3.668   1.835   0.302 -0.2506 -0.3479 -0.4354
   90MOL   C31132529   3.606   1.858   0.162  1.0591  0.3956 -0.9015
   90MOL   C31232530   3.700   1.909   0.052 -0.2915 -0.3580 -0.0208
   90MOL   C31332531   3.798   2.019   0.087  0.0702 -0.5208 -0.2717
   90MOL   H31432532   3.395   1.795   0.516 -0.7930 -0.0374 -2.2495
   90MOL   H31532533   3.419   1.908   0.385  0.4962 -0.0933 -1.6111
   90MOL   H31632534   3.660   1.739   0.479  0.2490  1.2900  0.5630
   90MOL   H31732535   3.762   1.781   0.287 -0.5360 -0.4534 -1.9536
   90MOL   H31832536   3.693   1.935   0.336 -0.9477 -0.0103 -0.9019
   90MOL   H31932537   3.526   1.931   0.176 -1.3669 -1.9258 -2.1570
   90MOL   H32032538   3.557   1.768   0.125  1.5545 -0.3116  0.1432
   90MOL   H32132539   3.754   1.822   0.014  0.8669  1.1393 -1.8995
   90MOL   H32232540   3.631   1.939   7.700  0.0759  0.8861  0.1304
   90MOL   H32332541   3.745   2.110   0.116  0.5073 -0.8804  1.7159
   90MOL   H32432542   3.857   2.042   7.725  0.5205  0.5038  0.2792
   90MOL   H32532543   3.868   1.986   0.164  0.3839  1.4458  0.3060
   90MOL   C32632544   3.527   1.627   0.343 -0.5123  0.4036  0.2340
   90MOL   C32732545   3.479   1.519   0.444  0.2640 -0.1412 -0.6082
   90MOL   C32832546   3.406   1.396   0.376 -0.3406 -0.8884 -0.0075
   90MOL   C32932547   3.260   1.421   0.342  0.0013 -0.2225 -0.4038
   90MOL   C33032548   3.213   1.332   0.226  0.2444 -0.4230 -0.0106
   90MOL   C33132549   3.075   1.385   0.181  0.1897  0.7154 -0.2121
   90MOL   H33232550   3.598   1.582   0.274  0.0356  2.4356 -0.5683
   90MOL   H33332551   3.449   1.660   0.274  2.3068  1.2250 -2.7314
   90MOL   H33432552   3.418   1.566   0.521 -0.8756 -1.3673 -0.7449
   90MOL   H33532553   3.462   1.372   0.286 -3.3159 -0.6203 -1.9933
   90MOL   H33632554   3.421   1.301   0.427 -0.0351 -0.9924 -0.2864
   90MOL   H33732555   3.245   1.526   0.315 -0.8718 -0.4043 -0.6172
   90MOL   H33832556   3.196   1.414   0.430  1.1992  2.0523  0.7218
   90MOL   H33932557   3.283   1.334   0.143  0.5403 -0.9689  0.2171
   90MOL   H34032558   3.198   1.232   0.266  0.6291 -0.4156  0.1551
   90MOL   H34132559   3.081   1.490   0.153 -0.4699  0.6480 -0.6132
   90MOL   H34232560   2.998   1.380   0.257  0.9586  0.5791  0.5687
   90MOL   H34332561   3.033   1.321   0.103 -1.6020  0.3882  0.9923
   90MOL   C34432562   3.599   1.460   0.527  0.5031 -0.7140 -0.0490
   90MOL   C34532563   3.560   1.380   0.656 -0.1198 -0.1092 -0.2268
   90MOL   C34632564   3.683   1.329   0.735  0.8266 -0.0700  0.3836
   90MOL   C34732565   3.639   1.235   0.854 -0.1341 -0.6091  0.5182
   90MOL   C34832566   3.740   1.123   0.867 -0.9000  0.1528  0.4554
   90MOL   C34932567   3.713   1.033   0.990  0.6238 -0.5534  0.4038
   90MOL   H35032568   3.660   1.396   0.464  0.5738 -1.8430  1.1357
   90MOL   H35132569   3.658   1.545   0.561  1.8579 -1.6933  0.0851
   90MOL   H35232570   3.501   1.293   0.629  0.1743 -0.2408 -0.4569
   90MOL   H35332571   3.748   1.279   0.663 -1.3521  0.2595 -1.8473
   90MOL   H35432572   3.733   1.419   0.771 -0.5913  0.9906 -0.2425
   90MOL   H35532573   3.642   1.300   0.941  0.5022  1.0466 -0.7195
   90MOL   H35632574   3.537   1.198   0.841 -0.9491  1.5425  0.5447
   90MOL   H35732575   3.745   1.073   0.770 -0.4596 -0.2777  0.6985
   90MOL   H35832576   3.839   1.167   0.876 -0.4248 -0.3527 -2.0517
   90MOL   H35932577   3.761   0.936   1.002  3.2179  0.5746 -0.4833
   90MOL   H36032578   3.719   1.089   1.084  0.5901 -0.8884  0.6071
   90MOL   H36132579   3.606   1.017   0.980  0.9661 -1.6639 -1.6269
   90MOL   H36232580   3.504   1.444   0.723  0.8381 -0.2691  0.7355
   91MOL     C132581   1.602   5.129   4.022 -0.3990  0.1532  0.8726
   91MOL     C232582   1.751   5.123   3.979  0.5035  0.3045  0.7974
   91MOL     C332583   1.808   4.990   4.008  0.5572 -0.3763  0.6161
   91MOL     C432584   1.760   4.876   3.917  0.2197  0.0956 -0.1677
   91MOL     C532585   1.807   4.735   3.956  0.2503 -0.0525  0.6557
   91MOL     C632586   1.792   4.630   3.843 -0.1951 -0.7138  0.4067
   91MOL     H732587   1.555   5.220   3.983  0.3474  0.4983  0.7712
   91MOL     H832588   1.539   5.044   3.995 -3.0846  2.7780 -1.4427
   91MOL     H932589   1.742   5.143   3.872 -3.7473  1.2005  1.2364
   91MOL    H1032590   1.792   4.967   4.113  0.7721 -1.1804  0.4722
   91MOL    H1132591   1.917   4.990   4.012  0.6537 -1.1814 -1.5810
   91MOL    H1232592   1.802   4.902   3.820 -0.6780  0.6122 -0.4272
   91MOL    H1332593   1.653   4.874   3.894  0.6702 -2.1226 -2.1883
   91MOL    H1432594   1.912   4.751   3.978  0.6124  0.0117 -1.0305
   91MOL    H1532595   1.762   4.702   4.050  0.2318 -1.7557  0.0701
   91MOL    H1632596   1.689   4.629   3.807  0.0742  2.2245 -0.6023
   91MOL    H1732597   1.823   4.529   3.871  2.1417 -0.4344 -1.0487
   91MOL    H1832598   1.847   4.657   3.753 -2.2652  1.6737 -0.1922
   91MOL    H1932599   1.594   5.138   4.130 -0.7830 -0.3536  0.8884
   91MOL    C2032600   1.831   5.235   4.034 -0.0369 -0.6475 -0.4565
   91MOL    C2132601   1.786   5.366   3.967  0.3044 -0.3399 -0.1960
   91MOL    C2232602   1.707   5.451   4.061  1.0126  0.3864 -0.1946
   91MOL    C2332603   1.617   5.575   4.015 -0.6457  0.6661 -0.1326
   91MOL    C2432604   1.551   5.655   4.132  0.0948 -0.8038 -0.2329
   91MOL    C2532605   1.498   5.784   4.072  0.7208 -0.1395 -0.1500
   91MOL    H2632606   1.938   5.212   4.034  0.1868  0.3555 -0.9573
   91MOL    H2732607   1.808   5.230   4.141 -0.3907 -2.9942 -0.6234
   91MOL    H2832608   1.724   5.362   3.877  1.6710  0.2410 -1.1782
   91MOL    H2932609   1.772   5.485   4.141  2.0261  0.1747 -0.9248
   91MOL    H3032610   1.629   5.388   4.106  0.2967  0.1831 -1.6853
   91MOL    H3132611   1.536   5.554   3.945 -0.7214  2.1756 -0.5202
   91MOL    H3232612   1.683   5.643   3.961  2.7730 -0.9362  1.8708
   91MOL    H3332613   1.471   5.595   4.177 -0.6197 -0.5632 -1.1684
   91MOL    H3432614   1.621   5.689   4.208 -0.6998  1.8679 -0.6540
   91MOL    H3532615   1.578   5.831   4.015 -0.5321  1.6215 -0.5038
   91MOL    H3632616   1.410   5.771   4.009  0.6798 -0.8632  0.0557
   91MOL    H3732617   1.466   5.852   4.152  2.8543  0.7014  0.0071
   91MOL    C3832618   1.914   5.435   3.929 -0.3223  0.2597  0.0327
   91MOL    C3932619   1.979   5.386   3.795 -0.1136 -0.0376  1.2832
   91MOL    C4032620   1.896   5.424   3.673  0.2169  0.3764 -0.5278
   91MOL    C4132621   1.882   5.314   3.567 -0.0581 -0.1464  0.3240
   91MOL    C4232622   1.841   5.373   3.437  0.3344  0.2599 -0.3573
   91MOL    C4332623   1.826   5.280   3.321  0.0532  0.0797  0.1194
   91MOL    H4432624   1.995   5.417   4.000 -0.4848  0.6382  0.3141
   91MOL    H4532625   1.901   5.543   3.919 -1.8456  0.0835  0.0659
   91MOL    H4632626   1.984   5.277   3.801 -0.3929 -0.3659 -2.8339
   91MOL    H4732627   1.799   5.465   3.700  1.4019  2.0247  1.4066
   91MOL    H4832628   1.944   5.512   3.631  0.7572 -0.2460 -1.2336
   91MOL    H4932629   1.971   5.257   3.541  0.1962  1.1647 -1.8022
   91MOL    H5032630   1.812   5.244   3.614 -1.9717  0.7236 -1.1356
   91MOL    H5132631   1.747   5.429   3.444  0.3370  0.1004  0.9726
   91MOL    H5232632   1.915   5.449   3.410  1.6099 -0.0990  2.0466
   91MOL    H5332633   1.816   5.324   3.222 -0.8382 -1.1451 -0.3411
   91MOL    H5432634   1.754   5.199   3.332 -0.6633  0.2473 -2.9801
   91MOL    H5532635   1.918   5.223   3.311  0.1181  0.3790 -1.0792
   91MOL    C5632636   2.123   5.446   3.777  0.1161 -0.4675 -0.3904
   91MOL    C5732637   2.229   5.376   3.857 -0.2338 -0.1035 -0.5326
   91MOL    C5832638   2.272   5.463   3.975  1.0267  0.0085 -1.3477
   91MOL    C5932639   2.358   5.397   4.082 -0.2355 -0.3697 -0.6555
   91MOL    C6032640   2.299   5.283   4.172 -0.2788 -0.3671  0.0714
   91MOL    C6132641   2.182   5.337   4.254  0.2869 -0.0615 -0.6910
   91MOL    H6232642   2.156   5.465   3.675  0.2076  1.5528 -0.0065
   91MOL    H6332643   2.124   5.550   3.809 -2.5137 -0.8315  0.9917
   91MOL    H6432644   2.187   5.283   3.894  1.7130 -1.4452 -1.6201
   91MOL    H6532645   2.332   5.547   3.941  0.6641  0.8606  0.0906
   91MOL    H6632646   2.181   5.506   4.017  1.0932 -0.4614 -0.7186
   91MOL    H6732647   2.383   5.485   4.141 -0.5535 -0.4487 -0.3981
   91MOL    H6832648   2.450   5.367   4.032 -0.4198 -1.1383 -0.5448
   91MOL    H6932649   2.272   5.196   4.113 -2.3558  0.3988 -0.1638
   91MOL    H7032650   2.377   5.246   4.239  0.4535  0.3764 -0.3553
   91MOL    H7132651   2.158   5.273   4.338 -0.1115 -1.3697 -1.7969
   91MOL    H7232652   2.208   5.441   4.276 -0.5982  0.2347 -1.0420
   91MOL    H7332653   2.096   5.349   4.189 -1.9960  0.2949  2.3025
   91MOL    C7432654   2.341   5.328   3.771  0.3443 -0.3825  0.4285
   91MOL    C7532655   2.309   5.236   3.651  0.0622  0.2649 -0.1115
   91MOL    C7632656   2.385   5.302   3.535 -0.1009  0.0585 -0.0311
   91MOL    C7732657   2.370   5.229   3.404 -0.3442  0.6944 -0.8790
   91MOL    C7832658   2.227   5.210   3.342  0.0541  0.3201  0.1225
   91MOL    C7932659   2.211   5.150   3.203  0.4597  0.2361 -0.0327
   91MOL    H8032660   2.383   5.425   3.742 -1.1491 -0.0860 -0.7585
   91MOL    H8132661   2.427   5.286   3.825  1.4165 -0.7293 -1.5113
   91MOL    H8232662   2.205   5.243   3.619  0.1808  2.1676 -0.1269
   91MOL    H8332663   2.352   5.406   3.523 -0.8072 -0.0947  0.5284
   91MOL    H8432664   2.489   5.293   3.567  0.2510 -2.1782 -1.6960
   91MOL    H8532665   2.426   5.287   3.330  1.5030 -0.0701 -0.1203
   91MOL    H8632666   2.427   5.136   3.403 -1.9090 -0.3430  2.1595
   91MOL    H8732667   2.172   5.303   3.355 -0.5107  0.1821 -1.1600
   91MOL    H8832668   2.173   5.142   3.407 -0.9791  0.0083 -1.0331
   91MOL    H8932669   2.218   5.227   3.127 -1.4859 -1.6027 -2.1713
   91MOL    H9032670   2.289   5.075   3.191 -0.3608 -0.3473 -1.8513
   91MOL    H9132671   2.116   5.096   3.202  0.6441 -0.0808 -0.5223
   91MOL    C9232672   2.348   5.089   3.690 -0.2355 -0.2912 -0.6499
   91MOL    C9332673   2.270   5.001   3.787 -0.2896 -0.0635 -0.8922
   91MOL    C9432674   2.126   4.958   3.740  0.2995 -0.8000  0.6713
   91MOL    C9532675   2.133   4.851   3.626 -0.3897 -0.2274 -0.1689
   91MOL    C9632676   2.003   4.847   3.552 -0.6659 -0.1466 -0.0222
   91MOL    C9732677   1.987   4.719   3.474  0.1654 -1.3045  0.0755
   91MOL    H9832678   2.359   5.029   3.600  1.1793  0.5828 -1.0651
   91MOL    H9932679   2.455   5.100   3.708 -0.5503  1.3306  0.2975
   91MOL   H10032680   2.249   5.067   3.871 -0.1325  0.7096 -1.4553
   91MOL   H10132681   2.068   5.046   3.710 -0.3481 -0.6805  2.1723
   91MOL   H10232682   2.059   4.927   3.821  0.0769  1.3617  1.3674
   91MOL   H10332683   2.215   4.883   3.561 -0.6771 -2.0013 -1.4430
   91MOL   H10432684   2.173   4.759   3.671  0.6937  1.9689  3.5412
   91MOL   H10532685   1.928   4.863   3.630  0.1947  0.2349  0.7386
   91MOL   H10632686   1.989   4.924   3.476 -0.5809  2.0811  2.1610
   91MOL   H10732687   1.880   4.708   3.454  0.1277 -0.7434 -0.0228
   91MOL   H10832688   2.040   4.728   3.380  0.7748  2.1979  0.6893
   91MOL   H10932689   2.028   4.629   3.521  0.2559 -1.0197  0.5435
   91MOL   C11032690   2.355   4.876   3.819 -0.3343 -0.1098 -0.1819
   91MOL   C11132691   2.304   4.781   3.924 -0.2192  0.0545  0.3703
   91MOL   C11232692   2.305   4.855   4.056  0.0309  0.0943  0.4150
   91MOL   C11332693   2.185   4.819   4.150  0.1069  0.6371  0.3030
   91MOL   C11432694   2.190   4.887   4.287  0.9253 -0.2759 -0.2725
   91MOL   C11532695   2.075   4.833   4.373  0.8097 -0.6360  0.7014
   91MOL   H11632696   2.377   4.819   3.729 -1.1898 -0.6575 -0.0588
   91MOL   H11732697   2.450   4.919   3.850 -1.0707  0.9235  0.6811
   91MOL   H11832698   2.196   4.775   3.914 -0.3215 -0.4930  1.6733
   91MOL   H11932699   2.306   4.964   4.054  0.2572  0.0612 -1.6109
   91MOL   H12032700   2.390   4.830   4.120 -0.0926 -1.8784 -0.1862
   91MOL   H12132701   2.163   4.716   4.178 -0.2293  0.0436 -2.0525
   91MOL   H12232702   2.097   4.858   4.098  0.9292 -0.4655 -1.9945
   91MOL   H12332703   2.185   4.995   4.272  1.8434 -0.3482 -1.2314
   91MOL   H12432704   2.285   4.866   4.337  0.0847 -1.2451  0.9528
   91MOL   H12532705   1.977   4.855   4.331  1.2098 -1.1972 -0.5521
   91MOL   H12632706   2.080   4.726   4.393  1.9240 -1.4965 -3.7359
   91MOL   H12732707   2.073   4.885   4.470 -0.0495  1.0619 -0.2050
   91MOL   C12832708   2.385   4.647   3.933  0.1080  0.2238  0.1748
   91MOL   C12932709   2.373   4.556   3.811 -0.2808  0.4382  0.4635
   91MOL   C13032710   2.230   4.493   3.807 -0.5451  0.7217 -1.1734
   91MOL   C13132711   2.200   4.385   3.691  1.0159  0.4465 -0.5436
   91MOL   C13232712   2.060   4.332   3.713  0.4166  0.6799  0.0054
   91MOL   C13332713   2.055   4.184   3.664 -0.0139  0.0990  0.6610
   91MOL   H13432714   2.350   4.594   4.022 -1.6321 -1.0818 -1.2388
   91MOL   H13532715   2.488   4.680   3.947 -0.2919  1.0419  1.2312
   91MOL   H13632716   2.389   4.614   3.720 -1.3055  2.0049  1.2666
   91MOL   H13732717   2.215   4.437   3.899 -0.4930 -0.6783 -1.9937
   91MOL   H13832718   2.155   4.572   3.811 -1.0367  0.3450 -2.6866
   91MOL   H13932719   2.257   4.292   3.687 -0.9957 -0.8099 -0.5632
   91MOL   H14032720   2.208   4.430   3.592 -2.1984 -1.2897 -1.6597
   91MOL   H14132721   2.022   4.328   3.815 -0.3800  1.8015 -0.2509
   91MOL   H14232722   2.001   4.401   3.653 -0.7510  0.1456  0.5191
   91MOL   H14332723   1.955   4.148   3.690  0.2488  0.4184  2.1780
   91MOL   H14432724   2.127   4.122   3.718 -0.2026  0.4869  1.3596
   91MOL   H14532725   2.060   4.186   3.555  0.3519 -2.3448  0.6168
   91MOL   C14632726   2.479   4.447   3.807  0.2222  0.2781  0.5339
   91MOL   C14732727   2.631   4.464   3.831 -0.4454 -0.0911  0.3181
   91MOL   C14832728   2.685   4.586   3.748  0.1791 -0.4498 -0.4926
   91MOL   C14932729   2.836   4.623   3.756  0.0227 -0.0277  0.1879
   91MOL   C15032730   2.885   4.641   3.899  0.3686  0.7785 -0.5594
   91MOL   C15132731   2.826   4.763   3.963 -0.6822  0.7722 -0.0563
   91MOL   H15232732   2.445   4.375   3.882 -2.6482  0.5607 -0.4266
   91MOL   H15332733   2.465   4.387   3.717  1.1057 -1.2772  1.4093
   91MOL   H15432734   2.645   4.490   3.936 -3.4070 -0.7479  0.9335
   91MOL   H15532735   2.620   4.674   3.754 -0.1261 -0.7337  0.6408
   91MOL   H15632736   2.667   4.557   3.645 -0.6282 -1.2403 -0.1425
   91MOL   H15732737   2.900   4.551   3.705 -1.0748 -2.5486  2.2519
   91MOL   H15832738   2.857   4.716   3.703 -0.0810 -0.9192 -1.4560
   91MOL   H15932739   2.994   4.646   3.892  0.5907 -2.0050  0.2773
   91MOL   H16032740   2.861   4.555   3.962  1.4481  0.7600 -0.1635
   91MOL   H16132741   2.840   4.853   3.903 -2.7574  1.6674  0.7426
   91MOL   H16232742   2.719   4.748   3.978 -0.1618 -2.2906  1.0037
   91MOL   H16332743   2.872   4.784   4.060  1.8906  0.5422 -1.1817
   91MOL   C16432744   2.711   4.333   3.793 -0.1329  0.3830  0.0830
   91MOL   C16532745   2.706   4.219   3.897  0.0223 -0.4286 -0.0926
   91MOL   C16632746   2.714   4.081   3.834  0.1980  0.0749  0.2092
   91MOL   C16732747   2.590   4.045   3.747  0.3280 -0.0563  0.2715
   91MOL   C16832748   2.557   3.897   3.721  1.0876 -0.5028  0.2533
   91MOL   C16932749   2.417   3.878   3.670 -0.2991 -0.5278 -0.1567
   91MOL   H17032750   2.683   4.306   3.691  0.8081  0.0370 -0.0885
   91MOL   H17132751   2.817   4.357   3.787  0.4728 -1.8714  1.0686
   91MOL   H17232752   2.606   4.222   3.939  0.4824  1.4316  0.9303
   91MOL   H17332753   2.722   4.006   3.912  0.4988 -0.3362 -0.2119
   91MOL   H17432754   2.808   4.072   3.779 -1.2681 -3.7841 -1.8500
   91MOL   H17532755   2.594   4.096   3.651 -2.9001  1.7590  1.0137
   91MOL   H17632756   2.497   4.085   3.787  1.7536  2.5045  1.1311
   91MOL   H17732757   2.542   3.854   3.821  0.4834  0.4566  0.5827
   91MOL   H17832758   2.629   3.842   3.661  1.3465  1.2101 -1.0521
   91MOL   H17932759   2.402   3.921   3.571 -0.7174 -0.6946 -0.1678
   91MOL   H18032760   2.348   3.927   3.738 -2.1914 -0.2228 -2.2518
   91MOL   H18132761   2.385   3.774   3.672 -0.3265 -0.5087  0.3835
   91MOL   C18232762   2.815   4.234   4.013  0.1963  0.5118  0.3730
   91MOL   C18332763   2.760   4.187   4.153 -0.6122  0.1861  0.5156
   91MOL   C18432764   2.646   4.268   4.209  0.8699 -0.3528  0.8597
   91MOL   C18532765   2.685   4.412   4.248 -0.0816  0.1647  0.1326
   91MOL   C18632766   2.580   4.500   4.321  0.0431 -0.2422  0.0200
   91MOL   C18732767   2.646   4.625   4.385  0.0430  0.3024 -0.1460
   91MOL   H18832768   2.907   4.181   3.991  0.6328  0.3158  2.5491
   91MOL   H18932769   2.862   4.332   4.024 -0.6848  1.1189 -1.0408
   91MOL   H19032770   2.725   4.085   4.137 -1.4114  0.1415  2.4263
   91MOL   H19132771   2.553   4.263   4.152  0.8463  0.2227  0.8399
   91MOL   H19232772   2.607   4.226   4.302 -2.2201  1.9929  0.7073
   91MOL   H19332773   2.718   4.463   4.158 -0.8965  0.0944 -0.2034
   91MOL   H19432774   2.770   4.409   4.317 -1.0287  2.8944  1.4845
   91MOL   H19532775   2.538   4.437   4.399  1.3028 -0.4019  0.5803
   91MOL   H19632776   2.506   4.537   4.249  0.8991 -0.6960 -1.1189
   91MOL   H19732777   2.694   4.593   4.477 -0.5472  0.5901  0.2700
   91MOL   H19832778   2.567   4.696   4.409 -2.0462 -2.1699  0.4535
   91MOL   H19932779   2.718   4.680   4.325  0.8418  0.1657  0.6790
   91MOL   C20032780   2.873   4.169   4.251  0.3474 -0.4390 -0.3931
   91MOL   C20132781   2.958   4.043   4.229 -0.3328  0.3379  0.0731
   91MOL   C20232782   3.097   4.076   4.291  0.4568  0.3524 -0.3084
   91MOL   C20332783   3.199   3.973   4.313  0.5654  0.2946  0.2193
   91MOL   C20432784   3.333   4.025   4.370  0.1140 -0.0000  0.3793
   91MOL   C20532785   3.317   4.062   4.517  0.6995  0.2526  0.3122
   91MOL   H20632786   2.828   4.157   4.349 -0.5093 -2.4058 -1.0085
   91MOL   H20732787   2.933   4.261   4.255 -1.8180  0.9699  0.3614
   91MOL   H20832788   2.973   4.032   4.122 -0.6923  2.7672 -0.2527
   91MOL   H20932789   3.076   4.126   4.386 -1.5038  0.1276 -0.5890
   91MOL   H21032790   3.139   4.152   4.226 -1.1320  3.2472  1.9215
   91MOL   H21132791   3.211   3.931   4.213 -1.4600  0.0562  0.0689
   91MOL   H21232792   3.163   3.889   4.372  0.6990  0.5120  0.6133
   91MOL   H21332793   3.355   4.105   4.299 -0.0625  0.1990  0.5509
   91MOL   H21432794   3.417   3.955   4.362  0.1202 -0.0897  1.1794
   91MOL   H21532795   3.412   4.059   4.570  2.0571 -2.2980 -2.1186
   91MOL   H21632796   3.259   4.153   4.527  0.9508  0.4348  0.1317
   91MOL   H21732797   3.262   3.983   4.568  1.0525 -1.8327 -2.4260
   91MOL   C21832798   2.893   3.917   4.293 -0.5358 -0.1380 -0.2689
   91MOL   C21932799   2.922   3.780   4.236 -0.0163  0.4740  0.1847
   91MOL   C22032800   2.817   3.750   4.123  0.4414  0.0623 -0.3754
   91MOL   C22132801   2.851   3.619   4.044 -0.3473  0.1630 -0.4555
   91MOL   C22232802   2.769   3.601   3.915  0.5526  0.5964  0.4081
   91MOL   C22332803   2.786   3.469   3.839  0.9275 -0.3130 -0.4601
   91MOL   H22432804   2.911   3.911   4.401 -1.2361 -1.7379 -0.2172
   91MOL   H22532805   2.786   3.933   4.307 -0.4542 -0.2688  0.5203
   91MOL   H22632806   3.025   3.785   4.198  0.1033 -1.3252  0.2271
   91MOL   H22732807   2.809   3.837   4.058  0.5631  1.4417  1.4214
   91MOL   H22832808   2.713   3.746   4.155  0.2488  0.9558 -0.8775
   91MOL   H22932809   2.847   3.530   4.108 -0.1003  0.6969  0.3198
   91MOL   H23032810   2.955   3.631   4.013  0.1305 -1.7900  0.2867
   91MOL   H23132811   2.663   3.614   3.936  0.1261 -1.6331 -0.2271
   91MOL   H23232812   2.800   3.681   3.848  0.1329  0.2122 -0.2579
   91MOL   H23332813   2.750   3.494   3.739  0.5563  0.4261 -0.1432
   91MOL   H23432814   2.714   3.398   3.879 -0.5976  1.4836  0.0149
   91MOL   H23532815   2.892   3.440   3.836  1.7738  2.4773  0.6722
   91MOL   C23632816   2.912   3.669   4.344  0.1344 -0.3634 -0.8636
   91MOL   C23732817   3.034   3.640   4.438  0.3549 -0.1988  0.3692
   91MOL   C23832818   3.145   3.570   4.358 -0.0689 -0.0757  0.6328
   91MOL   C23932819   3.287   3.584   4.429  0.3710 -0.0112  0.1354
   91MOL   C24032820   3.396   3.504   4.359  0.1395 -0.2405 -0.0111
   91MOL   C24132821   3.532   3.510   4.417 -0.1633 -0.0294  0.3306
   91MOL   H24232822   2.825   3.675   4.411  1.0180 -1.6315  0.4344
   91MOL   H24332823   2.884   3.576   4.295 -1.8978 -0.6286  0.7208
   91MOL   H24432824   3.082   3.722   4.492  2.2244  0.3704 -2.0694
   91MOL   H24532825   3.115   3.467   4.337 -2.7160  0.2081  2.6438
   91MOL   H24632826   3.151   3.619   4.261 -1.4002 -2.3532 -0.6623
   91MOL   H24732827   3.282   3.533   4.525 -1.7996  1.1352  0.6597
   91MOL   H24832828   3.321   3.687   4.438 -0.0321 -0.0135  1.8218
   91MOL   H24932829   3.372   3.399   4.340  1.3862 -0.8291  1.5597
   91MOL   H25032830   3.423   3.546   4.262 -0.1865  2.3392  0.9651
   91MOL   H25132831   3.567   3.613   4.428 -2.3883  0.5313  2.7171
   91MOL   H25232832   3.551   3.454   4.509 -0.9584  0.4914  0.8212
   91MOL   H25332833   3.597   3.460   4.345  1.5172  0.5818  1.3798
   91MOL   C25432834   2.988   3.543   4.554  0.5281 -0.1512  0.3664
   91MOL   C25532835   2.897   3.593   4.670 -0.4474  0.2713  0.1025
   91MOL   C25632836   2.987   3.635   4.796 -0.2344 -0.0855 -0.8502
   91MOL   C25732837   3.103   3.732   4.765 -0.3333  0.3090 -0.3345
   91MOL   C25832838   3.162   3.784   4.896  0.0870  0.5016 -0.4864
   91MOL   C25932839   3.307   3.833   4.871  0.2891  0.5384  0.3410
   91MOL   H26032840   3.073   3.488   4.595  0.7204 -0.2626 -0.1664
   91MOL   H26132841   2.940   3.457   4.508  0.7214  0.3715 -0.8334
   91MOL   H26232842   2.842   3.682   4.640 -1.6726 -0.8273 -0.9723
   91MOL   H26332843   2.910   3.667   4.867  0.1642 -0.4811 -0.2323
   91MOL   H26432844   3.027   3.543   4.840 -1.3207 -0.7587 -1.2631
   91MOL   H26532845   3.172   3.668   4.710 -1.9117  0.3676 -2.4641
   91MOL   H26632846   3.078   3.818   4.702  1.2072  0.3731 -0.8948
   91MOL   H26732847   3.179   3.706   4.971  0.6270 -0.5300 -1.6659
   91MOL   H26832848   3.112   3.864   4.950  0.6528  0.5211  0.0145
   91MOL   H26932849   3.369   3.849   4.960  2.8223 -2.0603 -0.8848
   91MOL   H27032850   3.307   3.934   4.829 -1.4632 -0.5807 -2.4855
   91MOL   H27132851   3.371   3.781   4.801  0.9138  0.9350  0.6153
   91MOL   C27232852   2.778   3.489   4.697 -0.7169 -0.3934 -0.5569
   91MOL   C27332853   2.667   3.480   4.590 -0.3321 -0.2563 -0.0118
   91MOL   C27432854   2.552   3.579   4.630  0.3697  0.0589 -0.2113
   91MOL   C27532855   2.583   3.726   4.621 -0.0612  0.2853 -0.2006
   91MOL   C27632856   2.461   3.822   4.604  0.5148  0.4472  0.0801
   91MOL   C27732857   2.344   3.812   4.704  0.5005 -0.6057  0.2358
   91MOL   H27832858   2.818   3.390   4.718  0.9451  0.3087 -0.3229
   91MOL   H27932859   2.737   3.520   4.793  1.1204 -1.0947  0.4985
   91MOL   H28032860   2.708   3.505   4.493  0.2792  1.4706  0.6747
   91MOL   H28132861   2.504   3.544   4.722  1.0940 -3.1603 -1.0104
   91MOL   H28232862   2.476   3.563   4.554  3.2383 -1.2594 -2.8872
   91MOL   H28332863   2.626   3.737   4.522 -0.5048  1.2015 -0.3027
   91MOL   H28432864   2.645   3.758   4.704  0.9190 -2.3491  0.0998
   91MOL   H28532865   2.504   3.921   4.619  0.1475  1.5568 -5.2618
   91MOL   H28632866   2.418   3.817   4.505  0.6047 -1.5375  0.1265
   91MOL   H28732867   2.305   3.711   4.694  1.9436 -1.3221  1.6719
   91MOL   H28832868   2.380   3.812   4.807 -0.4008  1.9512  0.6025
   91MOL   H28932869   2.267   3.889   4.697  0.6852 -0.5136 -0.8070
   91MOL   C29032870   2.610   3.332   4.578 -0.2162 -0.3755  0.3247
   91MOL   C29132871   2.707   3.221   4.522 -0.1294 -0.1967 -0.2322
   91MOL   C29232872   2.645   3.079   4.547 -0.2887 -0.0649  0.3592
   91MOL   C29332873   2.523   3.037   4.459 -1.1435 -0.1268  0.1653
   91MOL   C29432874   2.469   2.899   4.496 -0.2382 -0.0800  0.5278
   91MOL   C29532875   2.327   2.882   4.438 -0.7808 -0.9707 -0.2083
   91MOL   H29632876   2.521   3.339   4.515  0.3182  0.6140 -0.3297
   91MOL   H29732877   2.578   3.300   4.677  0.7184  1.4927  1.2522
   91MOL   H29832878   2.802   3.221   4.576  0.6685  1.0770 -1.6096
   91MOL   H29932879   2.605   3.079   4.649  0.0739 -2.8049  0.5271
   91MOL   H30032880   2.724   3.005   4.539  1.9443  2.1546  1.3455
   91MOL   H30132881   2.436   3.102   4.459 -1.2057 -0.2036 -1.0144
   91MOL   H30232882   2.534   3.034   4.351 -4.4950 -0.8405 -0.1956
   91MOL   H30332883   2.473   2.897   4.605 -0.5343 -0.3734  0.5329
   91MOL   H30432884   2.551   2.837   4.461  0.1132  0.5985  0.1292
   91MOL   H30532885   2.279   2.799   4.490 -0.5379 -1.7906 -1.2793
   91MOL   H30632886   2.318   2.857   4.333 -1.0153 -0.7799 -0.2339
   91MOL   H30732887   2.260   2.966   4.459 -2.1863 -1.5994 -2.0778
   91MOL   C30832888   2.756   3.236   4.371  0.2071  0.0151 -0.4219
   91MOL   C30932889   2.856   3.127   4.321 -0.1360  0.3486  0.0129
   91MOL   C31032890   2.990   3.133   4.390 -0.3980  0.0255  0.7494
   91MOL   C31132891   3.063   2.994   4.394 -1.1707 -0.0457 -0.3025
   91MOL   C31232892   3.208   3.024   4.431 -0.2234  0.2259 -0.4883
   91MOL   C31332893   3.278   2.908   4.489 -0.4640 -0.1935 -0.4612
   91MOL   H31432894   2.677   3.237   4.297 -0.9514  1.9556  0.8153
   91MOL   H31532895   2.805   3.333   4.357  0.4694 -0.1726 -0.8208
   91MOL   H31632896   2.811   3.031   4.347  3.1854 -1.0686  0.8415
   91MOL   H31732897   2.970   3.157   4.494  2.5574  1.2155  1.0741
   91MOL   H31832898   3.051   3.211   4.345 -1.4190  0.0590 -0.6220
   91MOL   H31932899   3.075   2.947   4.297 -1.2945 -3.6388  1.3378
   91MOL   H32032900   3.013   2.929   4.467 -0.7629  0.5604  0.5295
   91MOL   H32132901   3.259   3.058   4.341 -1.7585  0.6540 -1.2162
   91MOL   H32232902   3.219   3.100   4.509  0.8474  0.5597 -0.9483
   91MOL   H32332903   3.221   2.833   4.544  1.5931 -1.1964  0.3639
   91MOL   H32432904   3.363   2.936   4.551 -1.0836 -2.1952  1.3913
   91MOL   H32532905   3.307   2.838   4.410 -0.3035 -0.9491  0.2552
   91MOL   C32632906   2.876   3.111   4.168  0.1524  0.2513 -0.5410
   91MOL   C32732907   2.763   3.035   4.100  0.1278  0.3352  0.4449
   91MOL   C32832908   2.780   3.094   3.952 -0.3248 -0.3336 -0.1170
   91MOL   C32932909   2.688   3.048   3.848 -0.3586 -0.4047 -0.2522
   91MOL   C33032910   2.718   3.121   3.709  0.0385  0.2437 -0.2710
   91MOL   C33132911   2.664   3.052   3.587  0.7517  0.3482  0.3191
   91MOL   H33232912   2.969   3.077   4.124  0.1020  0.4125 -0.7763
   91MOL   H33332913   2.875   3.213   4.127 -0.3694  0.8612  0.9435
   91MOL   H33432914   2.663   3.054   4.137  0.0123 -0.5586  0.6016
   91MOL   H33532915   2.761   3.202   3.950  1.3555 -0.0040  0.7546
   91MOL   H33632916   2.884   3.090   3.921 -0.4129 -2.3223 -0.2076
   91MOL   H33732917   2.590   3.061   3.894  0.4991 -1.2449  1.8830
   91MOL   H33832918   2.687   2.939   3.837 -0.2768 -0.8544  3.6015
   91MOL   H33932919   2.682   3.223   3.723  0.1242 -0.0856  2.6474
   91MOL   H34032920   2.825   3.120   3.690  0.1929  2.2299  0.3923
   91MOL   H34132921   2.713   3.092   3.498  2.2969 -3.5739 -0.7248
   91MOL   H34232922   2.558   3.075   3.580  0.3632 -0.8614  1.9423
   91MOL   H34332923   2.676   2.944   3.589  1.1397  0.2381 -3.7605
   91MOL   C34432924   2.782   2.882   4.118 -1.2426 -0.4769  0.3391
   91MOL   C34532925   2.660   2.806   4.070 -0.8390  0.0573  0.3097
   91MOL   C34632926   2.615   2.701   4.174 -0.3712  0.1472  0.9670
   91MOL   C34732927   2.483   2.630   4.137  0.3332 -0.0817  0.0639
   91MOL   C34832928   2.481   2.569   3.996 -0.3765 -0.6009 -0.5848
   91MOL   C34932929   2.369   2.463   3.983  0.4646  0.1044 -0.5500
   91MOL   H35032930   2.867   2.837   4.066  0.1156  1.3171  0.9524
   91MOL   H35132931   2.801   2.854   4.222 -2.8231  0.6292  0.9352
   91MOL   H35232932   2.674   2.758   3.973  0.3134  0.8626  0.0634
   91MOL   H35332933   2.692   2.623   4.169  0.0914  0.6950 -0.6106
   91MOL   H35432934   2.607   2.756   4.269 -1.0568  1.6785  0.0416
   91MOL   H35532935   2.465   2.555   4.214 -0.9725 -0.2001 -0.3268
   91MOL   H35632936   2.399   2.699   4.143 -0.0546 -0.6496  1.2612
   91MOL   H35732937   2.472   2.653   3.927 -2.2330 -0.6712 -0.4359
   91MOL   H35832938   2.576   2.518   3.978 -1.9579 -3.7666 -0.4459
   91MOL   H35932939   2.266   2.500   3.991  0.0682 -1.2594  1.1177
   91MOL   H36032940   2.370   2.419   3.883  2.1100  0.0427 -0.5062
   91MOL   H36132941   2.376   2.388   4.062 -0.9343  0.2725 -0.2474
   91MOL   H36232942   2.573   2.872   4.071  0.2341  1.5579 -1.6035
   92MOL     C132943   1.515   5.145   7.589  0.0938  0.0917  0.3547
   92MOL     C232944   1.506   4.994   7.623  0.4071 -0.1366  0.0031
   92MOL     C332945   1.549   4.958   0.042  0.3005  0.4114 -0.2814
   92MOL     C432946   1.490   5.044   0.149 -0.5909 -0.6488 -0.2644
   92MOL     C532947   1.503   4.973   0.286  0.5004  0.3664 -0.6271
   92MOL     C632948   1.452   5.068   0.402 -0.1395 -0.3451  1.2430
   92MOL     H732949   1.460   5.206   7.660  0.2058  1.5549 -0.7927
   92MOL     H832950   1.621   5.171   7.585  0.6058 -1.4524  2.9910
   92MOL     H932951   1.400   4.973   7.614  1.1341 -3.2035 -2.1635
   92MOL    H1032952   1.658   4.953   0.051  0.4909 -0.8145 -2.7185
   92MOL    H1132953   1.523   4.857   0.076 -0.7618  0.3589 -1.2116
   92MOL    H1232954   1.384   5.062   0.132 -1.0744 -0.2708  2.8350
   92MOL    H1332955   1.539   5.141   0.152 -3.1953  0.6953  0.8953
   92MOL    H1432956   1.463   4.873   0.298  2.9153 -0.5339  0.2472
   92MOL    H1532957   1.608   4.970   0.315  0.7712 -1.9163 -1.7924
   92MOL    H1632958   1.479   5.034   0.502  1.8382  0.2273  0.9235
   92MOL    H1732959   1.343   5.064   0.403 -0.1102 -1.2192  1.0640
   92MOL    H1832960   1.484   5.171   0.389  2.1947 -0.7715  3.2336
   92MOL    H1932961   1.477   5.169   7.489 -0.2828  0.1494  0.5114
   92MOL    C2032962   1.582   4.905   7.523 -0.2470  0.4257 -0.5108
   92MOL    C2132963   1.524   4.911   7.379 -0.2193  0.5229  0.0657
   92MOL    C2232964   1.588   5.029   7.287  0.1512  0.2679 -0.0472
   92MOL    C2332965   1.499   5.087   7.173 -0.3137 -0.2022  0.6980
   92MOL    C2432966   1.569   5.183   7.081  0.9956 -0.2457 -0.2552
   92MOL    C2532967   1.502   5.204   6.946 -0.2505 -0.3239  0.4036
   92MOL    H2632968   1.587   4.800   7.554  0.4742  1.0936  1.7067
   92MOL    H2732969   1.685   4.941   7.518  0.0054 -0.0694  1.1034
   92MOL    H2832970   1.418   4.935   7.385 -0.4182 -0.2371 -0.3610
   92MOL    H2932971   1.682   4.993   7.244  0.7571 -2.1936  3.1557
   92MOL    H3032972   1.633   5.104   7.353  0.1507 -0.7217  1.0871
   92MOL    H3132973   1.406   5.127   7.211 -0.6191 -0.3134  0.0774
   92MOL    H3232974   1.480   5.004   7.105  1.2196 -1.3611  1.6400
   92MOL    H3332975   1.598   5.279   7.126  2.6397 -0.5698 -0.6134
   92MOL    H3432976   1.664   5.138   7.052  1.2067 -0.8740  1.3431
   92MOL    H3532977   1.411   5.260   6.969 -0.0129 -0.4941  1.8684
   92MOL    H3632978   1.553   5.278   6.885  2.0089 -1.6981  0.5536
   92MOL    H3732979   1.489   5.112   6.890 -3.8783  0.8629 -0.8281
   92MOL    C3832980   1.530   4.768   7.311  0.2580 -0.0547 -0.8098
   92MOL    C3932981   1.437   4.652   7.367 -0.1714 -0.3042  0.6101
   92MOL    C4032982   1.288   4.682   7.340  0.1703  0.3304 -0.1608
   92MOL    C4132983   1.253   4.689   7.193 -0.0048  0.0743 -0.4303
   92MOL    C4232984   1.104   4.729   7.184  0.0471  0.0444  0.2454
   92MOL    C4332985   1.062   4.749   7.039 -1.1173  0.2155 -0.1753
   92MOL    H4432986   1.633   4.736   7.327 -1.2555 -3.4908  3.1678
   92MOL    H4532987   1.526   4.762   7.202 -1.8882 -0.1022 -0.7457
   92MOL    H4632988   1.447   4.651   7.475 -0.4563  0.2153  0.6416
   92MOL    H4732989   1.234   4.606   7.397 -0.1282  0.0918 -0.7596
   92MOL    H4832990   1.262   4.777   7.387  2.9238  0.4093  1.3098
   92MOL    H4932991   1.317   4.763   7.146 -0.7446  2.1568  1.7423
   92MOL    H5032992   1.276   4.596   7.139 -0.2237 -0.8720  1.0664
   92MOL    H5132993   1.051   4.650   7.238 -1.0745  0.3797 -0.3633
   92MOL    H5232994   1.100   4.818   7.247  0.5569 -1.4496  2.4848
   92MOL    H5332995   1.023   4.653   7.007 -0.1582 -0.2079 -0.0885
   92MOL    H5432996   1.137   4.792   6.972  0.0121  0.2478  1.1050
   92MOL    H5532997   0.966   4.801   7.037 -1.5204 -0.5261 -2.3689
   92MOL    C5632998   1.493   4.514   7.315  0.1020  0.2982  0.0179
   92MOL    C5732999   1.415   4.389   7.350 -0.0213 -0.0233  0.0743
   92MOL    C5833000   1.371   4.380   7.503 -1.0060  0.6131  0.3963
   92MOL    C5933001   1.485   4.408   7.598 -0.2657  1.3943  0.8222
   92MOL    C6033002   1.472   4.329   0.000  0.4218  0.7011 -0.6734
   92MOL    C6133003   1.348   4.375   0.097 -0.0337  0.2291  0.6272
   92MOL    H6233004   1.508   4.514   7.207 -0.6864  0.0751 -0.0972
   92MOL    H6333005   1.595   4.500   7.350  0.3476  0.3156 -0.6843
   92MOL    H6433006   1.326   4.388   7.286 -1.2350 -1.2324  1.7151
   92MOL    H6533007   1.308   4.464   7.531  2.3378  3.0689  0.8119
   92MOL    H6633008   1.314   4.291   7.531  1.6698 -1.5764 -0.7890
   92MOL    H6733009   1.487   4.512   7.631  2.8486  1.5359  0.3700
   92MOL    H6833010   1.583   4.395   7.552 -0.7498  0.9791 -0.0943
   92MOL    H6933011   1.461   4.222   7.709 -1.1213  0.2474  2.4811
   92MOL    H7033012   1.564   4.348   0.056 -0.2550 -0.0359  0.7289
   92MOL    H7133013   1.348   4.312   0.187  1.9262 -0.4932  0.1646
   92MOL    H7233014   1.365   4.478   0.129 -1.3575  0.0060  2.0861
   92MOL    H7333015   1.247   4.362   0.059  1.3567 -2.1013 -2.4499
   92MOL    C7433016   1.488   4.258   7.311  0.3571 -0.8443  0.2249
   92MOL    C7533017   1.492   4.235   7.162  0.0010 -0.1297 -0.8348
   92MOL    C7633018   1.582   4.114   7.131  0.8613  0.3205 -0.3496
   92MOL    C7733019   1.502   3.984   7.157  0.6774  0.6684 -0.2668
   92MOL    C7833020   1.606   3.867   7.150 -0.3245  0.3320 -0.2904
   92MOL    C7933021   1.536   3.732   7.135  0.2344 -0.4939  0.4506
   92MOL    H8033022   1.589   4.264   7.352  0.7822 -0.5221 -0.8628
   92MOL    H8133023   1.441   4.173   7.360 -1.7708  1.4696  2.3870
   92MOL    H8233024   1.558   4.314   7.126  1.3598 -1.8016 -2.1163
   92MOL    H8333025   1.632   4.116   7.034 -0.0992 -0.2189 -0.8637
   92MOL    H8433026   1.667   4.118   7.198  0.4102 -0.2855  0.2589
   92MOL    H8533027   1.434   3.989   7.241  2.3105 -0.7739  1.1909
   92MOL    H8633028   1.430   3.975   7.076  0.2913 -2.3132  0.3362
   92MOL    H8733029   1.663   3.864   7.243  1.4904 -1.6503 -1.4452
   92MOL    H8833030   1.676   3.868   7.068  1.4961  1.0596  1.2375
   92MOL    H8933031   1.606   3.654   7.105 -1.3452 -1.0848 -1.8646
   92MOL    H9033032   1.480   3.697   7.222 -0.3793  0.1664  0.3234
   92MOL    H9133033   1.466   3.732   7.052  0.8096 -0.9130 -0.0480
   92MOL    C9233034   1.363   4.237   7.073  0.2213 -0.0193  0.3086
   92MOL    C9333035   1.377   4.223   6.912  1.0607  0.5125  0.3841
   92MOL    C9433036   1.241   4.177   6.858  0.2265 -0.1201  0.2810
   92MOL    C9533037   1.144   4.296   6.822 -0.2402  0.2216 -0.1576
   92MOL    C9633038   1.002   4.243   6.782  0.0565  0.2586 -0.2131
   92MOL    C9733039   0.914   4.362   6.741 -0.5357 -0.1108  0.2332
   92MOL    H9833040   1.297   4.158   7.109  2.4376 -2.2339 -0.3717
   92MOL    H9933041   1.310   4.332   7.087  1.6606  0.7536  0.5678
   92MOL   H10033042   1.449   4.141   6.903 -0.2796 -0.4531 -2.0904
   92MOL   H10133043   1.205   4.104   6.930  3.2194 -0.9802  0.9871
   92MOL   H10233044   1.256   4.122   6.765 -0.6210 -2.2686  1.3954
   92MOL   H10333045   1.147   4.359   6.911 -3.2870 -0.2711  0.3431
   92MOL   H10433046   1.196   4.357   6.748  0.2318 -1.1590 -0.9811
   92MOL   H10533047   1.017   4.167   6.706 -1.5634 -1.9649  1.6421
   92MOL   H10633048   0.965   4.189   6.869  0.6689 -2.3278 -1.5377
   92MOL   H10733049   0.890   4.436   6.818 -0.4448  1.3413 -1.1070
   92MOL   H10833050   0.964   4.423   6.666 -0.0227  0.0752  0.7230
   92MOL   H10933051   0.821   4.318   6.704 -0.4613  0.4646 -0.6398
   92MOL   C11033052   1.444   4.349   6.837 -0.6046  0.0038  0.7917
   92MOL   C11133053   1.456   4.335   6.678 -0.5678  0.0665 -0.5212
   92MOL   C11233054   1.608   4.306   6.653  0.6863 -0.2422 -0.3933
   92MOL   C11333055   1.661   4.168   6.694 -0.1725  1.0362  0.2211
   92MOL   C11433056   1.794   4.129   6.627  0.2767  0.2431  0.4312
   92MOL   C11533057   1.835   3.984   6.654  0.1717 -0.1492 -0.0524
   92MOL   H11633058   1.376   4.433   6.850 -0.8935  0.2711 -2.0060
   92MOL   H11733059   1.541   4.360   6.886 -0.0232  0.1158 -0.3698
   92MOL   H11833060   1.389   4.255   6.648  0.9644 -1.1748 -0.6225
   92MOL   H11933061   1.668   4.390   6.689 -3.1341  2.6252 -0.3215
   92MOL   H12033062   1.615   4.328   6.547  1.4665  1.4322 -0.0211
   92MOL   H12133063   1.588   4.092   6.663  0.4082  0.1514  0.9911
   92MOL   H12233064   1.662   4.160   6.802 -2.4762 -1.3085  0.1347
   92MOL   H12333065   1.868   4.198   6.666 -0.0316  2.8629 -3.3360
   92MOL   H12433066   1.799   4.150   6.520 -4.1700 -1.5212 -0.2512
   92MOL   H12533067   1.898   3.972   6.742  0.2381 -1.1740 -0.2394
   92MOL   H12633068   1.761   3.905   6.652  0.6415 -0.5724 -1.3672
   92MOL   H12733069   1.906   3.971   6.572 -0.6236  3.3878 -1.4080
   92MOL   C12833070   1.402   4.457   6.608 -0.1616 -0.3783  0.4311
   92MOL   C12933071   1.375   4.445   6.457 -0.2681  0.1138  0.2909
   92MOL   C13033072   1.375   4.589   6.408 -0.1398 -0.5089 -0.1253
   92MOL   C13133073   1.364   4.593   6.254 -0.1876 -0.1016  0.3183
   92MOL   C13233074   1.342   4.735   6.206 -0.1022 -0.4161  0.7020
   92MOL   C13333075   1.345   4.742   6.053  0.1579 -0.5072  0.1690
   92MOL   H13433076   1.461   4.545   6.634 -1.4002  0.3967  0.6678
   92MOL   H13533077   1.309   4.490   6.655 -0.2118  0.0479  0.0452
   92MOL   H13633078   1.464   4.401   6.413  0.0373 -0.5421  1.5386
   92MOL   H13733079   1.289   4.639   6.453  0.5477  1.8107 -1.3514
   92MOL   H13833080   1.468   4.635   6.441  0.2342 -2.6173  1.8997
   92MOL   H13933081   1.280   4.534   6.217  0.6263 -1.3980  0.5185
   92MOL   H14033082   1.455   4.552   6.212 -0.9429 -1.7198  0.2236
   92MOL   H14133083   1.242   4.766   6.237 -1.0987 -0.1909 -2.5701
   92MOL   H14233084   1.418   4.805   6.243  1.4244 -1.0458 -1.1914
   92MOL   H14333085   1.422   4.680   6.008 -0.5420 -0.3449 -1.3150
   92MOL   H14433086   1.355   4.845   6.017  0.7361 -1.0318 -1.2252
   92MOL   H14533087   1.247   4.708   6.017 -0.1353  1.8616 -1.3975
   92MOL   C14633088   1.242   4.364   6.421  0.0822  0.3835  0.2338
   92MOL   C14733089   1.273   4.261   6.313 -0.7381 -0.2903  0.0604
   92MOL   C14833090   1.150   4.235   6.214  0.2824 -0.2830 -0.2567
   92MOL   C14933091   1.018   4.217   6.285 -0.1211  0.4792 -0.3150
   92MOL   C15033092   0.909   4.155   6.198  0.3651 -0.4966  0.1407
   92MOL   C15133093   0.790   4.113   6.284 -0.7299 -0.6233 -0.0656
   92MOL   H15233094   1.195   4.313   6.506  1.2080  2.0033  1.8429
   92MOL   H15333095   1.177   4.441   6.380  0.8540  1.5804  1.2568
   92MOL   H15433096   1.347   4.306   6.246  1.1956  1.0005  2.9648
   92MOL   H15533097   1.170   4.146   6.155 -2.6892  0.1886 -2.0883
   92MOL   H15633098   1.154   4.318   6.144  0.8511  0.4335  0.6198
   92MOL   H15733099   1.024   4.143   6.365 -1.5659  0.9858  0.2723
   92MOL   H15833100   0.978   4.304   6.336  0.1477  1.4816 -1.7714
   92MOL   H15933101   0.950   4.071   6.141  2.1809 -0.7741  1.8119
   92MOL   H16033102   0.879   4.235   6.130 -0.3426 -1.0985 -0.2632
   92MOL   H16133103   0.740   4.208   6.302 -1.2090 -1.2136  1.9026
   92MOL   H16233104   0.732   4.044   6.222  0.7375 -1.0317 -1.0138
   92MOL   H16333105   0.810   4.067   6.381  2.5870  0.8910  0.0172
   92MOL   C16433106   1.325   4.125   6.371 -0.5011 -0.6549  0.5182
   92MOL   C16533107   1.426   4.052   6.279 -0.7359 -0.3488  0.1197
   92MOL   C16633108   1.575   4.099   6.315 -0.0610 -0.2789  0.2610
   92MOL   C16733109   1.659   4.118   6.186  0.4729  0.2289  0.5640
   92MOL   C16833110   1.795   4.157   6.214 -0.5251  0.1708 -0.4074
   92MOL   C16933111   1.878   4.125   6.085  0.1444 -0.3461 -0.5440
   92MOL   H17033112   1.376   4.146   6.465  1.4627  1.2174 -0.9093
   92MOL   H17133113   1.245   4.058   6.403 -1.2550  1.0054  2.1736
   92MOL   H17233114   1.403   4.076   6.175 -0.1624 -1.1561 -0.1967
   92MOL   H17333115   1.623   4.036   6.390  2.5451 -0.5492 -1.5840
   92MOL   H17433116   1.568   4.202   6.350  1.1077 -1.1381  3.1937
   92MOL   H17533117   1.613   4.187   6.114 -1.6310  0.1156  1.7503
   92MOL   H17633118   1.647   4.015   6.153 -1.6882  1.5465 -3.2377
   92MOL   H17733119   1.836   4.099   6.296 -0.9845 -0.5364 -0.6789
   92MOL   H17833120   1.811   4.260   6.249  0.1371  0.0900 -0.4613
   92MOL   H17933121   1.839   4.186   6.003 -0.7362 -1.5710 -1.0570
   92MOL   H18033122   1.879   4.019   6.061  1.1599 -0.2512 -0.9250
   92MOL   H18133123   1.983   4.151   6.100 -0.1500 -0.0603  1.0770
   92MOL   C18233124   1.422   3.901   6.293  0.1795 -0.0050 -0.0421
   92MOL   C18333125   1.322   3.840   6.192  0.1700 -0.1357 -0.3091
   92MOL   C18433126   1.175   3.828   6.253 -0.3776  0.8391  0.0966
   92MOL   C18533127   1.060   3.762   6.167  0.1166  0.5458  0.0440
   92MOL   C18633128   0.927   3.753   6.249  0.5148 -0.1280 -0.2962
   92MOL   C18733129   0.831   3.665   6.175  0.3532  0.0470 -0.2227
   92MOL   H18833130   1.520   3.856   6.277  0.6982  1.0744 -0.0225
   92MOL   H18933131   1.383   3.870   6.390 -1.0333 -0.0284 -0.5292
   92MOL   H19033132   1.318   3.900   6.100  1.6338  2.3653  1.2144
   92MOL   H19133133   1.178   3.793   6.356 -1.2699  1.4697  0.3399
   92MOL   H19233134   1.144   3.931   6.264  1.4247  1.3380  0.5457
   92MOL   H19333135   1.097   3.665   6.135  0.9238  0.6909  0.5380
   92MOL   H19433136   1.042   3.827   6.081  0.5199  1.9418  1.0011
   92MOL   H19533137   0.887   3.852   6.272 -1.0290 -1.2857  2.1854
   92MOL   H19633138   0.946   3.718   6.351  1.0577  0.7794 -0.0813
   92MOL   H19733139   0.825   3.692   6.069 -1.7827  1.5383  0.2419
   92MOL   H19833140   0.731   3.668   6.218 -0.9566 -0.7270 -3.0818
   92MOL   H19933141   0.865   3.562   6.187  0.9214  0.3224  0.5542
   92MOL   C20033142   1.369   3.696   6.148 -0.2887  0.0718 -0.0451
   92MOL   C20133143   1.502   3.685   6.077 -0.0491  0.0815 -0.0513
   92MOL   C20233144   1.589   3.572   6.134 -0.9248  0.4491 -0.3209
   92MOL   C20333145   1.543   3.426   6.115 -0.9355 -0.4331  0.1257
   92MOL   C20433146   1.640   3.319   6.177 -0.9970  0.7319 -0.1065
   92MOL   C20533147   1.595   3.173   6.157  0.0026  0.3155 -0.2543
   92MOL   H20633148   1.291   3.644   6.092  0.7696  3.0064 -4.4734
   92MOL   H20733149   1.381   3.636   6.239 -4.2178 -1.3980 -0.3845
   92MOL   H20833150   1.573   3.765   6.097 -0.9965  0.6297  1.1751
   92MOL   H20933151   1.605   3.587   6.240 -0.9111  2.3062 -0.5690
   92MOL   H21033152   1.688   3.567   6.088  0.3860 -2.2476  2.5796
   92MOL   H21133153   1.535   3.412   6.007 -0.9208 -0.7656  0.1689
   92MOL   H21233154   1.440   3.417   6.151 -0.7443  0.1353  0.8174
   92MOL   H21333155   1.654   3.343   6.283  1.7486  0.2757 -0.3506
   92MOL   H21433156   1.737   3.320   6.128  0.0068  1.3615  1.8390
   92MOL   H21533157   1.663   3.102   6.204 -1.0371  1.3577  2.9081
   92MOL   H21633158   1.504   3.147   6.211  0.6590 -0.1376  0.6402
   92MOL   H21733159   1.564   3.149   6.055 -1.3081  0.3228  0.1305
   92MOL   C21833160   1.486   3.656   5.925  0.0566 -0.4199 -0.2545
   92MOL   C21933161   1.456   3.788   5.844  0.8735 -0.3256 -0.3600
   92MOL   C22033162   1.349   3.757   5.736 -0.0594 -0.0880 -0.3479
   92MOL   C22133163   1.210   3.719   5.795 -0.0265 -0.2471  0.1224
   92MOL   C22233164   1.084   3.701   5.703 -0.3559  0.0463  0.3154
   92MOL   C22333165   0.966   3.628   5.772  0.3553 -0.1422 -0.1197
   92MOL   H22433166   1.584   3.623   5.890 -0.0080  0.6667 -1.5007
   92MOL   H22533167   1.418   3.573   5.904 -0.8057 -0.1351  1.2907
   92MOL   H22633168   1.406   3.845   5.922 -0.7886  0.0125 -1.6535
   92MOL   H22733169   1.367   3.685   5.657  4.0334  0.3396  0.0894
   92MOL   H22833170   1.325   3.851   5.685  0.9421  0.4180  0.1058
   92MOL   H22933171   1.188   3.783   5.880  2.3894 -1.2082  1.5391
   92MOL   H23033172   1.221   3.625   5.849 -2.3482 -1.0251 -0.7161
   92MOL   H23133173   1.053   3.800   5.669  1.0405  0.6561  0.7978
   92MOL   H23233174   1.127   3.642   5.623 -0.8593 -1.5306  1.2006
   92MOL   H23333175   0.920   3.693   5.847  2.3667 -0.2450  1.2328
   92MOL   H23433176   1.003   3.540   5.824 -1.6631 -0.7473  0.3158
   92MOL   H23533177   0.885   3.603   5.703  1.6867 -2.3315 -0.9127
   92MOL   C23633178   1.583   3.861   5.798  0.2790 -0.0264  0.3388
   92MOL   C23733179   1.555   4.002   5.739 -0.9714 -0.2757  1.1963
   92MOL   C23833180   1.678   4.050   5.644  0.2102  0.2084 -0.6048
   92MOL   C23933181   1.813   4.021   5.706  0.5885 -0.2793 -0.3562
   92MOL   C24033182   1.927   4.087   5.617  0.1448  0.4415  0.0450
   92MOL   C24133183   2.063   4.055   5.674 -0.2864  0.6312  0.4722
   92MOL   H24233184   1.664   3.863   5.870  0.1052  0.3128  0.5268
   92MOL   H24333185   1.631   3.803   5.718  0.3564 -0.6690  0.8504
   92MOL   H24433186   1.470   4.009   5.671  0.0387  1.6348  0.0743
   92MOL   H24533187   1.677   3.991   5.553  2.6844 -0.8481 -0.0037
   92MOL   H24633188   1.676   4.152   5.607 -2.4934 -0.1388 -1.4975
   92MOL   H24733189   1.828   3.913   5.719 -0.7902 -0.4050  0.3136
   92MOL   H24833190   1.825   4.056   5.809 -2.0021  1.2465 -0.5450
   92MOL   H24933191   1.935   4.042   5.518 -1.9832 -2.1163  0.9809
   92MOL   H25033192   1.923   4.195   5.608 -1.0882  0.4063  0.0595
   92MOL   H25133193   2.072   4.089   5.777  2.0127 -1.1635  0.9099
   92MOL   H25233194   2.085   3.948   5.669 -0.1517  0.7425 -1.8112
   92MOL   H25333195   2.135   4.107   5.612 -1.4324  2.0385  0.3078
   92MOL   C25433196   1.525   4.102   5.856  0.0691  0.3660  0.6466
   92MOL   C25533197   1.459   4.235   5.819  0.4149  0.4952 -0.7186
   92MOL   C25633198   1.498   4.354   5.911 -0.7389  0.2793  0.5073
   92MOL   C25733199   1.648   4.407   5.901 -0.3789 -0.4560 -0.2750
   92MOL   C25833200   1.689   4.497   6.013 -0.9397  0.2872 -0.1094
   92MOL   C25933201   1.841   4.550   6.009 -0.2101  0.0406  0.6393
   92MOL   H26033202   1.627   4.107   5.894  0.7177 -2.3693 -0.6019
   92MOL   H26133203   1.473   4.059   5.941 -0.7767  0.8087  0.3714
   92MOL   H26233204   1.486   4.265   5.718 -0.3572  0.7369 -0.8595
   92MOL   H26333205   1.434   4.440   5.889  1.8769  2.0012 -0.7111
   92MOL   H26433206   1.467   4.331   6.013 -0.9203 -1.1524  0.1401
   92MOL   H26533207   1.703   4.313   5.901  0.0020 -0.2615  1.8629
   92MOL   H26633208   1.689   4.446   5.808  1.6447 -1.5728  0.1132
   92MOL   H26733209   1.664   4.438   6.101  0.7486 -0.3525 -0.0304
   92MOL   H26833210   1.622   4.581   6.026  1.8610  2.4396  1.0383
   92MOL   H26933211   1.862   4.606   5.918 -0.1633 -0.0149  0.6157
   92MOL   H27033212   1.908   4.464   6.006  1.1512  1.0749  0.8656
   92MOL   H27133213   1.856   4.623   6.090  0.8530 -0.6641  1.0899
   92MOL   C27233214   1.307   4.224   5.802  0.2878 -0.1338  0.0993
   92MOL   C27333215   1.239   4.326   5.716  0.1597  0.2082 -0.4262
   92MOL   C27433216   1.082   4.318   5.737  0.0759  0.3206  0.1973
   92MOL   C27533217   0.994   4.428   5.662  0.1860 -0.1523 -0.4084
   92MOL   C27633218   0.840   4.423   5.692  0.3722 -0.3898  0.1103
   92MOL   C27733219   0.767   4.536   5.621  0.1640  0.3039  0.0614
   92MOL   H27833220   1.283   4.121   5.777 -1.9789  0.2661  0.5724
   92MOL   H27933221   1.268   4.214   5.903 -0.8192 -0.3580 -0.3430
   92MOL   H28033222   1.264   4.430   5.734  0.4039  0.3477 -1.5179
   92MOL   H28133223   1.066   4.350   5.840  1.7132  1.5873  0.0790
   92MOL   H28233224   1.042   4.220   5.712 -0.2456  0.7540 -1.0046
   92MOL   H28333225   1.013   4.423   5.554 -1.8963  2.0896 -0.9242
   92MOL   H28433226   1.033   4.523   5.698  1.6427 -1.1957  0.8666
   92MOL   H28533227   0.805   4.331   5.646 -1.0044  0.6708 -1.0196
   92MOL   H28633228   0.824   4.427   5.799 -0.2033  0.9891 -0.0106
   92MOL   H28733229   0.808   4.545   5.521 -2.1675 -0.0367 -0.9372
   92MOL   H28833230   0.659   4.522   5.616 -0.0325  1.5760  0.3673
   92MOL   H28933231   0.787   4.630   5.674 -0.9778  1.2368 -1.1401
   92MOL   C29033232   1.274   4.294   5.570  0.2376  0.0475  0.8212
   92MOL   C29133233   1.381   4.380   5.493  0.1972 -0.3269 -0.0288
   92MOL   C29233234   1.465   4.280   5.410  0.5030  0.2045  0.5557
   92MOL   C29333235   1.604   4.332   5.357  0.5192  0.1878 -0.1191
   92MOL   C29433236   1.677   4.240   5.264 -0.4387  0.0424 -0.3550
   92MOL   C29533237   1.803   4.296   5.191 -0.0103  0.0200 -0.3214
   92MOL   H29633238   1.187   4.294   5.504  0.2572  2.8422  0.7757
   92MOL   H29733239   1.296   4.187   5.569  1.4272  0.3033 -1.1022
   92MOL   H29833240   1.439   4.422   5.575 -1.0234  1.2126  0.0428
   92MOL   H29933241   1.402   4.227   5.338  1.7252 -1.3935  0.6348
   92MOL   H30033242   1.497   4.200   5.477 -0.7024  0.2981  1.2681
   92MOL   H30133243   1.589   4.425   5.303  1.3508  1.5802  2.0039
   92MOL   H30233244   1.674   4.364   5.434  0.4690 -0.3463  0.1500
   92MOL   H30333245   1.605   4.205   5.189 -1.0754 -3.9147  1.9527
   92MOL   H30433246   1.710   4.149   5.313  1.6778  0.9465 -0.0713
   92MOL   H30533247   1.833   4.226   5.112 -1.6387  0.0733 -0.9942
   92MOL   H30633248   1.878   4.336   5.260  1.6911  0.1033 -2.1752
   92MOL   H30733249   1.767   4.380   5.133  2.7082  0.5225 -1.3811
   92MOL   C30833250   1.318   4.493   5.401  0.9132 -0.3809 -0.5388
   92MOL   C30933251   1.282   4.624   5.476 -0.2032  1.2017  0.1445
   92MOL   C31033252   1.212   4.722   5.385 -0.2468 -0.1899  0.2687
   92MOL   C31133253   1.063   4.686   5.358 -0.4150  0.1790  0.8961
   92MOL   C31233254   0.981   4.757   5.250  0.0407  0.0074 -0.0251
   92MOL   C31333255   0.835   4.697   5.226 -0.7221 -0.0974  0.5800
   92MOL   H31433256   1.383   4.508   5.314  0.0598 -0.2465 -1.1556
   92MOL   H31533257   1.232   4.461   5.342  0.8638 -1.0901 -0.0868
   92MOL   H31633258   1.214   4.597   5.557 -0.5117  1.4923 -0.0137
   92MOL   H31733259   1.271   4.729   5.294  1.2150  0.4640  1.2444
   92MOL   H31833260   1.219   4.824   5.422  1.4649 -1.2659  3.1096
   92MOL   H31933261   1.010   4.701   5.452  0.9578 -0.1932  1.7347
   92MOL   H32033262   1.053   4.578   5.343  0.2581  0.1286  0.8124
   92MOL   H32133263   0.976   4.865   5.266 -0.1028  0.3960 -2.4885
   92MOL   H32233264   1.046   4.754   5.162 -0.5379 -1.0505 -0.4165
   92MOL   H32333265   0.795   4.720   5.127 -1.1132 -1.5681  0.3981
   92MOL   H32433266   0.766   4.744   5.296 -1.3239  2.4535 -1.6428
   92MOL   H32533267   0.831   4.589   5.234  0.1744 -0.3131 -1.6920
   92MOL   C32633268   1.410   4.703   5.532  0.0612  1.5312  1.3301
   92MOL   C32733269   1.410   4.761   5.675  0.8305 -0.3242 -0.1298
   92MOL   C32833270   1.548   4.788   5.733 -0.1181 -0.6557  0.1162
   92MOL   C32933271   1.610   4.916   5.663  0.0418  0.1323 -0.3140
   92MOL   C33033272   1.733   4.980   5.742 -0.0460  0.6010  0.0615
   92MOL   C33133273   1.853   4.893   5.724 -0.3000 -0.3108 -0.1869
   92MOL   H33233274   1.445   4.778   5.461  0.0603 -0.5686 -0.9494
   92MOL   H33333275   1.496   4.637   5.543  1.2822  2.7420 -0.7594
   92MOL   H33433276   1.373   4.687   5.746  0.3813 -0.0154 -0.0448
   92MOL   H33533277   1.544   4.818   5.838 -1.0164 -0.6091  0.0788
   92MOL   H33633278   1.606   4.697   5.741 -0.2882 -0.5795  2.5457
   92MOL   H33733279   1.536   4.996   5.664 -3.4433 -2.9153  1.0497
   92MOL   H33833280   1.638   4.894   5.560  0.1555  2.9262 -0.9142
   92MOL   H33933281   1.755   5.076   5.696 -0.6951  1.7973  2.1967
   92MOL   H34033282   1.711   4.980   5.849 -1.9038 -0.6262 -0.2930
   92MOL   H34133283   1.941   4.929   5.776 -0.1244 -0.1593 -0.5858
   92MOL   H34233284   1.874   4.880   5.617 -0.5779 -2.8882  0.0261
   92MOL   H34333285   1.824   4.793   5.758 -1.9152 -0.2192 -1.2281
   92MOL   C34433286   1.310   4.881   5.688 -0.6628  0.2728 -0.0991
   92MOL   C34533287   1.158   4.863   5.699  0.0293 -0.8062  0.9159
   92MOL   C34633288   1.068   4.981   5.674  0.2844  0.1723 -0.3356
   92MOL   C34733289   0.913   4.957   5.676 -0.2170 -0.1885  0.1573
   92MOL   C34833290   0.844   5.090   5.617  0.8457  0.2793  0.1144
   92MOL   C34933291   0.694   5.073   5.620 -0.5151  0.3998 -0.7290
   92MOL   H35033292   1.340   4.937   5.777  1.7143  0.6503 -1.1203
   92MOL   H35133293   1.325   4.941   5.599 -0.4022 -0.4374 -0.5422
   92MOL   H35233294   1.137   4.811   5.792 -0.0669 -0.2897  1.1837
   92MOL   H35333295   1.096   5.054   5.749 -1.8941 -0.9027  1.5890
   92MOL   H35433296   1.092   5.023   5.576 -1.1191  0.4101 -0.5956
   92MOL   H35533297   0.900   4.865   5.619  0.8585  0.2820 -0.8643
   92MOL   H35633298   0.882   4.936   5.778  0.9093 -1.8349  0.1902
   92MOL   H35733299   0.870   5.172   5.684 -0.3776  2.1300 -1.6007
   92MOL   H35833300   0.890   5.116   5.521  1.2246 -1.4704 -0.1939
   92MOL   H35933301   0.657   5.037   5.716 -0.7544  1.1633 -0.5339
   92MOL   H36033302   0.645   5.163   5.582  1.2741  0.6060 -2.6110
   92MOL   H36133303   0.662   4.992   5.555 -1.3152 -1.1217  1.4716
   92MOL   H36233304   1.133   4.798   5.615  0.7070 -2.1196  1.7212
   93MOL     C133305   1.095   3.334   6.057 -0.2278 -0.3318 -0.3261
   93MOL     C233306   1.107   3.228   6.170 -0.6696 -0.0650  0.3904
   93MOL     C333307   1.204   3.120   6.117  0.0265  0.0658  0.0781
   93MOL     C433308   1.150   3.032   5.994  0.0225  0.6882 -0.0391
   93MOL     C533309   1.256   2.954   5.917 -0.2084  0.1404  0.0002
   93MOL     C633310   1.336   2.868   6.009  0.2380 -0.9289 -0.1997
   93MOL     H733311   1.052   3.293   5.966 -0.1201 -1.7931  0.2647
   93MOL     H833312   1.026   3.409   6.094  0.9232  0.8812 -0.6131
   93MOL     H933313   1.148   3.288   6.252 -0.1708  1.5823 -1.0454
   93MOL    H1033314   1.233   3.052   6.197  0.3624  0.1301  0.0086
   93MOL    H1133315   1.293   3.165   6.073  2.1658 -1.8881  2.3044
   93MOL    H1233316   1.106   3.086   5.910  1.6416 -0.0858 -1.4084
   93MOL    H1333317   1.075   2.960   6.026  0.9457  0.3965  1.5463
   93MOL    H1433318   1.221   2.887   5.838  0.6359 -0.8423  0.4427
   93MOL    H1533319   1.317   3.020   5.855  0.7906 -1.3126 -0.5815
   93MOL    H1633320   1.400   2.801   5.951 -2.0949 -2.2974 -1.2242
   93MOL    H1733321   1.263   2.821   6.075 -0.0525  1.4810  1.2547
   93MOL    H1833322   1.402   2.927   6.073  1.0594 -1.6410 -0.3784
   93MOL    H1933323   1.184   3.396   6.042  0.8361 -1.5788  0.6520
   93MOL    C2033324   0.974   3.171   6.225 -0.2481  0.2677 -0.7214
   93MOL    C2133325   0.985   3.052   6.322 -0.2435  0.4307 -0.0760
   93MOL    C2233326   1.070   3.095   6.436 -0.0235 -0.3826 -0.3563
   93MOL    C2333327   1.124   2.984   6.520 -0.7264 -0.5864 -0.6945
   93MOL    C2433328   1.233   3.026   6.624  0.5120  0.3242  0.1279
   93MOL    C2533329   1.191   3.135   6.716  0.0683 -0.4054  0.5141
   93MOL    H2633330   0.912   3.132   6.145 -1.3145  1.3231 -0.4135
   93MOL    H2733331   0.911   3.251   6.264  0.2599  0.9483 -1.2754
   93MOL    H2833332   1.023   2.964   6.269  2.0112  0.5325  1.3158
   93MOL    H2933333   1.026   3.174   6.497 -0.4104 -1.7149  1.1091
   93MOL    H3033334   1.164   3.135   6.398 -0.2077  3.4019  2.8581
   93MOL    H3133335   1.167   2.901   6.464  0.3263 -1.4134  1.2653
   93MOL    H3233336   1.044   2.942   6.581  0.7736 -0.7952  1.1892
   93MOL    H3333337   1.242   2.936   6.684 -1.5667 -0.3958 -0.5939
   93MOL    H3433338   1.335   3.030   6.584 -0.3437 -0.8220 -2.2381
   93MOL    H3533339   1.171   3.238   6.686  1.2113 -0.3668 -0.1239
   93MOL    H3633340   1.092   3.107   6.753 -0.4687  1.2100  0.3166
   93MOL    H3733341   1.257   3.138   6.804 -0.8174  0.6852  1.1537
   93MOL    C3833342   0.848   3.020   6.381  0.0078  0.4470  0.3318
   93MOL    C3933343   0.733   2.977   6.281 -0.0462 -0.7870 -0.1700
   93MOL    C4033344   0.763   2.848   6.194  0.4735  0.4916 -0.2982
   93MOL    C4133345   0.683   2.822   6.060 -1.1173  0.6877  0.2614
   93MOL    C4233346   0.737   2.705   5.965 -0.8143 -0.1674  0.4198
   93MOL    C4333347   0.634   2.689   5.849  0.5147  0.2148  0.0624
   93MOL    H4433348   0.809   3.104   6.439  1.9565  2.1447 -0.7601
   93MOL    H4533349   0.857   2.934   6.447  3.0222  0.9014  0.5839
   93MOL    H4633350   0.708   3.052   6.207 -0.7223 -1.5099 -0.6762
   93MOL    H4733351   0.864   2.866   6.157  0.6758 -0.0589 -0.0201
   93MOL    H4833352   0.770   2.754   6.249  4.8106  0.0345 -1.4143
   93MOL    H4933353   0.581   2.792   6.086 -0.5953 -1.4700 -0.1039
   93MOL    H5033354   0.680   2.921   6.015  0.9248 -0.1906 -1.8789
   93MOL    H5133355   0.830   2.732   5.915 -1.8526 -0.7760 -1.8999
   93MOL    H5233356   0.753   2.614   6.022  1.5895  0.5351  0.9302
   93MOL    H5333357   0.534   2.720   5.881 -0.5267 -0.2748 -2.6142
   93MOL    H5433358   0.641   2.583   5.826 -3.6950  0.2077 -1.5697
   93MOL    H5533359   0.667   2.745   5.762  1.3293  0.4112  0.4950
   93MOL    C5633360   0.596   2.961   6.358 -0.3173 -0.1843  0.7770
   93MOL    C5733361   0.525   3.097   6.401 -0.3467 -0.1683  0.4189
   93MOL    C5833362   0.456   3.068   6.532 -0.4880  0.2397  0.8239
   93MOL    C5933363   0.375   3.178   6.603  0.3228 -0.0921  0.6778
   93MOL    C6033364   0.273   3.121   6.714 -0.1428  0.1992  0.4293
   93MOL    C6133365   0.209   3.218   6.800 -0.1194  0.6456 -0.6405
   93MOL    H6233366   0.522   2.906   6.300 -0.9675  1.9011 -0.4184
   93MOL    H6333367   0.620   2.890   6.438 -1.5612 -2.2696 -0.6690
   93MOL    H6433368   0.603   3.173   6.413  0.5399 -0.7291 -1.5226
   93MOL    H6533369   0.392   2.982   6.512 -0.4503  0.7194 -1.4975
   93MOL    H6633370   0.536   3.027   6.594  1.4332  0.8774 -1.1820
   93MOL    H6733371   0.315   3.234   6.531 -0.6950 -0.7525  0.9970
   93MOL    H6833372   0.447   3.240   6.655  1.5274 -0.0345 -1.0167
   93MOL    H6933373   0.194   3.054   6.678 -1.3586  1.2951  1.0222
   93MOL    H7033374   0.326   3.043   6.770 -0.3207 -0.4392 -0.2772
   93MOL    H7133375   0.265   3.312   6.802  2.5313 -0.8197 -3.0623
   93MOL    H7233376   0.111   3.225   6.754 -1.4810 -0.8443  1.9456
   93MOL    H7333377   0.196   3.186   6.904 -0.0792  0.0448 -0.8207
   93MOL    C7433378   0.441   3.168   6.291  0.4130 -0.0938 -0.1788
   93MOL    C7533379   0.470   3.316   6.250  0.1309 -0.5721 -0.2191
   93MOL    C7633380   0.587   3.332   6.152 -0.4394 -0.7844  0.3966
   93MOL    C7733381   0.576   3.289   6.004  0.3060 -0.0240  0.1037
   93MOL    C7833382   0.717   3.311   5.939  0.1063  0.5750  0.2337
   93MOL    C7933383   0.720   3.287   5.784 -0.4041  0.1872 -0.2657
   93MOL    H8033384   0.445   3.106   6.202  1.8209 -0.7387  0.3165
   93MOL    H8133385   0.336   3.154   6.317 -0.7991  3.9128 -2.4665
   93MOL    H8233386   0.497   3.372   6.339 -0.9769  1.1725 -0.9394
   93MOL    H8333387   0.609   3.439   6.155  2.8711 -1.4343  0.6647
   93MOL    H8433388   0.682   3.295   6.189  0.7250  0.8881 -0.8376
   93MOL    H8533389   0.554   3.182   6.001  4.4926 -0.9809  0.1737
   93MOL    H8633390   0.509   3.342   5.937  0.5251 -2.1436 -1.8546
   93MOL    H8733391   0.800   3.261   5.991  1.4518  1.4286 -1.0603
   93MOL    H8833392   0.747   3.416   5.950  2.6867 -0.4547  4.4099
   93MOL    H8933393   0.627   3.313   5.733  0.6003  0.3973 -1.9986
   93MOL    H9033394   0.802   3.339   5.737 -0.2688 -0.2134 -0.4755
   93MOL    H9133395   0.728   3.183   5.753 -3.8256  0.0020 -0.7737
   93MOL    C9233396   0.343   3.390   6.190  0.2575  0.4778  0.2874
   93MOL    C9333397   0.257   3.455   6.297 -1.0910  0.4028  0.3960
   93MOL    C9433398   0.323   3.583   6.357  1.2792 -0.0886  0.8165
   93MOL    C9533399   0.344   3.707   6.260 -0.3135 -0.1958  0.6802
   93MOL    C9633400   0.388   3.837   6.330 -0.2942  0.3597  0.0745
   93MOL    C9733401   0.525   3.837   6.394 -0.4753 -0.3650  0.1909
   93MOL    H9833402   0.380   3.457   6.113 -0.2629  0.1188 -0.2855
   93MOL    H9933403   0.290   3.315   6.131 -0.0267  0.2128  0.8667
   93MOL   H10033404   0.248   3.388   6.382 -1.4134  0.9533  0.8016
   93MOL   H10133405   0.424   3.556   6.387  1.7665 -0.3206 -0.9376
   93MOL   H10233406   0.260   3.609   6.442 -0.3529  0.6799 -0.5773
   93MOL   H10333407   0.420   3.679   6.188  0.3698  0.6677  1.0594
   93MOL   H10433408   0.249   3.733   6.212 -0.4979  0.5682  1.4231
   93MOL   H10533409   0.389   3.920   6.260  1.5532 -0.1791 -0.5648
   93MOL   H10633410   0.318   3.865   6.409  0.1481  0.5881  0.3846
   93MOL   H10733411   0.611   3.827   6.328 -0.8977  0.8362 -0.5618
   93MOL   H10833412   0.546   3.925   6.456  1.7404 -0.8695  0.1758
   93MOL   H10933413   0.546   3.755   6.462  3.3266 -0.0531 -0.4927
   93MOL   C11033414   0.119   3.478   6.241  0.2609 -0.8422 -0.0220
   93MOL   C11133415   0.024   3.361   6.217  0.1320  0.1519 -0.7384
   93MOL   C11233416   7.642   3.403   6.114  0.2774 -0.6211  0.3955
   93MOL   C11333417   7.688   3.381   5.968 -0.0069  0.6909  0.1926
   93MOL   C11433418   7.612   3.451   5.853 -0.0654 -0.2731 -0.2553
   93MOL   C11533419   7.683   3.432   5.723 -0.0120  0.2444  0.9995
   93MOL   H11633420   0.060   3.545   6.305 -2.3503 -2.8922 -0.2041
   93MOL   H11733421   0.144   3.527   6.147  1.1190  2.4150  1.8226
   93MOL   H11833422   0.071   3.277   6.166 -0.0141 -0.2186 -0.2656
   93MOL   H11933423   7.611   3.507   6.127 -0.1848 -0.9054  1.6555
   93MOL   H12033424   7.553   3.344   6.134  1.9717 -3.3390  0.1947
   93MOL   H12133425   7.689   3.275   5.943  0.1809  0.4160  1.3365
   93MOL   H12233426   0.063   3.419   5.962 -0.0848  0.9391  0.4652
   93MOL   H12333427   7.617   3.556   5.884 -0.9910 -0.2182 -0.2665
   93MOL   H12433428   7.509   3.417   5.843 -0.5817  1.2926 -0.3881
   93MOL   H12533429   7.654   3.496   5.640 -0.6209 -0.9354  0.3014
   93MOL   H12633430   0.063   3.449   5.732  0.2150 -0.1107 -0.8085
   93MOL   H12733431   7.667   3.333   5.682  1.4431  0.0640  0.8411
   93MOL   C12833432   7.694   3.310   6.351 -0.0336 -0.3544 -0.5233
   93MOL   C12933433   7.640   3.165   6.362  0.5821 -0.3585 -0.2728
   93MOL   C13033434   7.505   3.140   6.442 -0.5788 -0.5849  0.0151
   93MOL   C13133435   7.529   3.183   6.583 -0.2041  0.4768 -0.4966
   93MOL   C13233436   7.406   3.166   6.669 -0.2210 -0.0332 -0.0553
   93MOL   C13333437   7.436   3.200   6.813  0.0418 -1.0657  0.7913
   93MOL   H13433438   7.611   3.379   6.367 -0.1424 -0.8316  1.0754
   93MOL   H13533439   0.031   3.321   6.439  1.7974 -3.5993 -1.3438
   93MOL   H13633440   7.622   3.143   6.257 -0.1878 -2.0347  0.1907
   93MOL   H13733441   7.430   3.198   6.388  0.2695 -1.1375 -1.7719
   93MOL   H13833442   7.477   3.036   6.428 -1.2128 -0.3543 -0.4784
   93MOL   H13933443   7.540   3.291   6.596 -1.3094  0.6327 -0.8119
   93MOL   H14033444   7.611   3.132   6.634  1.5661  3.8485  0.2024
   93MOL   H14133445   7.318   3.220   6.634 -0.5651 -0.7097 -0.2438
   93MOL   H14233446   7.377   3.061   6.664 -0.8133  0.1406 -0.3059
   93MOL   H14333447   7.520   3.142   6.853  0.1786 -1.4133  0.0079
   93MOL   H14433448   7.340   3.188   6.864  0.4285 -0.4498  1.6833
   93MOL   H14533449   7.467   3.304   6.822 -0.3013 -0.9075  0.1682
   93MOL   C14633450   0.025   3.077   6.411 -0.3674 -0.2889  0.1452
   93MOL   C14733451   0.021   2.928   6.375  0.2122  0.0554  0.1193
   93MOL   C14833452   0.085   2.841   6.487 -1.0039 -0.1590 -0.5532
   93MOL   C14933453   7.718   2.833   6.617  0.3295  0.0956 -0.7770
   93MOL   C15033454   0.039   2.716   6.710  0.3836  0.3025  0.2930
   93MOL   C15133455   7.704   2.741   6.848  0.6118 -0.4763  1.0838
   93MOL   H15233456   0.112   3.129   6.370 -0.5211 -0.6899 -0.6841
   93MOL   H15333457   0.055   3.095   6.514 -0.8934 -1.2483  0.4714
   93MOL   H15433458   7.641   2.910   6.364 -0.3034  1.0383  3.0484
   93MOL   H15533459   0.181   2.870   6.529 -1.0652 -1.6485  0.6495
   93MOL   H15633460   0.108   2.743   6.444 -0.6646 -0.3459  0.0494
   93MOL   H15733461   0.003   2.932   6.662 -0.1632  0.6501 -1.8335
   93MOL   H15833462   7.611   2.835   6.594  0.3743  0.5930 -0.9593
   93MOL   H15933463   0.147   2.716   6.706  0.3108  0.8097 -1.9835
   93MOL   H16033464   0.005   2.620   6.671  0.0255  0.5473 -0.0037
   93MOL   H16133465   0.021   2.827   6.900 -0.7812  1.9414 -1.5882
   93MOL   H16233466   7.606   2.780   6.822  0.8685  0.7208  1.8526
   93MOL   H16333467   7.698   2.649   6.906  3.9608 -0.6096  1.3446
   93MOL   C16433468   0.093   2.899   6.242 -0.2166 -0.1742 -0.1165
   93MOL   C16533469   0.018   2.947   6.112 -0.5083  0.0050  0.4372
   93MOL   C16633470   0.125   2.952   5.991 -0.1612  0.5117  0.2536
   93MOL   C16733471   0.213   3.072   5.978  0.0658  0.3700 -0.0152
   93MOL   C16833472   0.289   3.090   5.844 -0.8784  0.3853  0.3509
   93MOL   C16933473   0.390   2.975   5.832  0.6668 -0.4575  0.4204
   93MOL   H17033474   0.187   2.953   6.252 -0.3375 -0.2142  1.4993
   93MOL   H17133475   0.124   2.795   6.233  0.6402  0.0331  0.3403
   93MOL   H17233476   7.724   3.053   6.128  0.3999  0.2668 -0.0423
   93MOL   H17333477   0.076   2.959   5.894  0.9521 -1.2132 -0.4576
   93MOL   H17433478   0.175   2.855   5.986  0.0577  0.6298  0.1470
   93MOL   H17533479   0.281   3.064   6.062 -0.6038  0.9166  0.5924
   93MOL   H17633480   0.149   3.159   5.996  0.0015  0.9422 -2.7980
   93MOL   H17733481   0.339   3.186   5.837 -1.3043  0.4518 -2.1374
   93MOL   H17833482   0.220   3.097   5.761 -0.9222  0.7682  0.4211
   93MOL   H17933483   0.451   2.984   5.742 -0.4058 -2.0983 -0.4768
   93MOL   H18033484   0.343   2.877   5.832  0.7458 -0.4958  0.5499
   93MOL   H18133485   0.457   2.982   5.918 -0.7290 -1.0179  1.5694
   93MOL   C18233486   7.627   2.855   6.077 -0.4137 -0.8157 -0.2337
   93MOL   C18333487   7.524   2.890   5.958 -0.7916 -0.6096  0.6527
   93MOL   C18433488   7.446   3.024   5.995 -0.0313  0.4280  0.0668
   93MOL   C18533489   7.372   3.084   5.866 -0.6187 -0.0652  0.0212
   93MOL   C18633490   7.458   3.098   5.741 -0.6180 -0.2039 -0.2471
   93MOL   C18733491   7.399   3.177   5.635 -0.2645 -0.0931  0.3545
   93MOL   H18833492   7.668   2.754   6.073  0.2704 -0.5339 -0.2671
   93MOL   H18933493   7.565   2.856   6.167  1.3038 -0.8644  0.9690
   93MOL   H19033494   7.576   2.917   5.866 -1.1111  1.4329  1.0275
   93MOL   H19133495   7.367   3.013   6.069 -0.2368 -1.8186 -0.4562
   93MOL   H19233496   7.519   3.097   6.029 -0.4968  0.5507  0.8098
   93MOL   H19333497   7.333   3.182   5.896 -1.2133  0.0285 -1.0468
   93MOL   H19433498   7.288   3.020   5.839  1.1607 -2.0619 -0.8926
   93MOL   H19533499   7.476   3.004   5.688  2.0210  0.0459  0.1401
   93MOL   H19633500   7.549   3.149   5.772 -1.3688  1.5721 -0.9155
   93MOL   H19733501   7.450   3.165   5.539 -1.1056 -0.7428 -0.0197
   93MOL   H19833502   7.402   3.284   5.654  3.2285 -0.1418  0.3793
   93MOL   H19933503   7.296   3.148   5.611  0.6976  0.1647 -4.7289
   93MOL   C20033504   7.433   2.768   5.918  0.2796  0.1065  0.3889
   93MOL   C20133505   7.502   2.646   5.856  0.3769 -0.1608  0.1322
   93MOL   C20233506   7.399   2.532   5.855 -0.4317  0.0117 -0.0446
   93MOL   C20333507   7.266   2.562   5.789 -0.4462 -0.5902  0.1646
   93MOL   C20433508   7.167   2.448   5.787 -0.6762 -0.7551 -0.7215
   93MOL   C20533509   7.154   2.374   5.919 -0.6073  0.2165 -0.0204
   93MOL   H20633510   7.377   2.802   5.832  0.8026  0.6950  0.2779
   93MOL   H20733511   7.359   2.738   5.993 -0.2686  0.5401  0.0208
   93MOL   H20833512   7.585   2.616   5.921 -1.1730  0.9669  2.7230
   93MOL   H20933513   7.377   2.500   5.957  1.4960 -2.9724 -0.5287
   93MOL   H21033514   7.450   2.450   5.806 -1.3950 -0.1188 -0.8478
   93MOL   H21133515   7.272   2.590   5.684  0.9891 -1.3592  0.0182
   93MOL   H21233516   7.219   2.641   5.847  2.2478  1.2730 -0.1231
   93MOL   H21333517   7.178   2.385   5.698  0.9421 -2.2334  0.4936
   93MOL   H21433518   7.073   2.502   5.779  0.8333  1.9334 -0.6883
   93MOL   H21533519   7.244   2.318   5.944 -0.9148  0.0597  0.7714
   93MOL   H21633520   7.141   2.443   6.002  0.5723 -0.8057  1.0497
   93MOL   H21733521   7.071   2.305   5.933  0.0448 -0.4127  0.8157
   93MOL   C21833522   7.568   2.672   5.716 -0.0415  0.0481  0.7185
   93MOL   C21933523   7.720   2.659   5.724  0.3310 -0.2887 -0.0891
   93MOL   C22033524   0.054   2.725   5.605 -0.0032  0.2744 -0.1520
   93MOL   C22133525   0.035   2.881   5.595  0.1902 -0.1327 -0.2317
   93MOL   C22233526   0.095   2.937   5.469  0.4908 -0.1693 -0.9321
   93MOL   C22333527   0.035   2.871   5.342  0.4630  0.6084  0.1492
   93MOL   H22433528   7.535   2.600   5.642 -1.4787 -0.2124  1.5935
   93MOL   H22533529   7.545   2.775   5.690 -1.4737 -1.2771 -3.5453
   93MOL   H22633530   0.022   2.712   5.815 -1.0179 -1.3737  1.0079
   93MOL   H22733531   0.018   2.668   5.520  1.4154 -1.8471  0.6154
   93MOL   H22833532   0.160   2.701   5.601  0.1101  0.3837  1.6623
   93MOL   H22933533   0.093   2.917   5.680  1.2739  0.5755 -1.2545
   93MOL   H23033534   7.660   2.919   5.598 -0.4552 -1.9181  2.7158
   93MOL   H23133535   0.095   3.046   5.462  3.5339  0.0490  1.5357
   93MOL   H23233536   0.199   2.904   5.469  0.3901 -0.4853 -0.7585
   93MOL   H23333537   7.656   2.849   5.344  0.6184 -0.7669 -3.6116
   93MOL   H23433538   0.085   2.776   5.321 -2.3823 -0.8665 -0.2748
   93MOL   H23533539   0.053   2.939   5.259 -0.7466 -1.4688 -1.8516
   93MOL   C23633540   0.039   2.517   5.750 -0.7723 -0.1190  0.1105
   93MOL   C23733541   0.110   2.484   5.884  0.0299  0.8014  0.4267
   93MOL   C23833542   0.257   2.524   5.872  0.1611  0.1189 -0.2397
   93MOL   C23933543   0.331   2.510   6.011  0.2283 -0.2856  0.4524
   93MOL   C24033544   0.289   2.603   6.129  0.0100  0.1512  0.1396
   93MOL   C24133545   0.380   2.586   6.251  0.1873 -0.5386 -0.0104
   93MOL   H24233546   7.685   2.448   5.724 -1.6133  0.0578  2.1755
   93MOL   H24333547   0.104   2.493   5.666  1.0652 -0.0487  1.4709
   93MOL   H24433548   0.075   2.555   5.959 -0.4113  0.1986  0.8031
   93MOL   H24533549   0.313   2.464   5.800  0.2635  1.0534 -0.9438
   93MOL   H24633550   0.265   2.622   5.824  2.2047 -0.1539 -0.5092
   93MOL   H24733551   0.433   2.546   5.998  0.4309 -0.0576  2.4671
   93MOL   H24833552   0.350   2.405   6.031  0.1072 -0.8262 -2.1200
   93MOL   H24933553   0.286   2.703   6.084 -1.3649 -1.2315 -2.9904
   93MOL   H25033554   0.185   2.586   6.154  0.3771 -0.9915  0.8939
   93MOL   H25133555   0.386   2.482   6.281 -0.3879 -0.3637  0.7271
   93MOL   H25233556   0.478   2.626   6.225 -0.0145  0.8108  1.2066
   93MOL   H25333557   0.338   2.648   6.331  0.3050 -2.2184  1.3823
   93MOL   C25433558   0.105   2.335   5.921  0.7977  0.5873 -0.0103
   93MOL   C25533559   7.692   2.298   5.968 -0.9502  0.6189  0.3101
   93MOL   C25633560   7.651   2.358   6.104 -0.0170  0.0906  0.7343
   93MOL   C25733561   7.508   2.323   6.158 -0.6084  0.4041 -0.0476
   93MOL   C25833562   7.467   2.392   6.293 -0.3863  0.6381  0.0273
   93MOL   C25933563   7.315   2.389   6.317 -0.0956  0.0371 -0.2196
   93MOL   H26033564   0.165   2.310   6.009  0.9284  1.9368  0.2920
   93MOL   H26133565   0.142   2.274   5.838 -0.6315  0.6987 -0.7506
   93MOL   H26233566   7.615   2.334   5.900 -0.9366 -0.0716 -0.0803
   93MOL   H26333567   0.009   2.339   6.169 -0.1631 -2.6914  0.1574
   93MOL   H26433568   7.644   2.465   6.082  0.0616 -0.1285 -0.3835
   93MOL   H26533569   7.433   2.330   6.079 -0.3995  0.3065 -0.2552
   93MOL   H26633570   7.506   2.217   6.183 -1.7299  0.6198  0.8068
   93MOL   H26733571   7.506   2.493   6.296  1.0206  0.1147 -0.0470
   93MOL   H26833572   7.510   2.345   6.382 -0.3738  0.5839 -0.0074
   93MOL   H26933573   7.296   2.461   6.396  1.7556 -0.7120  0.9560
   93MOL   H27033574   7.286   2.295   6.365  0.8188 -0.8585 -1.3818
   93MOL   H27133575   7.253   2.403   6.229 -0.4766  2.2460  0.3911
   93MOL   C27233576   7.673   2.145   5.965  0.0581 -0.4192 -1.0239
   93MOL   C27333577   0.022   2.060   6.073 -0.3225  0.2154  1.1948
   93MOL   C27433578   0.163   2.022   6.022 -0.0178  0.5738  0.2952
   93MOL   C27533579   0.273   2.061   6.124  0.2424 -0.3826  0.6198
   93MOL   C27633580   0.408   2.074   6.062 -0.5052 -0.0211  1.2150
   93MOL   C27733581   0.501   2.135   6.161  0.8122  0.2263 -0.3734
   93MOL   H27833582   7.567   2.119   5.967 -0.1598  0.5118  0.3513
   93MOL   H27933583   7.705   2.106   5.868 -1.5078 -2.6638 -0.6981
   93MOL   H28033584   0.031   2.117   6.166  0.1016  2.6738 -0.2818
   93MOL   H28133585   0.188   2.081   5.933 -2.0495 -1.1346 -1.4650
   93MOL   H28233586   0.181   1.918   5.993  2.7429  1.3484 -1.0296
   93MOL   H28333587   0.265   1.990   6.206 -0.2054  0.6257  1.4766
   93MOL   H28433588   0.240   2.155   6.169 -1.9369 -1.6883  1.8630
   93MOL   H28533589   0.439   1.978   6.022  2.6352  1.2700  0.3791
   93MOL   H28633590   0.399   2.134   5.972  0.1856 -2.0767 -0.2547
   93MOL   H28733591   0.598   2.147   6.112  0.7097  0.5161 -0.5018
   93MOL   H28833592   0.462   2.231   6.195  1.0077 -0.1518  0.9713
   93MOL   H28933593   0.507   2.070   6.249 -2.3431 -0.4623 -0.6283
   93MOL   C29033594   7.668   1.927   6.082 -0.7366 -0.9467  0.7401
   93MOL   C29133595   0.001   1.837   6.191  0.0124  0.5084 -0.6824
   93MOL   C29233596   7.715   1.902   6.335 -0.0403 -0.5251 -0.3692
   93MOL   C29333597   7.573   1.959   6.376  0.3137 -1.1264 -0.1628
   93MOL   C29433598   7.554   1.983   6.521 -0.6765 -0.0794 -0.1958
   93MOL   C29533599   7.660   2.081   6.592 -0.1945 -0.1176  0.6518
   93MOL   H29633600   7.659   1.879   5.984  2.3516 -0.8770  0.3641
   93MOL   H29733601   7.563   1.951   6.101 -1.1059 -1.5677 -0.4750
   93MOL   H29833602   0.109   1.836   6.173  0.1447  0.8353  0.0574
   93MOL   H29933603   0.065   1.977   6.349 -0.0147 -0.4942 -0.6670
   93MOL   H30033604   0.014   1.827   6.410 -2.7117 -0.5139  0.6446
   93MOL   H30133605   7.551   2.040   6.307  0.4487 -2.5313 -1.8697
   93MOL   H30233606   7.501   1.881   6.351 -1.6328  0.5704  0.0302
   93MOL   H30333607   7.560   1.887   6.572 -0.7693  0.3623  0.6590
   93MOL   H30433608   7.455   2.027   6.533 -0.7982 -0.1903 -0.8208
   93MOL   H30533609   7.649   2.081   6.700  2.6333  1.6520  0.9944
   93MOL   H30633610   7.659   2.181   6.548 -0.1396  0.5129  2.0688
   93MOL   H30733611   0.037   2.048   6.591 -0.3444 -0.6721 -1.5889
   93MOL   C30833612   7.661   1.695   6.192  0.0098 -0.4796  0.6113
   93MOL   C30933613   0.023   1.578   6.233  0.8254  0.6663  0.1979
   93MOL   C31033614   0.025   1.543   6.378  0.5506 -0.0612  0.1379
   93MOL   C31133615   7.615   1.505   6.435  0.4134 -0.1850  0.6366
   93MOL   C31233616   7.622   1.462   6.576 -0.0544 -0.1048  0.6574
   93MOL   C31333617   7.489   1.446   6.645 -0.4166  0.1155 -0.4953
   93MOL   H31433618   7.574   1.703   6.257 -1.2600 -2.4398 -0.8122
   93MOL   H31533619   7.633   1.669   6.090  1.5056  0.6232 -0.1120
   93MOL   H31633620   7.718   1.489   6.177 -0.2649  1.2472 -0.1174
   93MOL   H31733621   0.071   1.621   6.437  0.3037  0.4398 -0.3204
   93MOL   H31833622   0.106   1.471   6.392  0.2478 -0.3303  0.5246
   93MOL   H31933623   7.569   1.426   6.376 -0.6680 -0.3508  1.6731
   93MOL   H32033624   7.549   1.591   6.426 -1.0296 -1.5003 -1.7268
   93MOL   H32133625   7.663   1.361   6.582 -1.2598 -0.6259  0.3091
   93MOL   H32233626   7.691   1.518   6.638 -0.2266 -0.7671  1.4605
   93MOL   H32333627   7.435   1.359   6.607 -1.4021 -0.6672  2.5619
   93MOL   H32433628   7.431   1.539   6.640 -1.3166 -0.4989 -1.8227
   93MOL   H32533629   7.506   1.427   6.751  1.6960  0.7795 -0.7025
   93MOL   C32633630   0.169   1.590   6.179  0.9050  0.4836 -0.7333
   93MOL   C32733631   0.183   1.596   6.022  0.4333 -0.2661  0.0049
   93MOL   C32833632   0.332   1.622   5.992  0.4987 -0.2499 -0.3336
   93MOL   C32933633   0.368   1.604   5.841  0.9172  0.5277  0.6406
   93MOL   C33033634   0.504   1.671   5.806  0.6035 -0.4110  0.1217
   93MOL   C33133635   0.544   1.684   5.656  0.4564 -0.3621  0.3721
   93MOL   H33233636   0.225   1.502   6.209 -0.2639 -0.1108 -0.2334
   93MOL   H33333637   0.216   1.676   6.225 -1.5256  1.3072  0.3371
   93MOL   H33433638   0.134   1.688   5.991  0.4044 -0.6794 -1.1932
   93MOL   H33533639   0.364   1.715   6.039 -2.4310  0.3205  0.6244
   93MOL   H33633640   0.391   1.550   6.050 -1.3956 -1.1219  0.5536
   93MOL   H33733641   0.291   1.663   5.791  0.8025  0.5062  0.7885
   93MOL   H33833642   0.369   1.506   5.795  3.7920  0.6432  0.4000
   93MOL   H33933643   0.515   1.772   5.846 -1.2297  0.0955 -0.6046
   93MOL   H34033644   0.581   1.604   5.846  1.5689 -0.5879 -1.9792
   93MOL   H34133645   0.446   1.703   5.613 -0.4078 -1.8292  1.6342
   93MOL   H34233646   0.584   1.589   5.621 -1.1436 -1.0777  0.4331
   93MOL   H34333647   0.612   1.767   5.636 -1.3031  1.2211  0.8393
   93MOL   C34433648   0.119   1.476   5.946 -0.1698  0.2621 -0.3242
   93MOL   C34533649   0.181   1.334   5.984 -0.0746  0.4489  0.2522
   93MOL   C34633650   0.173   1.232   5.870 -0.5607 -0.6250 -0.3683
   93MOL   C34733651   0.209   1.090   5.919  0.3861 -0.2051 -0.2297
   93MOL   C34833652   0.209   0.992   5.807  0.0580  0.3114 -0.4379
   93MOL   C34933653   0.261   0.855   5.834 -0.0295 -0.1267 -0.9592
   93MOL   H35033654   0.011   1.475   5.961 -0.3594  2.3332 -1.3599
   93MOL   H35133655   0.118   1.501   5.840 -0.3431  0.2658 -0.3220
   93MOL   H35233656   0.124   1.302   6.071 -2.0777 -0.1669 -1.2547
   93MOL   H35333657   0.071   1.226   5.831 -1.2609  1.9832  0.9977
   93MOL   H35433658   0.237   1.267   5.789 -1.1095  3.0704  0.7091
   93MOL   H35533659   0.312   1.099   5.953 -0.0182 -0.7985  1.1924
   93MOL   H35633660   0.145   1.058   6.001 -0.4296 -1.4477 -1.3220
   93MOL   H35733661   0.108   0.989   5.765  0.8883 -0.9767 -2.4631
   93MOL   H35833662   0.275   1.025   5.727  0.2624  0.0771 -0.3700
   93MOL   H35933663   0.364   0.855   5.868  0.6956  0.0082 -3.1087
   93MOL   H36033664   0.193   0.804   5.902  0.1179 -0.3151 -0.9536
   93MOL   H36133665   0.263   0.786   5.750  1.2257 -1.5862  0.2243
   93MOL   H36233666   0.283   1.331   6.024 -0.9817  0.5466  2.6380
   94MOL     C133667   6.148   6.636   2.369 -0.4826  0.6416  0.1721
   94MOL     C233668   6.014   6.668   2.301 -0.5487  0.8524  0.5546
   94MOL     C333669   6.021   6.607   2.161  0.6012 -0.9396  0.0501
   94MOL     C433670   6.024   6.457   2.156  0.0456 -0.8787 -0.8644
   94MOL     C533671   6.020   6.394   2.015 -0.7037 -0.5558 -0.1818
   94MOL     C633672   5.965   6.250   2.030  0.8601  0.7030  0.2796
   94MOL     H733673   6.163   6.529   2.376 -1.1958  0.4213 -1.4825
   94MOL     H833674   6.235   6.676   2.318  0.8714 -0.5326  1.5226
   94MOL     H933675   5.939   6.613   2.357 -0.9634 -1.2972 -2.0383
   94MOL    H1033676   6.102   6.645   2.099  1.2989 -2.0232  0.2906
   94MOL    H1133677   5.932   6.634   2.104  0.0324  0.4059  1.5205
   94MOL    H1233678   5.941   6.411   2.209 -0.9691  0.6466 -1.1155
   94MOL    H1333679   6.113   6.420   2.207  0.0123  0.1805 -0.0283
   94MOL    H1433680   5.955   6.454   1.951  0.3124 -1.1190 -1.7641
   94MOL    H1533681   6.120   6.394   1.971 -0.8817 -0.9552 -0.5834
   94MOL    H1633682   5.954   6.200   1.934 -0.7485  1.2890  0.1403
   94MOL    H1733683   5.862   6.245   2.066  0.6467  2.0466 -0.0960
   94MOL    H1833684   6.027   6.173   2.075 -0.3457 -0.6311 -0.3170
   94MOL    H1933685   6.158   6.671   2.472  0.7725 -1.2189  0.7058
   94MOL    C2033686   5.971   6.810   2.303  0.2962 -0.4358 -0.6878
   94MOL    C2133687   5.837   6.847   2.230  0.0722  0.3302  0.0000
   94MOL    C2233688   5.717   6.762   2.272  0.3241  0.0152 -0.3895
   94MOL    C2333689   5.664   6.751   2.416  0.8712 -0.6119 -0.1228
   94MOL    C2433690   5.564   6.643   2.446 -0.3334  0.4160 -0.1661
   94MOL    C2533691   5.552   6.602   2.593  0.4962 -0.0514 -0.4141
   94MOL    H2633692   6.043   6.868   2.246  1.0994 -0.7050  0.0497
   94MOL    H2733693   5.979   6.846   2.405  2.5524  2.3187 -1.7817
   94MOL    H2833694   5.843   6.831   2.122 -3.6762  1.1629 -0.4110
   94MOL    H2933695   5.734   6.665   2.225  1.5646  1.2013 -2.5089
   94MOL    H3033696   5.627   6.797   2.222 -0.5058  0.6894  1.5430
   94MOL    H3133697   5.622   6.850   2.436 -0.5160 -1.6883  2.4749
   94MOL    H3233698   5.748   6.745   2.486  1.0102  4.5424  0.3727
   94MOL    H3333699   5.466   6.681   2.418  0.2154  0.4563 -2.0459
   94MOL    H3433700   5.592   6.553   2.391 -0.9003  0.5133 -0.6147
   94MOL    H3533701   5.642   6.560   2.637 -0.0339 -0.9509 -0.1506
   94MOL    H3633702   5.516   6.683   2.656  3.0936  1.4489 -0.8062
   94MOL    H3733703   5.480   6.519   2.585 -0.8646  1.1362 -0.6940
   94MOL    C3833704   5.818   7.002   2.247  0.0785  0.4002  1.1272
   94MOL    C3933705   5.736   7.053   2.121  0.1346 -0.3483  0.1920
   94MOL    C4033706   5.656   7.176   2.161  0.2896 -0.5301  0.3708
   94MOL    C4133707   5.536   7.148   2.257  0.8541 -0.3937 -0.0501
   94MOL    C4233708   5.442   7.270   2.276  0.3221  0.5718  0.2790
   94MOL    C4333709   5.342   7.239   2.390 -0.5447  0.7128  0.5507
   94MOL    H4433710   5.910   7.057   2.264 -0.5571  3.0227 -3.3463
   94MOL    H4533711   5.780   7.018   2.348 -1.8370 -0.3953  0.5618
   94MOL    H4633712   5.658   6.979   2.103  0.6288 -1.6934  3.2976
   94MOL    H4733713   5.710   7.268   2.182  1.4334 -0.6549 -1.8648
   94MOL    H4833714   5.589   7.203   2.080 -1.7436  0.1431  2.2252
   94MOL    H4933715   5.475   7.065   2.221 -2.2624  0.3520  3.3097
   94MOL    H5033716   5.578   7.108   2.349 -0.2293 -2.1207 -0.2957
   94MOL    H5133717   5.469   7.375   2.286 -0.1383  0.7264 -0.0842
   94MOL    H5233718   5.380   7.265   2.187 -0.7035 -0.9181  1.0484
   94MOL    H5333719   5.249   7.190   2.361 -0.4449  0.3705  0.8124
   94MOL    H5433720   5.311   7.334   2.435 -0.1296  1.6524 -1.1100
   94MOL    H5533721   5.399   7.189   2.468  1.2606  4.0049  1.4538
   94MOL    C5633722   5.822   7.075   1.996 -0.5762  0.0673  0.4652
   94MOL    C5733723   5.751   7.040   1.862  0.0707 -0.4670 -0.2123
   94MOL    C5833724   5.755   6.892   1.832  0.0793 -0.2231  0.3950
   94MOL    C5933725   5.650   6.792   1.893  0.2540 -1.0579  0.2386
   94MOL    C6033726   5.687   6.655   1.838  0.5549 -0.9402  0.3067
   94MOL    C6133727   5.591   6.540   1.875  0.0235  0.3065  0.2608
   94MOL    H6233728   5.867   7.174   1.999 -1.8149  0.6856 -0.8162
   94MOL    H6333729   5.914   7.019   2.013  0.2748  1.4169  0.3715
   94MOL    H6433730   5.644   7.057   1.867  0.1470 -0.0238 -0.0296
   94MOL    H6533731   5.737   6.880   1.725  0.2738 -3.7564  0.7030
   94MOL    H6633732   5.857   6.858   1.852  0.3976  1.2085  1.2501
   94MOL    H6733733   5.550   6.822   1.862  0.2306 -0.1615  1.1296
   94MOL    H6833734   5.650   6.793   2.002  0.4312 -1.1340  0.2399
   94MOL    H6933735   5.693   6.669   1.730  1.1140 -2.1667  0.1668
   94MOL    H7033736   5.790   6.630   1.863 -0.3709 -1.5925  3.6927
   94MOL    H7133737   5.609   6.437   1.847  1.0026  0.6046 -0.2520
   94MOL    H7233738   5.583   6.549   1.983 -0.0047  1.0157  0.2026
   94MOL    H7333739   5.498   6.565   1.825  1.2812  1.0580 -1.7928
   94MOL    C7433740   5.816   7.118   1.751 -0.5556 -0.3047  0.4255
   94MOL    C7533741   5.771   7.265   1.746  0.6211 -0.1944  0.4022
   94MOL    C7633742   5.899   7.355   1.732  0.0137 -0.1384 -0.1840
   94MOL    C7733743   5.876   7.501   1.786 -0.8885 -0.3034  0.6663
   94MOL    C7833744   6.009   7.587   1.772 -0.1209  0.3218 -0.5266
   94MOL    C7933745   5.997   7.710   1.854  1.4960 -0.9336  0.2827
   94MOL    H8033746   5.921   7.115   1.777  0.1555 -0.1570 -2.2424
   94MOL    H8133747   5.803   7.065   1.656  1.5060 -1.2948  0.6897
   94MOL    H8233748   5.726   7.280   1.845  0.3442 -0.2012  0.2782
   94MOL    H8333749   5.988   7.318   1.782  1.7938  1.5445 -2.0431
   94MOL    H8433750   5.922   7.365   1.626  0.3201  1.6101  0.0313
   94MOL    H8533751   5.808   7.560   1.726  0.5385 -0.9049 -1.5842
   94MOL    H8633752   5.853   7.509   1.893  1.6197  0.7568  1.1718
   94MOL    H8733753   6.030   7.607   1.667  0.0599  1.5017 -0.2782
   94MOL    H8833754   6.097   7.532   1.804 -0.4904 -1.8517 -3.1652
   94MOL    H8933755   6.082   0.048   1.834 -0.0207  0.6218 -1.2919
   94MOL    H9033756   5.908   0.044   1.836  0.8049 -1.5457  1.4982
   94MOL    H9133757   5.993   7.681   1.959 -0.7481 -1.5519  0.0530
   94MOL    C9233758   5.648   7.293   1.652 -0.2140 -0.3286 -0.1656
   94MOL    C9333759   5.510   7.228   1.685  1.3321 -0.3756  0.0535
   94MOL    C9433760   5.444   7.285   1.813 -0.1658 -0.1882  0.0730
   94MOL    C9533761   5.324   7.214   1.865  0.2516  0.0215  0.1964
   94MOL    C9633762   5.339   7.070   1.935 -0.3748  0.2564 -0.2640
   94MOL    C9733763   5.202   7.003   1.973  0.2589 -0.0301  1.1854
   94MOL    H9833764   5.634   7.400   1.646  0.5132 -0.2494 -0.5360
   94MOL    H9933765   5.680   7.254   1.555 -0.4716  0.8646 -0.7363
   94MOL   H10033766   5.532   7.123   1.701  0.0067 -0.9842 -1.9547
   94MOL   H10133767   5.417   7.388   1.790  0.7741 -0.4500 -2.4065
   94MOL   H10233768   5.526   7.298   1.884 -1.4830 -1.5704  1.8925
   94MOL   H10333769   5.265   7.280   1.929  1.3575  0.0566  1.1895
   94MOL   H10433770   5.259   7.195   1.779 -1.0207  1.5540  0.7959
   94MOL   H10533771   5.383   7.000   1.864 -1.9025  0.0142 -0.9889
   94MOL   H10633772   5.398   7.066   2.027  0.8353 -2.6341 -1.1088
   94MOL   H10733773   5.227   6.898   1.993  0.0625 -0.1716  0.7122
   94MOL   H10833774   5.158   7.045   2.063  0.6871  1.4015  0.7245
   94MOL   H10933775   5.130   7.017   1.892  0.5260 -2.7317  0.4059
   94MOL   C11033776   5.425   7.233   1.550 -0.0027 -0.4514 -0.8383
   94MOL   C11133777   5.427   7.110   1.460 -0.0463 -0.0206  0.3207
   94MOL   C11233778   5.366   7.153   1.320 -1.0551  0.2345  0.4401
   94MOL   C11333779   5.455   7.249   1.241  0.6095 -0.0037  0.1249
   94MOL   C11433780   5.436   7.247   1.084 -0.0168 -0.2314 -0.1387
   94MOL   C11533781   5.509   7.365   1.017  0.3367 -0.1306  0.1851
   94MOL   H11633782   5.319   7.251   1.571  0.5201  1.5454  0.2565
   94MOL   H11733783   5.448   7.325   1.496 -0.7783  0.5680  0.5232
   94MOL   H11833784   5.534   7.088   1.451 -0.0417 -0.2964  1.0460
   94MOL   H11933785   5.268   7.200   1.325 -1.7355 -0.9132 -1.5526
   94MOL   H12033786   5.357   7.070   1.250  1.0118  0.7147 -0.4426
   94MOL   H12133787   5.555   7.217   1.271 -0.0111 -1.4902  0.6612
   94MOL   H12233788   5.440   7.348   1.282 -0.9082 -0.2449  0.1831
   94MOL   H12333789   5.330   7.243   1.059  0.0364  0.4231 -0.4935
   94MOL   H12433790   5.471   7.151   1.046  0.4093  0.0002 -0.3357
   94MOL   H12533791   5.615   7.342   1.015  0.4866  0.5812 -0.5000
   94MOL   H12633792   5.473   7.368   0.914  0.2895 -1.1873  0.1627
   94MOL   H12733793   5.486   7.456   1.073  0.3569 -1.5344  2.5382
   94MOL   C12833794   5.349   7.000   1.529 -0.1305  0.7151  0.0655
   94MOL   C12933795   5.378   6.856   1.477 -0.7719 -0.2232  0.2129
   94MOL   C13033796   5.269   6.754   1.519 -0.2963 -0.4996 -0.1251
   94MOL   C13133797   5.257   6.735   1.676 -0.8403  0.5869  0.6558
   94MOL   C13233798   5.124   6.666   1.716  0.7296  0.3437 -0.1269
   94MOL   C13333799   5.120   6.618   1.862  0.0333  0.1725  0.2531
   94MOL   H13433800   5.244   7.028   1.524 -0.2458  0.0310 -2.3062
   94MOL   H13533801   5.364   7.004   1.637  2.8058  1.3633 -0.3195
   94MOL   H13633802   5.364   6.856   1.369 -1.0718  0.8461  0.2434
   94MOL   H13733803   5.172   6.780   1.477 -0.9046  0.0295  1.5443
   94MOL   H13833804   5.293   6.661   1.468  1.4580 -0.0752 -0.0881
   94MOL   H13933805   5.264   6.827   1.734 -0.0719 -0.4439  2.2223
   94MOL   H14033806   5.338   6.670   1.708 -0.6896  0.9121  0.9287
   94MOL   H14133807   5.041   6.735   1.699 -1.3451 -1.6147  1.7140
   94MOL   H14233808   5.102   6.577   1.656  2.3239 -1.4398  1.8634
   94MOL   H14333809   5.197   6.646   1.934  0.7660  0.3370 -0.5916
   94MOL   H14433810   5.132   6.511   1.850  0.8280  0.4828 -2.0213
   94MOL   H14533811   5.020   6.631   1.902  0.3825 -0.9108  1.4843
   94MOL   C14633812   5.513   6.798   1.506 -0.0382  0.4439 -0.1570
   94MOL   C14733813   5.588   6.734   1.384 -0.2077  0.2536 -0.3483
   94MOL   C14833814   5.547   6.587   1.357  0.0968  0.3132 -0.2721
   94MOL   C14933815   5.579   6.495   1.481 -0.1287 -0.4713 -0.1883
   94MOL   C15033816   5.595   6.354   1.431 -0.9131  0.5211  0.0988
   94MOL   C15133817   5.649   6.259   1.541  0.0157  0.1544 -0.5236
   94MOL   H15233818   5.577   6.874   1.551 -0.5471  1.2409 -0.7688
   94MOL   H15333819   5.501   6.730   1.590  0.1168  1.1648  0.4504
   94MOL   H15433820   5.563   6.782   1.289  0.8077  0.2492 -0.6278
   94MOL   H15533821   5.601   6.564   1.265 -0.2161 -0.3263 -0.2946
   94MOL   H15633822   5.442   6.586   1.330  0.5111  0.8921 -1.9909
   94MOL   H15733823   5.674   6.513   1.532 -0.3327 -0.6305  0.2523
   94MOL   H15833824   5.502   6.498   1.559  0.3764 -2.0471  0.3908
   94MOL   H15933825   5.663   6.344   1.346 -0.2070 -0.4555  0.7691
   94MOL   H16033826   5.510   6.315   1.375  0.2900  0.8347 -2.0024
   94MOL   H16133827   5.747   6.278   1.585 -0.1691  1.6320 -0.7362
   94MOL   H16233828   5.580   6.260   1.626  1.5364  0.7491  0.7430
   94MOL   H16333829   5.658   6.157   1.505 -0.9189 -0.5999  1.2782
   94MOL   C16433830   5.743   6.763   1.391  0.6110  0.6182  0.1069
   94MOL   C16533831   5.807   6.764   1.254 -0.4183  0.2680  0.3450
   94MOL   C16633832   5.778   6.898   1.190  0.4615  0.3675  0.3605
   94MOL   C16733833   5.714   6.907   1.047 -0.1443 -0.4265  0.2690
   94MOL   C16833834   5.738   7.050   0.981 -0.1886  0.2992 -0.0774
   94MOL   C16933835   5.668   7.065   0.847  0.6751 -0.2220  0.1323
   94MOL   H17033836   5.767   6.860   1.433 -0.3543  0.3843  1.2357
   94MOL   H17133837   5.788   6.683   1.450 -0.3733 -0.0805 -0.0770
   94MOL   H17233838   5.764   6.683   1.194  1.5283 -0.1585 -0.5029
   94MOL   H17333839   5.875   6.945   1.198  0.4919  0.3989 -0.2113
   94MOL   H17433840   5.715   6.959   1.256  0.6687  0.5518  0.3866
   94MOL   H17533841   5.608   6.884   1.052 -0.4856  1.2178  1.0818
   94MOL   H17633842   5.773   6.831   0.995 -3.0866 -2.5446 -0.1159
   94MOL   H17733843   5.845   7.059   0.966 -0.5673  1.2682 -2.3669
   94MOL   H17833844   5.713   7.136   1.044 -0.5154  0.1114  0.0516
   94MOL   H17933845   5.670   7.168   0.813 -1.6104 -0.3945 -0.6340
   94MOL   H18033846   5.569   7.020   0.842  0.8526 -0.6258  0.2638
   94MOL   H18133847   5.726   7.003   0.779 -0.8418 -1.8145  0.2551
   94MOL   C18233848   5.958   6.730   1.266 -0.4407  0.1320  0.9010
   94MOL   C18333849   6.027   6.670   1.140 -1.2937 -0.7325  0.1474
   94MOL   C18433850   5.975   6.524   1.115  0.3539 -0.5309 -0.0015
   94MOL   C18533851   5.989   6.422   1.232 -0.0976  0.3959  0.2903
   94MOL   C18633852   5.972   6.274   1.187  0.2683  0.4762  0.9439
   94MOL   C18733853   5.920   6.170   1.291 -0.1728  0.6233  0.5955
   94MOL   H18833854   6.016   6.818   1.293 -1.7138  0.9886  0.8735
   94MOL   H18933855   5.972   6.657   1.346  2.6292  1.0409  1.2620
   94MOL   H19033856   5.983   6.725   1.057  0.3721  0.3345 -0.0366
   94MOL   H19133857   5.870   6.540   1.089 -0.1150  0.2569  2.2533
   94MOL   H19233858   6.011   6.489   1.019  0.6091 -0.5955  0.1162
   94MOL   H19333859   5.912   6.444   1.306  2.0247  0.6706  2.4826
   94MOL   H19433860   6.089   6.423   1.276  0.3124 -0.3012 -0.6298
   94MOL   H19533861   6.056   6.230   1.135 -0.6205 -0.9381  0.6707
   94MOL   H19633862   5.900   6.290   1.105  0.5056  0.5062  0.7403
   94MOL   H19733863   6.003   6.116   1.336 -0.0329  0.7821  0.5310
   94MOL   H19833864   5.863   6.101   1.229  1.1018  0.2909 -0.2155
   94MOL   H19933865   5.851   6.213   1.364  1.0555 -0.0334  2.1844
   94MOL   C20033866   6.181   6.661   1.152 -0.0666 -0.7577 -0.2928
   94MOL   C20133867   6.273   6.789   1.140  0.0338  0.7300 -0.5567
   94MOL   C20233868   6.401   6.766   1.220  0.1103 -0.6359  1.4616
   94MOL   C20333869   6.380   6.774   1.368  0.5627 -0.3488 -0.3816
   94MOL   C20433870   6.494   6.719   1.448  0.2193  0.7498  0.0365
   94MOL   C20533871   6.475   6.735   1.601 -0.3448 -0.5213  0.1378
   94MOL   H20633872   6.225   6.592   1.080  0.6104 -0.1724 -0.4500
   94MOL   H20733873   6.192   6.613   1.250 -0.7928  0.5144  0.4353
   94MOL   H20833874   6.206   6.863   1.182 -0.6083  0.5122 -1.2018
   94MOL   H20933875   6.468   6.846   1.191 -1.9016  0.0780 -1.3813
   94MOL   H21033876   6.451   6.671   1.201  1.1086  0.0543  0.6232
   94MOL   H21133877   6.296   6.713   1.404  0.7834 -0.8075 -0.6421
   94MOL   H21233878   6.353   6.873   1.406  0.4004  0.2811 -2.1240
   94MOL   H21333879   6.588   6.759   1.409 -0.7126  0.4250 -2.6415
   94MOL   H21433880   6.517   6.617   1.419 -1.4868  0.4501 -0.3086
   94MOL   H21533881   6.393   6.681   1.649 -0.5271  0.4295  0.9365
   94MOL   H21633882   6.571   6.702   1.640 -0.4852 -0.4604  0.5478
   94MOL   H21733883   6.472   6.844   1.614  1.4574 -0.1619 -2.1504
   94MOL   C21833884   6.310   6.827   0.993  0.7326 -0.2982 -0.0098
   94MOL   C21933885   6.193   6.898   0.913  0.0651  0.3695 -0.3361
   94MOL   C22033886   6.183   6.836   0.778  0.1032 -0.1721 -0.0012
   94MOL   C22133887   6.109   6.695   0.783 -0.0127  0.6783 -0.6669
   94MOL   C22233888   6.116   6.615   0.648  0.0451  0.2122  0.3671
   94MOL   C22333889   6.114   6.457   0.666  0.8395 -0.3093  0.1917
   94MOL   H22433890   6.400   6.889   0.994  0.7344 -0.2070 -2.3848
   94MOL   H22533891   6.333   6.733   0.942 -1.3733 -2.1373  2.2994
   94MOL   H22633892   6.094   6.892   0.958  0.7372 -0.9196  1.0095
   94MOL   H22733893   6.284   6.835   0.735 -0.5878  0.6108 -1.6769
   94MOL   H22833894   6.123   6.896   0.710  2.5785  1.1301 -1.1292
   94MOL   H22933895   6.011   6.716   0.825  0.9618  2.7864  0.6029
   94MOL   H23033896   6.150   6.636   0.864 -0.6609  0.7639 -0.2743
   94MOL   H23133897   6.031   6.638   0.583 -0.0339 -0.9244  0.0561
   94MOL   H23233898   6.205   6.642   0.592 -1.0012  1.3883 -0.7638
   94MOL   H23333899   6.036   6.424   0.735 -1.9450  2.7291 -1.3342
   94MOL   H23433900   6.210   6.413   0.693  1.9997  1.6097 -0.6811
   94MOL   H23533901   6.086   6.406   0.574  0.1198 -0.8786  0.7223
   94MOL   C23633902   6.231   7.045   0.900 -0.0995 -0.4672 -0.3674
   94MOL   C23733903   6.240   7.122   1.040 -0.0592 -0.0169  0.4578
   94MOL   C23833904   6.104   7.166   1.094  0.6810  0.3541 -0.0898
   94MOL   C23933905   6.102   7.217   1.241 -0.3594  0.2624 -0.0400
   94MOL   C24033906   6.170   7.123   1.342  0.3813  0.0119 -0.2219
   94MOL   C24133907   6.146   7.182   1.484 -0.3687 -0.2968 -0.0862
   94MOL   H24233908   6.325   7.044   0.846  0.5755  1.3410  0.7433
   94MOL   H24333909   6.159   7.096   0.836 -1.0350  0.6988  1.5470
   94MOL   H24433910   6.292   7.058   1.112 -1.7604  1.5950  3.1937
   94MOL   H24533911   6.066   7.240   1.025 -1.8857  0.9260  1.8669
   94MOL   H24633912   6.038   7.080   1.085 -0.2790  1.0850 -0.0309
   94MOL   H24733913   6.006   7.251   1.280 -0.4905 -0.8409  0.5949
   94MOL   H24833914   6.163   7.308   1.237  0.1553 -0.0908 -0.3344
   94MOL   H24933915   6.124   7.027   1.318  0.3566  0.3158 -1.4002
   94MOL   H25033916   6.276   7.115   1.318  0.3100 -1.4725 -0.0916
   94MOL   H25133917   6.189   7.282   1.480  2.1692 -1.3301  0.0907
   94MOL   H25233918   6.041   7.184   1.513 -0.3709  1.2820 -0.1359
   94MOL   H25333919   6.193   7.134   1.570 -1.8175  0.9777  1.4652
   94MOL   C25433920   6.326   7.251   1.015  0.0863 -0.4061 -0.1949
   94MOL   C25533921   6.481   7.210   1.010  0.4226 -0.7897 -0.1048
   94MOL   C25633922   6.549   7.210   1.151 -0.2537 -0.5430  0.2697
   94MOL   C25733923   6.679   7.134   1.160 -0.3143 -0.0822  0.6766
   94MOL   C25833924   6.727   7.113   1.310  0.7459  0.4610  0.4245
   94MOL   C25933925   6.828   6.993   1.318  0.1665 -0.3369  0.1568
   94MOL   H26033926   6.317   7.335   1.084 -1.2824 -2.0656  1.7218
   94MOL   H26133927   6.300   7.289   0.917  0.4425  1.2785  0.3522
   94MOL   H26233928   6.490   7.111   0.966 -0.2139 -0.5969 -0.6805
   94MOL   H26333929   6.563   7.312   1.186  1.8651 -0.6856 -0.0892
   94MOL   H26433930   6.482   7.155   1.216 -0.9506  0.0639  0.0752
   94MOL   H26533931   6.668   7.038   1.110  2.7166  0.6798 -1.5902
   94MOL   H26633932   6.754   7.181   1.097 -0.5100 -0.0321  0.4791
   94MOL   H26733933   6.643   7.110   1.380  1.6201 -1.6562  1.4309
   94MOL   H26833934   6.788   7.200   1.334 -0.1684  0.5343  2.5865
   94MOL   H26933935   6.832   6.970   1.424 -1.5769 -0.4247  0.2281
   94MOL   H27033936   6.920   7.013   1.264 -0.2792  1.0634 -0.1082
   94MOL   H27133937   6.777   6.907   1.274 -0.9863  0.5124 -0.2041
   94MOL   C27233938   6.559   7.315   0.920 -0.8680  0.0816 -0.0157
   94MOL   C27333939   6.560   7.302   0.765  0.6133 -0.2739 -0.2250
   94MOL   C27433940   6.435   7.363   0.700  0.3811  0.9021  0.3249
   94MOL   C27533941   6.458   7.405   0.551 -0.4739  0.8170 -0.1740
   94MOL   C27633942   6.335   7.477   0.504 -0.8053  0.2084 -0.1560
   94MOL   C27733943   6.227   7.389   0.439  0.7279 -0.5776 -0.0033
   94MOL   H27833944   6.530   7.418   0.941  0.9020  1.1770 -2.6375
   94MOL   H27933945   6.663   7.314   0.954 -1.1712  1.9227  1.0452
   94MOL   H28033946   6.640   7.369   0.734 -0.8953  2.4467  1.5709
   94MOL   H28133947   6.405   7.454   0.752 -3.3692  1.3336 -2.3535
   94MOL   H28233948   6.340   7.310   0.713 -0.4560  2.3254  0.1077
   94MOL   H28333949   6.477   7.315   0.492 -1.4072  2.1148 -2.5131
   94MOL   H28433950   6.551   7.458   0.532  0.7767 -0.6553  1.6728
   94MOL   H28533951   6.296   7.549   0.577 -1.9860  0.2983 -0.8455
   94MOL   H28633952   6.370   7.552   0.433  0.2097 -1.2387 -1.2068
   94MOL   H28733953   6.175   7.330   0.515  0.8320  0.1188  0.6107
   94MOL   H28833954   6.159   7.452   0.382 -1.9225 -1.8613  1.6397
   94MOL   H28933955   6.275   7.314   0.375 -1.2159 -0.3118 -1.8319
   94MOL   C29033956   6.598   7.159   0.707  0.3846 -0.0690  0.3815
   94MOL   C29133957   6.733   7.114   0.769  0.1258 -0.3187 -0.8436
   94MOL   C29233958   6.731   6.956   0.780 -0.1975  0.0519  0.4562
   94MOL   C29333959   6.835   6.883   0.870 -0.5781  0.0445  0.2865
   94MOL   C29433960   6.812   6.735   0.851  0.2836  0.0635  0.1507
   94MOL   C29533961   6.896   6.652   0.950 -0.5453  0.2383 -0.5184
   94MOL   H29633962   6.600   7.163   0.598  0.0439  2.4814  0.4485
   94MOL   H29733963   6.521   7.084   0.724  2.4836 -2.1097  1.1592
   94MOL   H29833964   6.740   7.131   0.877 -1.0848 -2.8127 -0.3187
   94MOL   H29933965   6.740   6.912   0.680  2.7674 -0.1476  0.7560
   94MOL   H30033966   6.629   6.931   0.808 -0.4274  1.7349  1.1878
   94MOL   H30133967   6.938   6.906   0.844 -0.4399  0.3605  1.1114
   94MOL   H30233968   6.823   6.918   0.973 -1.6859 -1.2064  0.5925
   94MOL   H30333969   6.838   6.705   0.749 -1.0243  0.3423 -0.2679
   94MOL   H30433970   6.710   6.702   0.868  1.1855 -3.7385 -1.2740
   94MOL   H30533971   6.993   6.699   0.971 -1.2449  1.5529 -0.1950
   94MOL   H30633972   6.924   6.550   0.923 -2.1567  0.0503 -1.5364
   94MOL   H30733973   6.849   6.657   1.048 -0.1742 -2.6774 -0.1434
   94MOL   C30833974   6.850   7.157   0.678 -0.8948 -0.3109 -0.1519
   94MOL   C30933975   6.985   7.184   0.759 -0.3285  0.2334 -0.0244
   94MOL   C31033976   6.976   7.305   0.855 -0.0006 -0.0013  0.8468
   94MOL   C31133977   6.948   7.436   0.775 -0.2901 -0.4233  0.5666
   94MOL   C31233978   6.926   7.556   0.863  0.3756  0.3417 -0.5402
   94MOL   C31333979   6.879   7.679   0.794 -0.1385  0.1484  0.2943
   94MOL   H31433980   6.867   7.081   0.601 -0.3420 -1.5794  1.2071
   94MOL   H31533981   6.815   7.242   0.619 -0.7421 -0.2884 -0.2118
   94MOL   H31633982   7.007   7.103   0.829  0.2195 -0.1732 -0.6546
   94MOL   H31733983   7.065   7.310   0.917  0.8308  0.2251 -0.3581
   94MOL   H31833984   6.895   7.305   0.929 -0.7664  0.2656  0.0206
   94MOL   H31933985   6.859   7.421   0.714  1.2113  0.9097 -2.0375
   94MOL   H32033986   7.029   7.464   0.708 -3.0779  3.8155 -1.3138
   94MOL   H32133987   6.856   7.518   0.936 -2.0944  0.3554 -2.8148
   94MOL   H32233988   7.010   7.586   0.926  0.0202  1.9130 -0.7890
   94MOL   H32333989   6.947   7.708   0.715 -0.7711  1.0066  0.0583
   94MOL   H32433990   6.869   0.037   0.862 -1.7538 -0.1118  0.4147
   94MOL   H32533991   6.777   7.659   0.760  0.3763  1.3400 -2.0658
   94MOL   C32633992   7.103   7.190   0.651 -1.4006  0.0321  0.1555
   94MOL   C32733993   7.237   7.166   0.723  0.3867 -0.3496 -0.8906
   94MOL   C32833994   7.283   7.022   0.712 -0.1846  0.8042 -0.6125
   94MOL   C32933995   7.402   6.972   0.801 -0.0055 -0.3398 -0.1741
   94MOL   C33033996   7.357   6.935   0.949  0.6556 -1.0442  0.2326
   94MOL   C33133997   7.481   6.896   1.038  0.9374  0.2646  0.1465
   94MOL   H33233998   7.103   7.281   0.591 -1.1259 -1.4600 -2.1478
   94MOL   H33333999   7.092   7.111   0.577 -3.0733  0.3232  0.0845
   94MOL   H33434000   7.233   7.198   0.828 -2.7982 -0.1328 -1.0139
   94MOL   H33534001   7.199   6.959   0.742  0.6053 -0.5919 -1.3026
   94MOL   H33634002   7.301   6.989   0.610  1.8036  2.0619 -0.6757
   94MOL   H33734003   7.486   7.041   0.808  0.1182 -0.6845  2.4567
   94MOL   H33834004   7.447   6.886   0.753 -2.8109 -1.8435 -0.2183
   94MOL   H33934005   7.291   7.010   0.993  3.2704  2.1732 -1.1986
   94MOL   H34034006   7.284   6.854   0.954 -0.7295  0.1540 -0.1868
   94MOL   H34134007   7.540   6.809   1.008  1.1664  0.3564  0.3317
   94MOL   H34234008   7.435   6.874   1.135 -0.7828 -0.5432 -0.8329
   94MOL   H34334009   7.557   6.972   1.054  0.6072  0.4635  0.7819
   94MOL   C34434010   7.340   7.258   0.673 -0.4060  0.5026 -0.3180
   94MOL   C34534011   7.395   7.235   0.532  0.3184  0.2586  0.3212
   94MOL   C34634012   7.525   7.316   0.506  0.6295  0.0744 -0.2245
   94MOL   C34734013   7.600   7.281   0.378 -0.3468  0.2739  0.1388
   94MOL   C34834014   0.011   7.349   0.354 -0.3858  0.3217 -0.2165
   94MOL   C34934015   0.006   7.497   0.319 -0.8218  0.1291 -0.1745
   94MOL   H35034016   7.317   7.362   0.698  0.9173  0.5572  0.7543
   94MOL   H35134017   7.432   7.247   0.731  0.7402  1.6917 -1.8549
   94MOL   H35234018   7.312   7.244   0.462  0.7228 -0.4188 -0.2537
   94MOL   H35334019   7.493   7.421   0.503  1.1618  0.2381 -0.2037
   94MOL   H35434020   7.586   7.307   0.595  2.0305 -0.3925 -1.2239
   94MOL   H35534021   7.622   7.175   0.392 -1.0456  0.2194  0.8717
   94MOL   H35634022   7.533   7.285   0.293  2.3217 -1.5915 -2.1605
   94MOL   H35734023   0.072   7.348   0.445 -2.4060 -0.5443  1.1783
   94MOL   H35834024   0.062   7.291   0.278 -0.9313  0.0183 -0.3490
   94MOL   H35934025   7.672   7.510   0.229  1.5884 -0.3201 -1.9437
   94MOL   H36034026   7.694   7.555   0.402 -0.0489  1.2709 -0.5989
   94MOL   H36134027   0.106   7.529   0.291 -0.8861  0.2991 -0.2129
   94MOL   H36234028   7.426   7.131   0.516  2.6425  0.8060  1.1149
   95MOL     C134029   2.496   5.538   1.387 -0.2920 -0.3940 -0.0483
   95MOL     C234030   2.586   5.439   1.313 -0.1297 -0.1168 -0.1416
   95MOL     C334031   2.650   5.345   1.418  0.1467 -0.0718 -0.4429
   95MOL     C434032   2.551   5.230   1.447  0.1359 -0.1780  0.8721
   95MOL     C534033   2.606   5.121   1.537 -0.1445  0.0676 -0.5161
   95MOL     C634034   2.731   5.054   1.476 -0.3369 -0.0234  0.7576
   95MOL     H734035   2.544   5.592   1.468 -2.1873 -0.0496  0.8629
   95MOL     H834036   2.456   5.601   1.308  0.8046  1.0850  0.5713
   95MOL     H934037   2.523   5.378   1.249  0.4574 -0.5879 -0.2669
   95MOL    H1034038   2.690   5.396   1.506 -0.0340 -1.8510  0.6872
   95MOL    H1134039   2.735   5.302   1.365 -0.0676  1.5532 -2.1314
   95MOL    H1234040   2.507   5.182   1.360 -0.1628  1.9500 -0.1803
   95MOL    H1334041   2.468   5.283   1.495  0.3448  0.6510  0.3365
   95MOL    H1434042   2.646   5.167   1.627  0.6476  0.0237 -0.8328
   95MOL    H1534043   2.539   5.040   1.566  0.3947  0.2027  1.1764
   95MOL    H1634044   2.809   5.130   1.468  1.1128 -1.6599 -1.1829
   95MOL    H1734045   2.719   5.023   1.372 -2.0860 -0.2009  0.9937
   95MOL    H1834046   2.771   4.970   1.533  0.0422 -1.4184 -1.5297
   95MOL    H1934047   2.408   5.491   1.432 -1.9510  2.3704 -0.3132
   95MOL    C2034048   2.697   5.512   1.237 -0.5116 -0.2177  0.1542
   95MOL    C2134049   2.699   5.489   1.080 -0.3109 -0.1130 -0.1006
   95MOL    C2234050   2.585   5.555   0.999  1.1476 -0.1635  0.3669
   95MOL    C2334051   2.513   5.453   0.919  0.5217 -0.4333  0.7369
   95MOL    C2434052   2.403   5.499   0.820  0.6561 -0.0091  0.7187
   95MOL    C2534053   2.328   5.378   0.749  0.7448  0.2673  0.5354
   95MOL    H2634054   2.793   5.512   1.287 -0.0653  1.9251 -0.6687
   95MOL    H2734055   2.667   5.616   1.245  1.1874  0.2641  0.3302
   95MOL    H2834056   2.695   5.382   1.058 -0.2996 -0.1051 -0.1416
   95MOL    H2934057   2.617   5.639   0.938 -0.3917 -0.6125 -1.1084
   95MOL    H3034058   2.515   5.608   1.064  0.4535 -1.2353  0.5216
   95MOL    H3134059   2.482   5.379   0.993 -2.3829  1.6416  1.6771
   95MOL    H3234060   2.590   5.402   0.862  2.3285  2.3721  0.5965
   95MOL    H3334061   2.334   5.568   0.869 -0.2622  0.6342 -1.4510
   95MOL    H3434062   2.450   5.564   0.747  1.2423 -0.5396  0.6144
   95MOL    H3534063   2.382   5.328   0.669 -0.7307  0.1736 -0.4249
   95MOL    H3634064   2.280   5.303   0.812 -1.3273 -0.1729 -1.5050
   95MOL    H3734065   2.253   5.424   0.685  0.7670  1.7812  1.5794
   95MOL    C3834066   2.841   5.534   1.017  0.4726  0.4003 -0.1538
   95MOL    C3934067   2.974   5.485   1.078 -0.0039  0.1926  0.1887
   95MOL    C4034068   2.973   5.332   1.087  0.2627  0.2159 -0.5587
   95MOL    C4134069   2.972   5.251   0.955 -1.0601  0.1661 -0.1295
   95MOL    C4234070   2.947   5.098   0.956 -0.2361 -0.3638  0.3595
   95MOL    C4334071   2.977   5.030   0.821 -0.4448 -0.1098 -0.1197
   95MOL    H4434072   2.837   5.642   1.030 -2.6050  0.7064 -3.0535
   95MOL    H4534073   2.844   5.509   0.911 -1.4430 -1.8702  0.2852
   95MOL    H4634074   2.980   5.522   1.180  0.1150  0.8128 -0.0429
   95MOL    H4734075   3.051   5.301   1.156  0.3525  1.1973 -0.2073
   95MOL    H4834076   2.883   5.298   1.137  0.2773 -0.5782 -1.0629
   95MOL    H4934077   2.906   5.296   0.880  1.1271  0.6633 -1.8265
   95MOL    H5034078   3.065   5.264   0.901 -2.9395  2.2097 -3.0703
   95MOL    H5134079   3.002   5.056   1.041 -0.6876  0.7911  1.2330
   95MOL    H5234080   2.844   5.082   0.986 -0.3515 -1.2480 -0.4882
   95MOL    H5334081   3.083   5.043   0.797 -0.0792  0.9906  1.8993
   95MOL    H5434082   2.923   5.090   0.748 -1.5950 -0.9584  0.0167
   95MOL    H5534083   2.942   4.928   0.811 -0.6487 -0.1740  1.1884
   95MOL    C5634084   3.089   5.541   0.992  0.2970  0.1490 -0.2702
   95MOL    C5734085   3.166   5.667   1.038  0.9123  0.5006 -0.1893
   95MOL    C5834086   3.244   5.643   1.174 -0.6501 -0.6699 -0.1555
   95MOL    C5934087   3.360   5.539   1.161 -0.0758  0.3595 -0.1503
   95MOL    C6034088   3.410   5.492   1.295 -0.0693 -0.8015 -0.1620
   95MOL    C6134089   3.328   5.399   1.380  0.8857  0.7371 -0.5323
   95MOL    H6234090   3.162   5.462   0.978 -0.7408 -0.7318 -0.7829
   95MOL    H6334091   3.057   5.553   0.889  0.5151  2.3066 -0.1107
   95MOL    H6434092   3.240   5.691   0.962  1.0226 -1.4392 -0.7163
   95MOL    H6534093   3.289   5.739   1.197  1.8157 -1.8633  0.1731
   95MOL    H6634094   3.173   5.613   1.251 -0.2269 -0.2054  0.4113
   95MOL    H6734095   3.441   5.594   1.114  0.1137  1.7415  1.7807
   95MOL    H6834096   3.337   5.451   1.101  0.3830 -0.1872  0.4716
   95MOL    H6934097   3.512   5.455   1.286 -0.3482 -1.1322 -2.2779
   95MOL    H7034098   3.428   5.581   1.355 -2.4378 -0.6582  0.3494
   95MOL    H7134099   3.371   5.387   1.480  0.4478  1.5237 -0.2446
   95MOL    H7234100   3.234   5.449   1.399  0.4793 -0.2173 -0.0161
   95MOL    H7334101   3.312   5.300   1.337 -3.3798  0.8917  0.5174
   95MOL    C7434102   3.071   5.784   1.039 -0.1230 -0.0921 -0.2053
   95MOL    C7534103   3.137   5.922   1.045  0.4573 -0.5188 -0.4877
   95MOL    C7634104   3.224   5.962   0.916  0.1642 -0.3109  0.1795
   95MOL    C7734105   3.361   6.036   0.931 -0.4706 -0.2614 -0.0168
   95MOL    C7834106   3.407   6.122   0.807 -0.1536 -0.3792  0.1079
   95MOL    C7934107   3.539   6.205   0.815  0.9938  0.0007 -0.2981
   95MOL    H8034108   2.995   5.774   0.961 -0.5768  0.8399  0.1023
   95MOL    H8134109   3.010   5.781   1.129 -1.4262  0.4343 -1.0490
   95MOL    H8234110   3.205   5.928   1.129 -0.0823  0.0662 -0.0916
   95MOL    H8334111   3.236   5.873   0.854  0.6407  0.1200 -0.3628
   95MOL    H8434112   3.155   6.027   0.862 -0.2946 -1.8015 -1.0591
   95MOL    H8534113   3.352   6.098   1.021  3.6271 -0.0575  0.3320
   95MOL    H8634114   3.433   5.955   0.942 -0.9698 -0.7992 -0.6861
   95MOL    H8734115   3.326   6.192   0.785  0.8744  0.7632 -0.1213
   95MOL    H8834116   3.410   6.061   0.717 -1.1966  0.9969 -0.8758
   95MOL    H8934117   3.538   6.261   0.908  0.3458  0.9940 -0.9006
   95MOL    H9034118   3.625   6.138   0.818  0.5267 -0.5485  1.4198
   95MOL    H9134119   3.558   6.265   0.726 -3.4035  0.1963 -1.1836
   95MOL    C9234120   3.042   6.038   1.087 -0.4681  0.0273  0.9796
   95MOL    C9334121   3.046   6.079   1.242  0.6128 -0.0708  0.3224
   95MOL    C9434122   3.006   5.967   1.333  0.4696  0.6034  0.0437
   95MOL    C9534123   2.979   5.999   1.475  0.4129 -0.0008 -0.1881
   95MOL    C9634124   2.919   5.871   1.539  0.2208  0.1634  0.2067
   95MOL    C9734125   2.842   5.904   1.664 -0.1477 -0.6209  0.5130
   95MOL    H9834126   3.068   6.127   1.031 -0.7684 -0.1940  0.4875
   95MOL    H9934127   2.938   6.034   1.053 -0.3350 -0.1282  0.5877
   95MOL   H10034128   2.965   6.152   1.243 -0.1587 -0.9038 -0.3842
   95MOL   H10134129   3.070   5.879   1.336 -1.3854 -0.8336 -1.2130
   95MOL   H10234130   2.911   5.938   1.287 -0.7088  0.7120  2.3168
   95MOL   H10334131   3.061   6.039   1.535 -0.4725  0.3986  0.7656
   95MOL   H10434132   2.901   6.074   1.484  0.0176 -0.1648 -2.0118
   95MOL   H10534133   2.844   5.822   1.476 -1.4339  1.1860  1.3583
   95MOL   H10634134   2.996   5.797   1.561  1.9153  1.5710 -0.9306
   95MOL   H10734135   2.792   5.812   1.695 -0.9720  0.8148  3.5670
   95MOL   H10834136   2.916   5.928   1.740  0.6701 -1.3833 -0.0280
   95MOL   H10934137   2.771   5.982   1.639  1.2354  0.1959 -0.9543
   95MOL   C11034138   3.177   6.142   1.298  0.1528  0.4308 -0.0769
   95MOL   C11134139   3.161   6.280   1.355  0.1748 -0.0553  0.3352
   95MOL   C11234140   3.093   6.391   1.259 -0.1733 -0.4321  0.4730
   95MOL   C11334141   3.166   6.430   1.134 -0.4250 -0.0911  0.8029
   95MOL   C11434142   3.101   6.547   1.067 -0.3557 -0.2856 -0.5882
   95MOL   C11534143   2.983   6.499   0.976 -0.1926  0.5841 -0.0157
   95MOL   H11634144   3.218   6.066   1.364 -1.1664 -0.3753 -0.1560
   95MOL   H11734145   3.245   6.146   1.213 -1.0273 -2.2140 -1.1837
   95MOL   H11834146   3.084   6.269   1.431  1.9407  1.2399  2.3822
   95MOL   H11934147   3.077   6.479   1.321  0.8751 -1.1930  1.8622
   95MOL   H12034148   2.989   6.362   1.242 -0.2293 -0.3818  0.7345
   95MOL   H12134149   3.166   6.349   1.061 -0.1421 -0.1715  0.8895
   95MOL   H12234150   3.268   6.463   1.154 -0.3370  0.7009 -0.8957
   95MOL   H12334151   3.166   6.610   1.007  1.0464  1.0029  2.1729
   95MOL   H12434152   3.073   6.623   1.141 -0.0004  0.7648 -1.5210
   95MOL   H12534153   3.022   6.450   0.886  1.2763 -0.0901  0.9658
   95MOL   H12634154   2.917   6.429   1.028  1.1643 -1.4110 -0.9248
   95MOL   H12734155   2.932   6.591   0.948 -1.7548 -0.0423  0.7229
   95MOL   C12834156   3.291   6.336   1.423  0.3548  0.2562 -0.4513
   95MOL   C12934157   3.366   6.252   1.525 -0.2975 -0.0899 -0.2755
   95MOL   C13034158   3.302   6.264   1.663 -0.3819  0.3608 -0.4103
   95MOL   C13134159   3.342   6.164   1.771 -0.4674  0.0517 -0.6056
   95MOL   C13234160   3.270   6.202   1.903  0.5365 -0.0231  0.4555
   95MOL   C13334161   3.271   6.088   2.002 -0.6419 -0.6804 -0.5831
   95MOL   H13434162   3.276   6.433   1.471  1.5612  0.3372 -0.2082
   95MOL   H13534163   3.360   6.355   1.341  1.1552 -2.3023 -0.4305
   95MOL   H13634164   3.354   6.149   1.492 -1.2460  0.0142 -0.2661
   95MOL   H13734165   3.315   6.369   1.692  0.3328  0.7494 -2.0236
   95MOL   H13834166   3.195   6.248   1.654 -0.3111 -1.7952  2.1392
   95MOL   H13934167   3.450   6.173   1.785 -0.6864  1.4803  0.1754
   95MOL   H14034168   3.332   6.058   1.747 -0.3611 -0.3834  1.1992
   95MOL   H14134169   3.315   6.288   1.952  1.4651  0.1808 -0.7237
   95MOL   H14234170   3.169   6.241   1.890 -0.1127 -1.8430 -0.1729
   95MOL   H14334171   3.365   6.087   2.056 -1.7104  2.3476  1.4724
   95MOL   H14434172   3.264   5.990   1.955 -2.3119  0.0615 -1.9560
   95MOL   H14534173   3.188   6.101   2.071  0.5483 -0.9552  0.9222
   95MOL   C14634174   3.518   6.284   1.547  0.4298 -0.4261  0.0106
   95MOL   C14734175   3.606   6.303   1.419  1.0160  0.1552 -0.3812
   95MOL   C14834176   3.606   6.183   1.323 -0.3885 -0.8086 -0.3080
   95MOL   C14934177   3.639   6.053   1.396 -0.3239 -0.6108  0.2464
   95MOL   C15034178   3.690   5.945   1.306 -0.0925 -0.0353 -0.3333
   95MOL   C15134179   3.596   5.883   1.201 -0.5528 -0.7833  0.8044
   95MOL   H15234180   3.526   6.374   1.608  0.7009 -0.4168 -0.0395
   95MOL   H15334181   3.565   6.202   1.602 -2.6491 -1.7048  0.8594
   95MOL   H15434182   3.569   6.387   1.361  0.8070 -0.1471 -0.6929
   95MOL   H15534183   3.682   6.203   1.247 -2.4481  2.6663 -1.5869
   95MOL   H15634184   3.507   6.182   1.279 -1.2273 -0.6312  1.5417
   95MOL   H15734185   3.696   6.057   1.489 -1.3110 -1.7425  0.9108
   95MOL   H15834186   3.543   6.017   1.434  0.3829 -1.6612  1.0936
   95MOL   H15934187   3.710   5.863   1.374  1.6191  0.7373  0.1239
   95MOL   H16034188   3.789   5.968   1.268 -0.0005 -0.8317 -0.5912
   95MOL   H16134189   3.607   5.936   1.107  0.4999 -1.0468  0.7632
   95MOL   H16234190   3.642   5.784   1.194  0.4040 -0.2745 -0.2146
   95MOL   H16334191   3.492   5.863   1.227 -1.2453 -0.1015 -1.3406
   95MOL   C16434192   3.745   6.329   1.464 -0.5524 -0.5117  0.0237
   95MOL   C16534193   3.851   6.392   1.363  0.1940  0.2506 -0.0601
   95MOL   C16634194   3.800   6.518   1.289  0.2224 -0.3414  0.3928
   95MOL   C16734195   3.736   6.495   1.155 -0.0382 -0.6630  0.4765
   95MOL   C16834196   3.648   6.610   1.106  0.4693 -0.2673  0.3586
   95MOL   C16934197   3.615   6.582   0.959 -0.5560 -0.3041  0.5580
   95MOL   H17034198   3.723   6.408   1.536 -3.8839 -1.6624  0.3524
   95MOL   H17134199   3.800   6.255   1.522  0.7747  0.1259 -0.4036
   95MOL   H17234200   3.877   6.315   1.291  1.2367 -0.3050  0.9053
   95MOL   H17334201   3.877   6.592   1.268 -0.9471  0.6034 -0.6491
   95MOL   H17434202   3.723   6.564   1.351  0.8834 -0.8512  1.6113
   95MOL   H17534203   3.674   6.405   1.145 -0.8474  0.1152 -1.6761
   95MOL   H17634204   3.821   6.473   1.091  0.7165  2.0240  0.5123
   95MOL   H17734205   3.700   6.704   1.124  0.4809 -0.1603 -0.2149
   95MOL   H17834206   3.557   6.603   1.166 -1.2424 -1.1482 -2.2531
   95MOL   H17934207   3.703   6.551   0.902 -1.1698 -0.5148 -0.2842
   95MOL   H18034208   3.568   6.673   0.921 -1.0086  1.0818  4.2998
   95MOL   H18134209   3.551   6.494   0.950  1.1000 -1.6252  1.2935
   95MOL   C18234210   3.988   6.421   1.424 -0.1371 -0.3510  0.2096
   95MOL   C18334211   4.077   6.299   1.449  0.2302 -0.5409 -0.5488
   95MOL   C18434212   4.172   6.321   1.574  0.9638 -0.1010 -0.3239
   95MOL   C18534213   4.102   6.327   1.709  0.6168  0.0614 -0.1714
   95MOL   C18634214   4.192   6.275   1.819 -0.0391  0.8309 -0.2892
   95MOL   C18734215   4.142   6.296   1.962  0.6216  0.0737 -0.8157
   95MOL   H18834216   4.045   6.490   1.362 -1.2757  1.3977  1.0860
   95MOL   H18934217   3.972   6.482   1.512 -2.0849 -1.2317  0.4851
   95MOL   H19034218   4.015   6.216   1.482  0.7947 -0.6785  0.1808
   95MOL   H19134219   4.231   6.230   1.579  0.9902 -0.0775 -0.2030
   95MOL   H19234220   4.247   6.397   1.552  0.2811  0.7084  0.1084
   95MOL   H19334221   4.007   6.275   1.715  0.8211 -0.0562  2.5738
   95MOL   H19434222   4.059   6.422   1.743  0.6002  0.3501 -0.9835
   95MOL   H19534223   4.290   6.322   1.815 -0.0133  1.2883  3.5075
   95MOL   H19634224   4.210   6.170   1.797  0.6750  0.8541  0.1847
   95MOL   H19734225   4.228   6.287   2.029  1.3467  1.6244 -1.5144
   95MOL   H19834226   4.057   6.235   1.991  1.5117 -1.2687 -0.9462
   95MOL   H19934227   4.106   6.398   1.969  2.2356  0.6825 -1.0572
   95MOL   C20034228   4.153   6.265   1.322  0.2571  0.3060 -0.5316
   95MOL   C20134229   4.208   6.123   1.317  0.8492 -0.1334 -0.2210
   95MOL   C20234230   4.095   6.018   1.310  0.8134 -0.0246  0.4591
   95MOL   C20334231   4.149   5.877   1.305 -0.0027  0.9312  0.3526
   95MOL   C20434232   4.041   5.765   1.325 -0.2701  0.2559  0.9235
   95MOL   C20534233   3.988   5.751   1.471 -0.6983 -0.5199  0.8626
   95MOL   H20634234   4.226   6.346   1.327  0.2251  0.3215 -0.3267
   95MOL   H20734235   4.092   6.286   1.234  0.6139  0.7455 -0.6800
   95MOL   H20834236   4.244   6.099   1.417 -0.3869  1.8111  0.7221
   95MOL   H20934237   4.038   6.040   1.221 -0.4740 -0.9016  1.0520
   95MOL   H21034238   4.032   6.028   1.398 -0.8446  1.4666 -0.8769
   95MOL   H21134239   4.232   5.860   1.373  0.6157  0.6931 -0.4486
   95MOL   H21234240   4.197   5.856   1.209 -1.0472  0.2746 -0.0356
   95MOL   H21334241   4.080   5.669   1.291  1.2251  1.5292 -1.0968
   95MOL   H21434242   3.958   5.780   1.256  0.3267  1.7027  0.5112
   95MOL   H21534243   4.076   5.743   1.534 -1.5205  0.0896  2.0945
   95MOL   H21634244   3.923   5.835   1.496  1.0269  0.6255  1.5924
   95MOL   H21734245   3.925   5.663   1.480 -0.8897 -0.3780  0.9215
   95MOL   C21834246   4.316   6.113   1.203  0.1709 -0.2719 -0.4676
   95MOL   C21934247   4.461   6.157   1.247  0.2805 -0.7964  0.5101
   95MOL   C22034248   4.539   6.210   1.117  0.1689  0.1053 -0.0213
   95MOL   C22134249   4.521   6.357   1.091  0.1132 -0.4270 -0.6047
   95MOL   C22234250   4.625   6.426   0.992  0.7639 -0.3683 -0.1650
   95MOL   C22334251   4.611   6.575   0.982 -0.8582  0.5119 -0.6112
   95MOL   H22434252   4.333   6.011   1.169 -2.8489 -1.0117  0.1366
   95MOL   H22534253   4.279   6.159   1.112 -0.3252  0.5800  0.1505
   95MOL   H22634254   4.451   6.230   1.327  0.0240 -0.3405  0.0732
   95MOL   H22734255   4.513   6.162   1.022  2.6870  0.6910 -1.0400
   95MOL   H22834256   4.646   6.192   1.124  0.0309 -1.7402 -1.8842
   95MOL   H22934257   4.533   6.406   1.188 -0.0993  1.1226 -1.3497
   95MOL   H23034258   4.417   6.375   1.063  0.3962 -0.6652 -1.8358
   95MOL   H23134259   4.721   6.405   1.039 -0.7217 -2.4526  2.0965
   95MOL   H23234260   4.627   6.385   0.891  3.5308  0.0845 -0.3436
   95MOL   H23334261   4.513   6.606   0.946 -0.6809  1.5700 -0.2026
   95MOL   H23434262   4.688   6.622   0.921  2.5983 -1.0830  2.3642
   95MOL   H23534263   4.621   6.625   1.078  1.5285  1.4128 -1.2718
   95MOL   C23634264   4.552   6.043   1.303 -0.0842 -0.3039  0.4313
   95MOL   C23734265   4.659   6.086   1.394  0.1689  0.0882  0.0336
   95MOL   C23834266   4.780   6.007   1.383 -0.0360 -0.7211  0.0359
   95MOL   C23934267   4.868   6.016   1.255  0.8481  0.4912  0.2544
   95MOL   C24034268   4.972   5.907   1.258  0.2624  0.1172  0.3875
   95MOL   C24134269   4.915   5.766   1.223 -0.1641 -0.3886  0.1907
   95MOL   H24234270   4.495   5.967   1.356  1.1537 -2.1335 -0.8139
   95MOL   H24334271   4.592   5.995   1.213  0.0970  0.1809  0.2517
   95MOL   H24434272   4.693   6.185   1.366  0.4456 -0.6691 -2.5166
   95MOL   H24534273   4.839   6.027   1.472  0.0186  1.0645 -0.3843
   95MOL   H24634274   4.748   5.906   1.410  1.5049 -2.4208 -4.0956
   95MOL   H24734275   4.915   6.113   1.242  0.3150  0.8208  0.7541
   95MOL   H24834276   4.810   6.005   1.164 -1.5831  0.5984  1.7360
   95MOL   H24934277   5.058   5.928   1.195  0.1019 -0.6962 -0.0984
   95MOL   H25034278   5.020   5.895   1.356 -0.2502 -1.1425  0.4944
   95MOL   H25134279   4.875   5.768   1.121 -0.6896  1.6768  0.4172
   95MOL   H25234280   4.980   5.679   1.224 -1.1898 -1.1774 -0.3388
   95MOL   H25334281   4.841   5.731   1.295 -2.3763 -0.0035 -1.8361
   95MOL   C25434282   4.606   6.100   1.540  0.2267 -0.3461  0.7875
   95MOL   C25534283   4.672   6.197   1.642  0.1481  0.3843  0.1669
   95MOL   C25634284   4.639   6.170   1.789 -0.9329 -0.2926  0.1703
   95MOL   C25734285   4.699   6.040   1.838 -1.1797 -0.3166 -0.4469
   95MOL   C25834286   4.677   6.010   1.990 -0.0810 -0.1406  0.0401
   95MOL   C25934287   4.706   5.867   2.029 -0.5294  0.0251  0.1116
   95MOL   H26034288   4.604   5.998   1.577  3.5369 -0.7593  0.0379
   95MOL   H26134289   4.501   6.128   1.545  0.6754  1.4735  0.5567
   95MOL   H26234290   4.779   6.204   1.623  0.1856 -1.7360 -0.5073
   95MOL   H26334291   4.685   6.254   1.840  1.9139 -0.8492 -1.4127
   95MOL   H26434292   4.531   6.177   1.804 -1.1485  1.2006 -1.8917
   95MOL   H26534293   4.653   5.958   1.783  0.4555 -1.9072  0.5255
   95MOL   H26634294   4.804   6.047   1.811 -1.4546  2.1229 -0.9885
   95MOL   H26734295   4.576   6.031   2.024  0.6421 -0.2410  2.3824
   95MOL   H26834296   4.733   6.083   2.050  2.8473 -1.8575 -0.5040
   95MOL   H26934297   4.656   5.800   1.959 -0.2659  0.5492 -0.5753
   95MOL   H27034298   4.676   5.834   2.129 -0.1031 -0.3653  0.1127
   95MOL   H27134299   4.814   5.856   2.033 -0.6208 -0.8104  0.4796
   95MOL   C27234300   4.630   6.342   1.599  0.5887 -0.2481  0.2674
   95MOL   C27334301   4.730   6.457   1.604  0.1564  0.0720  0.1473
   95MOL   C27434302   4.773   6.502   1.743  0.5061  0.2687 -1.0045
   95MOL   C27534303   4.657   6.561   1.824  0.1568 -0.4061  0.3155
   95MOL   C27634304   4.705   6.627   1.944  0.3940 -0.3494  0.0761
   95MOL   C27734305   4.599   6.678   2.043  0.0687  0.3282  0.0166
   95MOL   H27834306   4.598   6.340   1.494  0.9727 -1.2232  0.1605
   95MOL   H27934307   4.546   6.376   1.658 -0.3987 -3.0206  0.5216
   95MOL   H28034308   4.821   6.416   1.560 -0.7844  0.3757 -2.1495
   95MOL   H28134309   4.849   6.578   1.728 -0.0101  0.7040 -1.4437
   95MOL   H28234310   4.813   6.417   1.798 -3.2793 -1.1177 -0.2677
   95MOL   H28334311   4.588   6.484   1.858 -0.0230 -0.4827 -0.2308
   95MOL   H28434312   4.595   6.634   1.773  1.8799  0.0143 -1.2382
   95MOL   H28534313   4.760   6.551   1.999 -0.3147 -0.7499  0.2301
   95MOL   H28634314   4.774   6.709   1.921  0.1985 -0.3534 -0.5340
   95MOL   H28734315   4.647   6.673   2.141  0.2155  0.8275 -0.0256
   95MOL   H28834316   4.578   6.784   2.029 -0.3428  0.7103  3.0764
   95MOL   H28934317   4.505   6.624   2.048  1.4466 -2.1374  0.1830
   95MOL   C29034318   4.680   6.575   1.505 -0.5444 -0.8692  0.5830
   95MOL   C29134319   4.782   6.682   1.472  0.0866  0.5815  0.2781
   95MOL   C29234320   4.912   6.624   1.414  0.5385 -0.5332  0.5263
   95MOL   C29334321   4.900   6.532   1.289  0.6337 -0.1342 -0.1317
   95MOL   C29434322   5.039   6.475   1.239  0.4775 -0.1775 -0.3280
   95MOL   C29534323   5.027   6.387   1.112 -0.6961 -1.2829  0.2108
   95MOL   H29634324   4.586   6.609   1.549 -1.2842 -2.5796  0.3443
   95MOL   H29734325   4.658   6.526   1.410  0.3265  1.2341 -0.7501
   95MOL   H29834326   4.799   6.736   1.565  2.8660  0.9044 -0.3467
   95MOL   H29934327   4.965   6.565   1.489  1.3264 -2.4470 -1.4972
   95MOL   H30034328   4.976   6.707   1.386  3.2012 -2.5639  0.3937
   95MOL   H30134329   4.829   6.454   1.316 -0.7215  1.0188 -0.2636
   95MOL   H30234330   4.846   6.581   1.208 -3.5906 -0.6148  2.2657
   95MOL   H30334331   5.082   6.417   1.321 -0.4059 -0.4479 -0.0519
   95MOL   H30434332   5.110   6.556   1.222 -0.5925  0.4644 -1.8014
   95MOL   H30534333   4.995   6.449   1.028  0.3227 -0.7374  0.2081
   95MOL   H30634334   4.952   6.308   1.120 -0.6991 -1.2987  0.0174
   95MOL   H30734335   5.125   6.353   1.078 -1.0215 -0.8415 -1.1861
   95MOL   C30834336   4.725   6.802   1.385 -0.7035 -1.3282 -0.9178
   95MOL   C30934337   4.783   6.947   1.409  0.3445 -0.3861  0.0623
   95MOL   C31034338   4.913   6.978   1.339 -0.5224  0.1038 -0.0252
   95MOL   C31134339   4.921   6.944   1.191 -0.1811 -0.0741 -0.4429
   95MOL   C31234340   5.069   6.969   1.143  0.0438  0.6754 -0.2175
   95MOL   C31334341   5.073   6.983   0.988  0.0149  0.4983  1.1454
   95MOL   H31434342   4.716   6.774   1.280  1.6219 -0.0789 -1.4801
   95MOL   H31534343   4.625   6.820   1.424 -0.5950 -1.3084 -0.6482
   95MOL   H31634344   4.706   7.011   1.368 -0.2483 -0.3782  1.1723
   95MOL   H31734345   4.995   6.938   1.399 -0.4349 -1.4671 -1.1706
   95MOL   H31834346   4.915   7.087   1.341  0.8218  0.0778  0.5172
   95MOL   H31934347   4.845   6.996   1.133  0.8433  1.5243 -0.4012
   95MOL   H32034348   4.919   6.837   1.170 -0.4868 -0.1787  0.1210
   95MOL   H32134349   5.109   7.062   1.185 -3.2381  1.5188  1.1981
   95MOL   H32234350   5.138   6.892   1.179  0.8168  1.2917 -0.3556
   95MOL   H32334351   5.166   7.006   0.937 -0.9925 -1.0458 -1.4593
   95MOL   H32434352   5.014   7.071   0.963  1.5108  1.1862  0.0094
   95MOL   H32534353   5.025   6.902   0.934 -1.6942  2.0627  0.2721
   95MOL   C32634354   4.789   6.994   1.552 -0.0379 -0.3511  0.1249
   95MOL   C32734355   4.661   6.981   1.641 -0.0589 -0.3456  0.1183
   95MOL   C32834356   4.706   6.991   1.787  0.3029 -0.4717  0.4923
   95MOL   C32934357   4.766   7.125   1.834 -0.5523 -0.3848 -0.3041
   95MOL   C33034358   4.838   7.103   1.967  0.4617 -0.1831 -0.4357
   95MOL   C33134359   4.740   7.154   2.069  0.2290  0.0416 -0.2820
   95MOL   H33234360   4.823   7.097   1.561  1.1689 -0.7625  0.3925
   95MOL   H33334361   4.876   6.939   1.588  0.4926 -0.0005 -0.6064
   95MOL   H33434362   4.613   6.883   1.636  0.3474 -0.5706  0.5461
   95MOL   H33534363   4.629   6.957   1.856 -1.7732  0.0641 -1.5052
   95MOL   H33634364   4.776   6.908   1.801 -0.5090 -1.1785  0.3710
   95MOL   H33734365   4.687   7.199   1.845  0.9118  1.0528  0.8147
   95MOL   H33834366   4.835   7.178   1.767  0.3058  2.1712  2.4747
   95MOL   H33934367   4.860   7.001   1.996  1.3298  0.5303  1.5097
   95MOL   H34034368   4.929   7.163   1.961  0.0717  0.3791 -0.8038
   95MOL   H34134369   4.774   7.139   2.171  0.6312 -1.8286 -0.6778
   95MOL   H34234370   4.649   7.095   2.060 -0.4407  0.8783  0.8795
   95MOL   H34334371   4.715   7.260   2.059 -0.2363 -0.1927 -1.6385
   95MOL   C34434372   4.551   7.081   1.607  0.1089  0.3674  0.5150
   95MOL   C34534373   4.417   7.061   1.680 -0.0754  0.2575  0.0581
   95MOL   C34634374   4.312   7.169   1.633 -0.4648 -1.0492  0.0246
   95MOL   C34734375   4.169   7.135   1.681 -0.0282 -0.0218  0.1886
   95MOL   C34834376   4.086   7.261   1.691  0.0343  0.2331  0.4387
   95MOL   C34934377   4.039   7.327   1.563  0.2615 -0.5307  0.2010
   95MOL   H35034378   4.597   7.178   1.628  1.4716  0.1595 -1.3773
   95MOL   H35134379   4.537   7.066   1.500  0.7403 -2.3048  0.7675
   95MOL   H35234380   4.438   7.067   1.787 -0.4429  1.8496  0.0564
   95MOL   H35334381   4.337   7.267   1.673 -2.4863 -0.5903  0.2231
   95MOL   H35434382   4.301   7.186   1.526 -1.3951 -0.2181  0.2406
   95MOL   H35534383   4.117   7.068   1.612 -1.9050  0.6420  0.9241
   95MOL   H35634384   4.177   7.087   1.778  1.9035 -0.7338 -0.3007
   95MOL   H35734385   3.991   7.226   1.729 -0.2931  0.2555 -0.3389
   95MOL   H35834386   4.130   7.334   1.759 -0.4453 -0.6781  1.7339
   95MOL   H35934387   3.982   7.419   1.580 -1.4091 -1.7743  1.5439
   95MOL   H36034388   4.125   7.355   1.503  0.5138 -0.5777  0.5442
   95MOL   H36134389   3.973   7.269   1.498 -0.4002  1.4163 -0.9208
   95MOL   H36234390   4.384   6.960   1.656 -0.5018  0.5398 -0.5578
   96MOL     C134391   3.782   5.223   5.840 -0.0967 -0.1943  0.5327
   96MOL     C234392   3.748   5.362   5.790 -0.3062  0.2807  0.0150
   96MOL     C334393   3.832   5.473   5.857 -0.0540  0.2306 -0.2792
   96MOL     C434394   3.983   5.473   5.819  0.5135  0.2894  0.5737
   96MOL     C534395   4.059   5.589   5.890  0.6949 -0.7248 -0.3700
   96MOL     C634396   4.209   5.606   5.872 -0.1447  0.0075  0.3302
   96MOL     H734397   3.736   5.146   5.778  2.1081  0.4889 -2.0902
   96MOL     H834398   3.889   5.202   5.844  0.0676  0.3139 -0.7277
   96MOL     H934399   3.771   5.364   5.684 -2.5618 -0.5276 -0.5209
   96MOL    H1034400   3.828   5.461   5.965  1.4683 -2.3974 -0.4773
   96MOL    H1134401   3.795   5.572   5.830 -0.4844  0.2136  0.2229
   96MOL    H1234402   3.987   5.483   5.710  1.8493 -0.8434  0.4947
   96MOL    H1334403   4.022   5.376   5.850 -1.8663 -0.2832  1.8119
   96MOL    H1434404   4.014   5.675   5.839  0.3047 -0.7300 -0.0363
   96MOL    H1534405   4.022   5.600   5.992  1.2557 -1.7661 -0.0587
   96MOL    H1634406   4.248   5.505   5.884 -0.2407  0.0938  1.3723
   96MOL    H1734407   4.256   5.686   5.929 -1.0102  1.4418 -0.9308
   96MOL    H1834408   4.248   5.616   5.770 -1.2909  1.6807  0.0464
   96MOL    H1934409   3.731   5.201   5.933  1.2156  0.6599  1.4630
   96MOL    C2034410   3.598   5.386   5.795 -0.0546  0.1416  0.1621
   96MOL    C2134411   3.533   5.520   5.744 -0.5274 -0.1597 -0.1599
   96MOL    C2234412   3.590   5.561   5.608 -0.0872  0.1472 -0.1219
   96MOL    C2334413   3.577   5.465   5.485 -0.2737 -0.3347 -0.1558
   96MOL    C2434414   3.653   5.498   5.351 -0.9574 -0.3256  0.2435
   96MOL    C2534415   3.808   5.483   5.358 -0.0261  0.2846  0.6345
   96MOL    H2634416   3.565   5.368   5.897 -3.6309  1.5969 -0.6748
   96MOL    H2734417   3.554   5.302   5.741  0.2793 -0.9826  1.6161
   96MOL    H2834418   3.550   5.602   5.812  0.7334 -0.2579 -0.3363
   96MOL    H2934419   3.694   5.590   5.627 -0.1374  0.0101  0.3617
   96MOL    H3034420   3.543   5.654   5.573 -0.6029 -0.5647 -1.3684
   96MOL    H3134421   3.472   5.454   5.457 -0.2196  1.2967 -1.1042
   96MOL    H3234422   3.617   5.366   5.506  2.3948  0.3180 -2.0023
   96MOL    H3334423   3.622   5.434   5.268 -2.5479  0.9213 -0.1539
   96MOL    H3434424   3.623   5.596   5.313 -0.1116  0.6964  2.1645
   96MOL    H3534425   3.837   5.384   5.393 -1.7731 -0.0048  1.3229
   96MOL    H3634426   3.858   5.502   5.263 -0.7239 -2.8017 -0.3968
   96MOL    H3734427   3.850   5.555   5.429  0.9739  0.1066  0.2205
   96MOL    C3834428   3.379   5.513   5.732  0.3432 -0.0543  0.5535
   96MOL    C3934429   3.290   5.539   5.851  0.2055  0.7477 -0.2244
   96MOL    C4034430   3.161   5.608   5.818  0.1822 -0.3237  0.0462
   96MOL    C4134431   3.058   5.527   5.734  0.2627 -0.1195 -0.2307
   96MOL    C4234432   2.930   5.603   5.706 -0.2441 -0.0674  0.3685
   96MOL    C4334433   2.829   5.595   5.819  0.1448  1.1807 -0.1019
   96MOL    H4434434   3.341   5.416   5.697 -1.7344  0.4757  1.2657
   96MOL    H4534435   3.352   5.593   5.663  1.2462  0.9681  1.3748
   96MOL    H4634436   3.334   5.625   5.900 -2.1936  1.4439  0.7742
   96MOL    H4734437   3.117   5.632   5.915 -1.2099  1.1030 -0.9091
   96MOL    H4834438   3.189   5.703   5.772  1.1495  0.9606  3.1675
   96MOL    H4934439   3.100   5.492   5.639 -3.1524 -0.2100 -1.8145
   96MOL    H5034440   3.036   5.430   5.780 -2.7757  0.1168 -1.0483
   96MOL    H5134441   2.947   5.710   5.699 -2.7746  0.2705 -1.3792
   96MOL    H5234442   2.880   5.574   5.614  1.1691 -1.8378  0.1244
   96MOL    H5334443   2.730   5.634   5.798 -0.7260 -0.2259  1.3119
   96MOL    H5434444   2.860   5.660   5.901 -0.7243  2.0281 -0.4338
   96MOL    H5534445   2.831   5.497   5.866  2.1311  0.7922 -0.9553
   96MOL    C5634446   3.275   5.401   5.933  0.0365  0.2650  0.0830
   96MOL    C5734447   3.192   5.407   6.057  0.4907  0.2191  0.1813
   96MOL    C5834448   3.227   5.516   6.155 -0.4174  0.2046 -0.8694
   96MOL    C5934449   3.374   5.515   6.210  0.6872  0.3838 -0.2315
   96MOL    C6034450   3.405   5.600   6.334  0.3433 -0.6938  0.0877
   96MOL    C6134451   3.537   5.557   6.412 -0.0819 -0.4793 -0.6019
   96MOL    H6234452   3.232   5.323   5.870 -1.2890  1.2636 -0.2804
   96MOL    H6334453   3.372   5.365   5.969  0.5860  2.6726  1.0971
   96MOL    H6434454   3.087   5.425   6.035  0.5291 -2.6125 -2.6081
   96MOL    H6534455   3.202   5.613   6.113 -1.0169  0.2568 -0.4049
   96MOL    H6634456   3.181   5.502   6.253  2.3959 -2.9100  0.1099
   96MOL    H6734457   3.449   5.536   6.133 -2.2837  3.4591 -2.4575
   96MOL    H6834458   3.399   5.417   6.250 -3.9242 -0.9365 -0.2370
   96MOL    H6934459   3.405   5.699   6.288  0.0543  0.0714  1.7111
   96MOL    H7034460   3.331   5.590   6.413  0.2801 -2.2418 -0.1544
   96MOL    H7134461   3.527   5.453   6.444  1.0803 -0.8100 -1.2923
   96MOL    H7234462   3.621   5.537   6.346 -0.7767  1.9360 -2.3105
   96MOL    H7334463   3.564   5.612   6.502 -1.0613 -2.1032  0.7183
   96MOL    C7434464   3.197   5.267   6.130  0.3456 -0.0782  0.1332
   96MOL    C7534465   3.106   5.242   6.249 -0.0179  0.2939 -0.0972
   96MOL    C7634466   2.967   5.219   6.194 -0.1427 -0.7773 -1.0244
   96MOL    C7734467   2.861   5.254   6.301  0.2407  0.1341 -0.0494
   96MOL    C7834468   2.720   5.258   6.237 -0.0803 -0.5561  0.4078
   96MOL    C7934469   2.605   5.299   6.334 -0.8937  0.0388 -0.0379
   96MOL    H8034470   3.167   5.189   6.060 -1.6393 -0.0761  0.9502
   96MOL    H8134471   3.302   5.244   6.149  1.1012  3.6952  0.9664
   96MOL    H8234472   3.100   5.319   6.326 -0.2275 -1.3062  1.5181
   96MOL    H8334473   2.949   5.293   6.116 -1.5000 -0.9561 -0.9032
   96MOL    H8434474   2.961   5.114   6.167  0.8975 -1.0251 -0.2957
   96MOL    H8534475   2.860   5.183   6.383  0.5666  0.6916  0.4337
   96MOL    H8634476   2.871   5.359   6.329  1.2551 -0.3343  1.3996
   96MOL    H8734477   2.696   5.157   6.205  1.1944 -0.5432 -0.6392
   96MOL    H8834478   2.727   5.315   6.144 -0.9561 -1.1352 -0.0243
   96MOL    H8934479   2.510   5.281   6.284 -0.8771  0.1129 -0.0964
   96MOL    H9034480   2.597   5.222   6.410  1.6626 -1.3015 -1.0623
   96MOL    H9134481   2.625   5.398   6.376  1.0432 -1.0222  1.5904
   96MOL    C9234482   3.146   5.108   6.311  0.2244  0.4858 -0.0993
   96MOL    C9334483   3.272   5.106   6.402  0.7471 -0.1759 -0.0943
   96MOL    C9434484   3.280   5.217   6.513  0.9819  0.0428  0.8878
   96MOL    C9534485   3.146   5.251   6.591 -0.7926 -0.4632 -0.4164
   96MOL    C9634486   3.163   5.370   6.690 -0.0276 -0.7727 -0.0772
   96MOL    C9734487   3.039   5.434   6.752  0.1907 -0.2811 -0.3449
   96MOL    H9834488   3.061   5.070   6.368  0.2104 -2.0654 -1.7288
   96MOL    H9934489   3.161   5.040   6.227  3.3923 -1.4652  1.9025
   96MOL   H10034490   3.354   5.112   6.330  1.7559 -2.0513  0.8618
   96MOL   H10134491   3.301   5.314   6.466 -0.6061 -0.9159 -1.9482
   96MOL   H10234492   3.363   5.198   6.581 -1.4656 -1.8218  3.4534
   96MOL   H10334493   3.068   5.270   6.517 -2.2818 -2.1550  0.6636
   96MOL   H10434494   3.099   5.169   6.646 -0.4201  0.4582  1.3302
   96MOL   H10534495   3.243   5.356   6.764 -0.7587 -2.2356  0.4571
   96MOL   H10634496   3.206   5.451   6.631  1.6968 -0.7503  1.1693
   96MOL   H10734497   2.980   5.484   6.675 -1.3312 -2.4456 -0.6399
   96MOL   H10834498   2.967   5.363   6.792  0.8402  0.0166  1.3896
   96MOL   H10934499   3.061   5.510   6.828 -2.7812 -0.4538  0.7885
   96MOL   C11034500   3.284   4.963   6.470 -0.1455  0.3751  0.7343
   96MOL   C11134501   3.413   4.926   6.542 -0.2543 -0.5710 -0.0063
   96MOL   C11234502   3.541   4.984   6.473 -0.0237  0.4900  0.2356
   96MOL   C11334503   3.576   4.930   6.332  0.5772  1.1916 -0.2050
   96MOL   C11434504   3.704   4.983   6.274  0.4193  0.2854 -0.1523
   96MOL   C11534505   3.733   4.899   6.148  0.6504  0.0915  0.0593
   96MOL   H11634506   3.196   4.953   6.532 -2.4399 -0.6945 -2.5266
   96MOL   H11734507   3.269   4.892   6.388 -0.3237  0.7448  0.4459
   96MOL   H11834508   3.418   4.980   6.636 -0.0619 -0.5282 -0.0402
   96MOL   H11934509   3.624   4.973   6.542  0.3212 -0.2382 -0.2918
   96MOL   H12034510   3.529   5.092   6.472 -3.3464  0.2086  0.7977
   96MOL   H12134511   3.491   4.954   6.268 -0.8635  0.7061  1.5023
   96MOL   H12234512   3.573   4.821   6.336 -1.2599  1.2166 -0.6949
   96MOL   H12334513   3.782   4.990   6.350  1.5455  0.3212 -1.2915
   96MOL   H12434514   3.695   5.088   6.247 -1.4847 -0.0190 -0.7652
   96MOL   H12534515   3.808   4.943   6.081  1.8281  2.7348  2.9749
   96MOL   H12634516   3.765   4.798   6.172 -3.8789 -1.0525  1.6940
   96MOL   H12734517   3.638   4.896   6.095  0.3461 -0.6539  0.6407
   96MOL   C12834518   3.412   4.774   6.572  0.5636 -0.0108 -0.0648
   96MOL   C12934519   3.335   4.753   6.702  0.3956  0.3683 -0.1486
   96MOL   C13034520   3.427   4.740   6.824 -0.4456  0.6785  0.3830
   96MOL   C13134521   3.355   4.787   6.951  0.3396 -0.1245 -0.5150
   96MOL   C13234522   3.464   4.801   7.066 -0.1538 -0.1198  0.2283
   96MOL   C13334523   3.399   4.831   7.193 -0.4342 -0.4878 -0.1669
   96MOL   H13434524   3.513   4.736   6.585 -0.1748 -2.3410 -0.8357
   96MOL   H13534525   3.368   4.724   6.486 -0.4272  0.4095  0.1963
   96MOL   H13634526   3.262   4.832   6.720 -0.2991 -0.1360 -0.6730
   96MOL   H13734527   3.466   4.641   6.848  2.4414  1.4099 -1.0216
   96MOL   H13834528   3.518   4.799   6.817  0.1071 -0.3188 -1.1910
   96MOL   H13934529   3.280   4.709   6.966 -0.7079  0.7880 -0.9304
   96MOL   H14034530   3.301   4.881   6.938 -1.1713 -0.7473  0.9789
   96MOL   H14134531   3.527   4.712   7.069  0.0531 -0.0269 -0.8804
   96MOL   H14234532   3.535   4.881   7.044 -0.2870 -0.5709 -1.9775
   96MOL   H14334533   3.470   4.823   7.275 -2.6377  0.7972  1.9469
   96MOL   H14434534   3.316   4.762   7.207  1.3822 -2.2036  2.4721
   96MOL   H14534535   3.370   4.936   7.179 -0.2800 -0.6371 -1.6842
   96MOL   C14634536   3.247   4.625   6.703 -0.7692  0.0020 -0.0804
   96MOL   C14734537   3.121   4.639   6.626  0.6709 -0.7594  0.3691
   96MOL   C14834538   3.018   4.719   6.717 -0.2854  0.1606  0.6687
   96MOL   C14934539   2.908   4.779   6.629  0.0162  0.7446  0.6237
   96MOL   C15034540   2.804   4.857   6.713  0.1922 -0.2570  0.4351
   96MOL   C15134541   2.846   4.996   6.749  0.4700  0.0987  0.2455
   96MOL   H15234542   3.311   4.555   6.649  2.2892  2.9198 -0.3919
   96MOL   H15334543   3.231   4.586   6.803 -2.3767  0.2390 -0.2266
   96MOL   H15434544   3.152   4.706   6.546 -0.1071 -2.2208 -1.2154
   96MOL   H15534545   3.070   4.791   6.779 -0.3092  0.0640  0.8013
   96MOL   H15634546   2.975   4.643   6.782 -0.9877 -1.4940 -1.6569
   96MOL   H15734547   2.961   4.843   6.559 -1.8945  1.7756  0.0660
   96MOL   H15834548   2.855   4.706   6.568 -1.4528  1.5415  0.9287
   96MOL   H15934549   2.772   4.800   6.800 -1.7626  0.6536  0.3296
   96MOL   H16034550   2.706   4.858   6.665 -0.8257 -1.8756  2.4033
   96MOL   H16134551   2.818   5.006   6.854  3.6221 -6.0240  1.9360
   96MOL   H16234552   2.954   5.010   6.744  0.3839  0.2609 -1.7946
   96MOL   H16334553   2.792   5.072   6.692  1.5251  0.6448 -0.0188
   96MOL   C16434554   3.060   4.504   6.573 -0.2927  0.1412 -0.0827
   96MOL   C16534555   3.126   4.440   6.453 -0.7801 -0.3396  0.4324
   96MOL   C16634556   3.075   4.295   6.442 -0.2758 -1.0034 -0.4107
   96MOL   C16734557   3.129   4.190   6.542 -0.2202 -0.2199 -0.4364
   96MOL   C16834558   3.088   4.041   6.506 -0.1596 -0.0380 -0.2695
   96MOL   C16934559   3.171   3.983   6.382 -0.4518 -0.0463  0.2023
   96MOL   H17034560   3.058   4.440   6.661 -1.4400  0.5351  0.1858
   96MOL   H17134561   2.955   4.522   6.552 -0.7741  0.4224  2.3771
   96MOL   H17234562   3.229   4.427   6.486 -0.0812 -0.6174 -1.7465
   96MOL   H17334563   3.100   4.260   6.342 -2.1415 -0.9918 -0.9017
   96MOL   H17434564   2.966   4.301   6.447 -0.1827  0.4758  0.3381
   96MOL   H17534565   3.087   4.214   6.640 -0.6667 -0.4194 -0.5802
   96MOL   H17634566   3.236   4.193   6.566 -0.3010  0.1404 -0.1112
   96MOL   H17734567   2.981   4.035   6.490  0.1106 -0.9551 -1.8230
   96MOL   H17834568   3.107   3.973   6.590  1.9440  1.2342  0.3405
   96MOL   H17934569   3.204   4.052   6.305  0.8238 -1.0742 -0.1900
   96MOL   H18034570   3.111   3.900   6.345  1.7338 -1.7555  0.3865
   96MOL   H18134571   3.260   3.935   6.423 -0.0782  0.1995 -0.3273
   96MOL   C18234572   3.096   4.518   6.316  0.3670 -0.4136 -0.1562
   96MOL   C18334573   3.217   4.571   6.243  0.2133  0.1683  0.3395
   96MOL   C18434574   3.188   4.679   6.145 -0.2589 -0.1166 -0.1957
   96MOL   C18534575   3.118   4.648   6.008  0.4236  0.4625  0.5037
   96MOL   C18634576   3.130   4.765   5.906  0.3940 -0.1233 -0.3929
   96MOL   C18734577   3.060   4.896   5.934  0.4576  0.2052  0.4402
   96MOL   H18834578   3.026   4.470   6.248 -1.4611 -0.1428  1.4918
   96MOL   H18934579   3.034   4.602   6.347  0.6093 -0.7200  1.2097
   96MOL   H19034580   3.270   4.619   6.325 -0.2142  0.2716  0.5580
   96MOL   H19134581   3.135   4.757   6.200  0.3165 -0.5368  0.9641
   96MOL   H19234582   3.286   4.720   6.123 -1.6799  2.0568 -2.7380
   96MOL   H19334583   3.013   4.622   6.021  0.4644 -1.4213 -2.4519
   96MOL   H19434584   3.173   4.567   5.961 -0.5187  0.1186 -0.0239
   96MOL   H19534585   3.105   4.729   5.806 -0.3253 -2.0145  0.4550
   96MOL   H19634586   3.235   4.792   5.900  0.1056  0.6354 -2.3474
   96MOL   H19734587   3.077   4.967   5.853  1.4919 -0.2923  0.2099
   96MOL   H19834588   3.082   4.941   6.031 -0.5953 -0.7358  1.1331
   96MOL   H19934589   2.951   4.889   5.931  0.4151  1.0315  0.0539
   96MOL   C20034590   3.310   4.460   6.192  0.2050 -0.4880 -0.1905
   96MOL   C20134591   3.467   4.480   6.208 -0.1524 -0.0523  0.3476
   96MOL   C20234592   3.507   4.457   6.360 -0.2496  0.2429 -0.1196
   96MOL   C20334593   3.498   4.313   6.410  0.3023  0.3690  0.0143
   96MOL   C20434594   3.553   4.282   6.557 -0.0540 -0.0187 -0.0848
   96MOL   C20534595   3.504   4.373   6.676 -0.6939 -0.0871 -0.0933
   96MOL   H20634596   3.285   4.440   6.088  2.2997  2.4252 -1.2993
   96MOL   H20734597   3.287   4.360   6.230 -0.5206 -1.1121 -2.1990
   96MOL   H20834598   3.496   4.581   6.178 -1.0881  0.0115 -0.3403
   96MOL   H20934599   3.465   4.526   6.433  0.6156  1.2983 -0.6162
   96MOL   H21034600   3.612   4.485   6.366 -0.3407  0.4501  0.5008
   96MOL   H21134601   3.551   4.246   6.343  0.0154  1.9597 -1.8310
   96MOL   H21234602   3.392   4.288   6.398  0.8473 -1.9194 -0.3722
   96MOL   H21334603   3.661   4.282   6.550  0.0276 -0.1155  1.0802
   96MOL   H21434604   3.540   4.176   6.578 -2.6050  0.5599  1.5724
   96MOL   H21534605   3.550   4.337   6.768  0.6701 -0.3964 -0.8832
   96MOL   H21634606   3.517   4.480   6.662  1.3151 -0.2426  0.4726
   96MOL   H21734607   3.398   4.350   6.683 -0.3609 -1.1473  1.8349
   96MOL   C21834608   3.550   4.392   6.107  0.4855 -0.0823  0.1386
   96MOL   C21934609   3.545   4.447   5.957 -0.1968 -0.1048  0.7857
   96MOL   C22034610   3.564   4.329   5.857  0.6914  0.1855 -0.7111
   96MOL   C22134611   3.448   4.233   5.823 -0.0528  0.2511  0.3828
   96MOL   C22234612   3.499   4.116   5.742  0.8038  0.5067 -0.4690
   96MOL   C22334613   3.512   4.158   5.591 -0.4158  0.4201  0.6246
   96MOL   H22434614   3.654   4.384   6.138  0.2513 -1.5014  0.5955
   96MOL   H22534615   3.517   4.289   6.118  1.1077 -0.2211  0.7347
   96MOL   H22634616   3.448   4.492   5.937 -0.4252 -1.1011 -0.4320
   96MOL   H22734617   3.646   4.281   5.911 -0.6455 -2.2131 -0.7609
   96MOL   H22834618   3.613   4.376   5.771 -1.3740 -0.0569 -2.0396
   96MOL   H22934619   3.375   4.272   5.752  1.1163  0.4865 -0.6935
   96MOL   H23034620   3.400   4.198   5.914 -1.6828 -0.9098 -0.8941
   96MOL   H23134621   3.592   4.077   5.783 -0.7812  0.5635  3.3606
   96MOL   H23234622   3.426   4.035   5.747  1.2174  0.0145 -1.9559
   96MOL   H23334623   3.575   4.246   5.581 -0.0404 -0.1382 -2.0786
   96MOL   H23434624   3.420   4.200   5.549 -0.5470 -0.0775  0.4120
   96MOL   H23534625   3.542   4.081   5.520  2.2333  2.6912 -0.7784
   96MOL   C23634626   3.659   4.553   5.938  0.3038 -0.6749 -0.4179
   96MOL   C23734627   3.658   4.650   5.813 -0.3589  0.1905  0.1392
   96MOL   C23834628   3.800   4.707   5.798 -0.2220  0.1889 -0.0818
   96MOL   C23934629   3.818   4.814   5.691 -0.8190  0.5328  0.1312
   96MOL   C24034630   3.968   4.852   5.662  0.2988 -0.4129  0.4711
   96MOL   C24134631   4.058   4.890   5.783  0.3082  0.6710 -0.2878
   96MOL   H24234632   3.669   4.603   6.034  0.7417 -2.6642  0.5946
   96MOL   H24334633   3.752   4.496   5.933  0.8053  0.1845 -1.0038
   96MOL   H24434634   3.639   4.589   5.725 -4.1361  1.6100 -0.1132
   96MOL   H24534635   3.831   4.751   5.893  0.3449 -0.0610 -0.1475
   96MOL   H24634636   3.857   4.620   5.765 -0.0594  0.8620 -1.5899
   96MOL   H24734637   3.771   4.912   5.702  0.2807  1.2282 -1.2535
   96MOL   H24834638   3.789   4.763   5.599  0.2699 -0.0192  0.0801
   96MOL   H24934639   4.020   4.775   5.605 -0.8741 -0.3556 -0.6986
   96MOL   H25034640   3.968   4.933   5.588 -2.6188 -2.3258 -1.7607
   96MOL   H25134641   4.035   4.985   5.831  1.2728  0.0059  1.5715
   96MOL   H25234642   4.073   4.804   5.849  0.7111 -0.0591 -1.3095
   96MOL   H25334643   4.159   4.904   5.745 -0.5992  2.3038 -2.1800
   96MOL   C25434644   3.539   4.759   5.812  0.0533  0.4081  0.1397
   96MOL   C25534645   3.495   4.807   5.672 -0.4984 -0.2453 -0.5461
   96MOL   C25634646   3.440   4.952   5.678 -0.1704 -0.1414  0.3246
   96MOL   C25734647   3.372   5.013   5.554 -0.0624  0.4324 -0.1780
   96MOL   C25834648   3.472   5.045   5.431  0.6589 -0.4182  1.0023
   96MOL   C25934649   3.404   5.092   5.298  0.4652  1.1455 -0.7021
   96MOL   H26034650   3.577   4.844   5.868  1.1846  0.1256 -0.1954
   96MOL   H26134651   3.459   4.720   5.875 -1.1541  2.2601 -0.1869
   96MOL   H26234652   3.581   4.807   5.606  0.5130  0.1268  0.7499
   96MOL   H26334653   3.372   4.946   5.763  0.8842  1.9558  1.3560
   96MOL   H26434654   3.524   5.016   5.706  1.2858 -1.3135 -1.2220
   96MOL   H26534655   3.289   4.954   5.514  0.3778  0.4642 -1.1707
   96MOL   H26634656   3.332   5.108   5.589  0.2501  0.3370  0.4323
   96MOL   H26734657   3.540   4.964   5.405 -0.0273 -0.5720 -0.3687
   96MOL   H26834658   3.521   5.131   5.477  1.2383  0.1845 -0.6888
   96MOL   H26934659   3.483   5.129   5.232  0.4698  0.5596 -1.0211
   96MOL   H27034660   3.330   5.171   5.314  0.1265  0.3083  2.1684
   96MOL   H27134661   3.342   5.015   5.253  0.5007  0.6249  0.1340
   96MOL   C27234662   3.391   4.704   5.628  0.1170 -0.4194 -0.0754
   96MOL   C27334663   3.389   4.666   5.475 -0.1794  0.6733 -0.0233
   96MOL   C27434664   3.256   4.601   5.438  0.7506  0.0486 -0.1216
   96MOL   C27534665   3.238   4.464   5.502  0.0201 -0.3264  0.4679
   96MOL   C27634666   3.097   4.407   5.485  0.4997  0.1495 -0.3550
   96MOL   C27734667   3.091   4.265   5.549 -0.7796  0.4922  0.9639
   96MOL   H27834668   3.404   4.616   5.691 -0.1265 -1.6645 -1.7294
   96MOL   H27934669   3.289   4.729   5.657  0.0749 -1.8025  1.0011
   96MOL   H28034670   3.396   4.763   5.426 -0.1999  0.7153  0.0559
   96MOL   H28134671   3.253   4.592   5.330 -1.4217 -1.9331  0.0707
   96MOL   H28234672   3.173   4.667   5.462  1.0007  0.1844  0.3769
   96MOL   H28334673   3.261   4.467   5.608  2.4304 -2.5395  0.0364
   96MOL   H28434674   3.308   4.399   5.449  0.3527  0.8201 -0.5283
   96MOL   H28534675   3.023   4.475   5.528  0.7492  0.8754 -1.0845
   96MOL   H28634676   3.077   4.399   5.379  0.9064  0.9047 -0.4923
   96MOL   H28734677   3.182   4.204   5.550  1.0674  3.0171 -2.8054
   96MOL   H28834678   3.049   4.263   5.650 -1.7800 -1.3681  0.5432
   96MOL   H28934679   3.020   4.204   5.493 -1.8211 -1.0354  3.8285
   96MOL   C29034680   3.507   4.565   5.449  0.1682  0.1695  0.2146
   96MOL   C29134681   3.549   4.538   5.301 -0.0308 -0.8841  0.2422
   96MOL   C29234682   3.591   4.669   5.228 -0.4012  0.1258  0.0790
   96MOL   C29334683   3.712   4.749   5.293 -0.2325  0.4155 -0.0272
   96MOL   C29434684   3.768   4.867   5.214  1.0034  0.0278  0.1562
   96MOL   C29534685   3.884   4.940   5.288  0.1820  0.2724  0.6802
   96MOL   H29634686   3.498   4.471   5.504  1.5690  0.0044  0.1750
   96MOL   H29734687   3.600   4.595   5.496 -0.7392 -0.0770  2.2317
   96MOL   H29834688   3.463   4.503   5.244 -0.2259 -3.3687  2.0066
   96MOL   H29934689   3.513   4.745   5.233 -0.2806  0.2658 -0.1604
   96MOL   H30034690   3.609   4.653   5.122 -1.1143 -1.4917  0.1900
   96MOL   H30134691   3.678   4.779   5.392 -2.8995 -0.6500 -0.5610
   96MOL   H30234692   3.793   4.681   5.316  1.0930  1.3145 -1.9439
   96MOL   H30334693   3.689   4.937   5.186 -0.6640 -1.3132  1.4086
   96MOL   H30434694   3.802   4.823   5.121  0.7694  1.0550 -0.4325
   96MOL   H30534695   3.972   4.877   5.290  0.5315  0.6795 -1.0271
   96MOL   H30634696   3.861   4.950   5.394 -0.6830  1.4339  0.3956
   96MOL   H30734697   3.892   5.044   5.257 -3.4531 -0.5742 -3.6644
   96MOL   C30834698   3.670   4.437   5.290  0.6395  0.2616  0.2301
   96MOL   C30934699   3.725   4.393   5.154  0.9795 -0.2368  0.5322
   96MOL   C31034700   3.621   4.333   5.062 -0.2561  0.0379  0.2696
   96MOL   C31134701   3.660   4.346   4.908  0.4677 -0.2514 -0.4737
   96MOL   C31234702   3.545   4.314   4.818  0.7549 -0.2614 -0.5345
   96MOL   C31334703   3.575   4.357   4.675  0.3152 -0.1039 -0.0458
   96MOL   H31434704   3.755   4.467   5.350  1.6111 -1.4187 -0.2652
   96MOL   H31534705   3.644   4.345   5.342 -1.3003  0.8608  0.3596
   96MOL   H31634706   3.750   4.483   5.098  0.7044  0.0004  0.7851
   96MOL   H31734707   3.526   4.383   5.078 -1.1906 -1.6392  0.1529
   96MOL   H31834708   3.587   4.233   5.092 -0.6373  0.4132  1.0995
   96MOL   H31934709   3.741   4.273   4.905 -0.4751 -1.3136 -0.3984
   96MOL   H32034710   3.702   4.445   4.889 -2.7187  0.9296 -1.6553
   96MOL   H32134711   3.520   4.210   4.839  0.1070  0.6555  3.5571
   96MOL   H32234712   3.449   4.354   4.849  2.2358  1.7220  1.6106
   96MOL   H32334713   3.499   4.326   4.604 -0.3799 -0.6502  0.9301
   96MOL   H32434714   3.668   4.314   4.640  0.1963  0.7756 -1.4772
   96MOL   H32534715   3.602   4.463   4.667  0.4641 -0.2446 -1.5404
   96MOL   C32634716   3.851   4.305   5.163  0.2354  0.7847  0.3220
   96MOL   C32734717   3.981   4.390   5.172  0.1375 -1.1584  0.4072
   96MOL   C32834718   4.097   4.297   5.214  0.1978  0.3027 -0.2631
   96MOL   C32934719   4.227   4.367   5.264  0.3312 -0.1477 -0.2346
   96MOL   C33034720   4.329   4.274   5.325  0.9461  0.3547 -0.0879
   96MOL   C33134721   4.452   4.355   5.366 -0.4289  0.0394 -0.3113
   96MOL   H33234722   3.848   4.231   5.083  1.0064  2.2657 -1.1151
   96MOL   H33334723   3.851   4.243   5.253  1.4235  1.4193  0.7788
   96MOL   H33434724   3.962   4.465   5.249  1.5177  1.1609 -1.4391
   96MOL   H33534725   4.055   4.241   5.297 -0.4378  1.3325  0.1018
   96MOL   H33634726   4.119   4.228   5.132 -3.0324  1.6206 -2.3270
   96MOL   H33734727   4.190   4.431   5.344  0.2179 -0.6545  0.1176
   96MOL   H33834728   4.278   4.425   5.187  0.1188  0.1262 -0.1707
   96MOL   H33934729   4.290   4.226   5.415 -1.3496 -0.7689 -1.6206
   96MOL   H34034730   4.362   4.192   5.261  0.4047  0.1435 -0.1032
   96MOL   H34134731   4.443   4.434   5.439 -2.0666  0.1417 -0.6003
   96MOL   H34234732   4.488   4.408   5.277  1.0599 -1.7661 -0.8205
   96MOL   H34334733   4.518   4.283   5.414 -0.7216 -0.7892 -1.1332
   96MOL   C34434734   4.014   4.466   5.039 -0.8731  0.1058  0.3399
   96MOL   C34534735   4.030   4.384   4.914 -0.3078  0.2831 -0.2795
   96MOL   C34634736   4.048   4.475   4.798 -0.8613  0.0582  0.9463
   96MOL   C34734737   4.096   4.384   4.681 -0.1719 -0.1992  0.6334
   96MOL   C34834738   4.081   4.431   4.540 -0.4500 -0.2373 -0.0246
   96MOL   C34934739   3.935   4.462   4.487 -0.2639 -0.5129 -1.1706
   96MOL   H35034740   3.944   4.545   5.009 -0.1575  0.6908  0.2017
   96MOL   H35134741   4.101   4.529   5.058 -0.9921 -0.2115  2.0467
   96MOL   H35234742   3.947   4.315   4.900  0.9841 -1.3226 -0.2050
   96MOL   H35334743   3.949   4.516   4.778  0.0049  1.1025 -1.3614
   96MOL   H35434744   4.110   4.561   4.819  2.2226 -1.7808 -0.3128
   96MOL   H35534745   4.200   4.357   4.700  0.0853  0.1103 -0.3003
   96MOL   H35634746   4.043   4.288   4.683 -0.5626 -0.0987 -2.1600
   96MOL   H35734747   4.143   4.518   4.520  0.0837 -1.0801 -2.2154
   96MOL   H35834748   4.127   4.358   4.474  0.2036  2.6914 -2.9079
   96MOL   H35934749   3.862   4.389   4.524  0.3477 -0.2387  0.6098
   96MOL   H36034750   3.899   4.558   4.524  1.4593 -0.3329  0.1057
   96MOL   H36134751   3.940   4.465   4.378 -3.5259  0.8391 -1.3454
   96MOL   H36234752   4.114   4.315   4.929 -0.8734  0.1311  2.3400
   97MOL     C134753   4.564   5.188   6.082 -0.3262  0.3795  0.5512
   97MOL     C234754   4.520   5.098   5.964 -0.4484  0.8219  0.1971
   97MOL     C334755   4.540   5.164   5.825  0.3283  0.0646 -0.0284
   97MOL     C434756   4.680   5.206   5.779 -0.1675 -0.6175 -0.1953
   97MOL     C534757   4.725   5.349   5.815 -0.0171  0.4751 -0.5235
   97MOL     C634758   4.874   5.371   5.775 -0.1398 -0.1745  0.3906
   97MOL     H734759   4.508   5.282   6.078 -0.5196  0.1951 -2.9417
   97MOL     H834760   4.538   5.149   6.180  0.8215  1.9766  1.5226
   97MOL     H934761   4.585   5.010   5.964 -0.7524  0.5883  0.9660
   97MOL    H1034762   4.483   5.257   5.819 -0.5932 -0.4911  0.1269
   97MOL    H1134763   4.487   5.091   5.764  0.5378 -0.0100 -0.1192
   97MOL    H1234764   4.699   5.182   5.675  0.4865  2.6049 -0.8678
   97MOL    H1334765   4.754   5.141   5.826 -0.9770 -0.6527  1.0798
   97MOL    H1434766   4.657   5.415   5.760 -0.6448  0.5653  0.3578
   97MOL    H1534767   4.705   5.368   5.920 -0.2604 -2.4039 -0.0186
   97MOL    H1634768   4.927   5.277   5.792  0.8183  0.6150  2.0033
   97MOL    H1734769   4.915   5.444   5.845 -0.9885 -1.3649  2.1720
   97MOL    H1834770   4.910   5.406   5.678  1.3349  2.3915  1.8034
   97MOL    H1934771   4.671   5.209   6.082 -0.5396  1.5882  1.5265
   97MOL    C2034772   4.370   5.049   5.989  0.3223  0.0530 -0.3484
   97MOL    C2134773   4.355   4.942   6.101 -0.2008  0.3333 -0.2562
   97MOL    C2234774   4.219   4.962   6.172  0.0456 -0.6627 -0.0687
   97MOL    C2334775   4.208   5.093   6.262  0.4275  0.3405  0.0794
   97MOL    C2434776   4.078   5.101   6.348  0.0386 -0.2031  0.2327
   97MOL    C2534777   3.963   5.166   6.276 -0.2190  0.1695 -0.3710
   97MOL    H2634778   4.339   5.016   5.890  2.9878 -1.1902 -0.8069
   97MOL    H2734779   4.307   5.136   6.006  0.5853 -0.2281  2.1482
   97MOL    H2834780   4.432   4.942   6.178 -0.6792  1.3969  0.2362
   97MOL    H2934781   4.202   4.870   6.227  0.2289 -0.0068  1.1032
   97MOL    H3034782   4.137   4.963   6.100  0.4433 -0.6868 -0.5231
   97MOL    H3134783   4.226   5.185   6.207 -2.9380  1.3948  0.6358
   97MOL    H3234784   4.294   5.084   6.329  0.1791 -1.7799  0.1375
   97MOL    H3334785   4.051   5.001   6.383  0.1580 -0.9553 -1.7207
   97MOL    H3434786   4.088   5.156   6.441  1.8010  0.6831 -0.4636
   97MOL    H3534787   3.919   5.117   6.189  0.6073  2.8129 -2.3376
   97MOL    H3634788   3.880   5.177   6.346 -0.2320 -0.3218 -0.3082
   97MOL    H3734789   3.984   5.266   6.237  0.7600 -0.7911 -2.4062
   97MOL    C3834790   4.368   4.802   6.033 -0.0866 -1.3191 -0.0556
   97MOL    C3934791   4.393   4.683   6.126 -0.0518  0.0900  0.9037
   97MOL    C4034792   4.347   4.541   6.071  0.0296 -0.2896  0.4875
   97MOL    C4134793   4.201   4.536   6.035  0.5107 -1.1746  0.5244
   97MOL    C4234794   4.163   4.394   5.998 -0.7406 -0.5768 -0.1071
   97MOL    C4334795   4.011   4.381   5.982  0.2124  0.1970 -0.1608
   97MOL    H4434796   4.442   4.803   5.953  0.9256 -2.6677  0.8551
   97MOL    H4534797   4.281   4.800   5.968  0.5303  0.5801 -0.9803
   97MOL    H4634798   4.336   4.698   6.218  3.4156  2.8426  2.7246
   97MOL    H4734799   4.409   4.504   5.990  1.4912 -1.2488  2.0005
   97MOL    H4834800   4.355   4.474   6.157 -0.2033 -0.5807  0.2829
   97MOL    H4934801   4.148   4.553   6.128 -0.6291  0.9663 -0.5030
   97MOL    H5034802   4.173   4.604   5.955  0.1253 -0.8128  0.9689
   97MOL    H5134803   4.221   4.362   5.911  1.9751 -0.2659  1.5489
   97MOL    H5234804   4.198   4.326   6.076 -0.5861  0.2878  0.5773
   97MOL    H5334805   3.980   4.440   5.895 -0.1875 -0.2274 -0.3115
   97MOL    H5434806   3.951   4.417   6.066  2.4146 -1.3724  2.1325
   97MOL    H5534807   3.970   4.282   5.962  1.9075 -0.5124 -0.1797
   97MOL    C5634808   4.542   4.686   6.176  0.2299 -0.2502  0.5314
   97MOL    C5734809   4.560   4.637   6.322 -0.1283  0.4712  0.8398
   97MOL    C5834810   4.522   4.739   6.423 -0.3055  0.0254  0.6927
   97MOL    C5934811   4.484   4.684   6.563 -0.4883  0.1200  0.3606
   97MOL    C6034812   4.474   4.789   6.678  0.1871  0.0087  0.9244
   97MOL    C6134813   4.509   4.744   6.824 -0.5449  0.1417 -0.1897
   97MOL    H6234814   4.601   4.633   6.102  0.0050 -1.1810  1.0155
   97MOL    H6334815   4.586   4.784   6.155  1.0970 -0.3695  1.7360
   97MOL    H6434816   4.490   4.555   6.339 -2.4277  2.7454  2.7384
   97MOL    H6534817   4.603   4.811   6.432  0.5742 -0.6107 -1.7260
   97MOL    H6634818   4.443   4.801   6.381  1.5645  2.1466  0.2416
   97MOL    H6734819   4.565   4.616   6.591 -0.1644  1.1745  2.0718
   97MOL    H6834820   4.388   4.634   6.548 -1.7279  2.4547  0.3197
   97MOL    H6934821   4.533   4.876   6.649  0.7877 -0.7098 -0.0447
   97MOL    H7034822   4.373   4.828   6.668 -0.0517 -0.9918 -0.9107
   97MOL    H7134823   4.457   4.653   6.853  1.8299 -1.2653 -0.1869
   97MOL    H7234824   4.617   4.730   6.836 -0.9452 -1.8363  1.2692
   97MOL    H7334825   4.469   4.812   6.900 -2.1635  0.6603 -1.4807
   97MOL    C7434826   4.706   4.599   6.350 -0.0247 -0.3129 -0.0594
   97MOL    C7534827   4.751   4.464   6.289 -0.2454 -0.3193  0.3678
   97MOL    C7634828   4.900   4.445   6.269 -0.4268 -0.3630 -0.4063
   97MOL    C7734829   4.942   4.483   6.127 -0.3532 -0.1449  0.7677
   97MOL    C7834830   5.090   4.503   6.107  0.5290  0.3158 -0.1467
   97MOL    C7934831   5.125   4.552   5.965 -0.0579 -0.0395  0.2121
   97MOL    H8034832   4.780   4.671   6.317  0.2598 -0.7806 -0.4479
   97MOL    H8134833   4.725   4.596   6.457  0.2541 -1.2544 -0.1278
   97MOL    H8234834   4.716   4.468   6.186  1.5517 -0.7367 -0.2724
   97MOL    H8334835   4.945   4.509   6.345 -1.4880 -0.3224  0.2050
   97MOL    H8434836   4.936   4.344   6.289  2.1064  0.5651 -0.1680
   97MOL    H8534837   4.908   4.404   6.060  0.7609 -0.6055  0.7483
   97MOL    H8634838   4.883   4.569   6.092  2.6599  0.8789 -1.9875
   97MOL    H8734839   5.135   4.404   6.115 -2.5551 -1.2798 -1.7810
   97MOL    H8834840   5.138   4.561   6.186  1.4512 -0.6619  0.0283
   97MOL    H8934841   5.054   4.517   5.890 -1.3775  1.2533  0.8322
   97MOL    H9034842   5.133   4.661   5.955  0.8265 -0.1365 -0.2028
   97MOL    H9134843   5.218   4.510   5.927 -1.2081 -1.5092 -1.0291
   97MOL    C9234844   4.690   4.336   6.359  0.1916 -0.1893 -0.1267
   97MOL    C9334845   4.586   4.263   6.269 -0.7058 -0.4846  0.1394
   97MOL    C9434846   4.648   4.216   6.140  0.5697 -0.3185 -0.2175
   97MOL    C9534847   4.778   4.135   6.150 -0.7804 -0.2084 -0.1763
   97MOL    C9634848   4.822   4.081   6.014  0.1167 -0.4176  0.0298
   97MOL    C9734849   4.958   4.017   6.013  0.7749 -0.0666 -0.0823
   97MOL    H9834850   4.762   4.263   6.398  1.2201 -0.2076 -1.9878
   97MOL    H9934851   4.649   4.367   6.455 -1.0552 -0.6768 -0.4995
   97MOL   H10034852   4.504   4.328   6.238 -1.1790 -1.2028 -0.1338
   97MOL   H10134853   4.661   4.301   6.073 -1.9303 -0.9423 -1.5491
   97MOL   H10234854   4.571   4.150   6.101  1.3808 -0.8867 -0.8916
   97MOL   H10334855   4.863   4.179   6.202 -0.0361 -3.3919  1.4759
   97MOL   H10434856   4.767   4.047   6.214 -0.3868 -1.6913 -2.0947
   97MOL   H10534857   4.745   4.008   5.990 -1.0262  1.4944 -2.3383
   97MOL   H10634858   4.824   4.156   5.935 -2.7870 -0.2768  0.0437
   97MOL   H10734859   5.031   4.095   5.989 -0.0752  1.0089  0.7871
   97MOL   H10834860   4.986   3.967   6.106  1.2919  0.3934  0.0123
   97MOL   H10934861   4.963   3.943   5.933 -0.4091  2.8811 -2.9944
   97MOL   C11034862   4.531   4.147   6.360 -0.6499 -0.6521 -0.1708
   97MOL   C11134863   4.394   4.092   6.309 -0.1134  0.5739 -0.2865
   97MOL   C11234864   4.283   4.194   6.371  0.1301 -0.2883 -0.3752
   97MOL   C11334865   4.143   4.166   6.326 -0.2548 -0.0145 -0.0086
   97MOL   C11434866   4.047   4.280   6.370  0.0898 -0.1466  0.3100
   97MOL   C11534867   3.898   4.278   6.325 -0.3515  0.9888 -0.6311
   97MOL   H11634868   4.616   4.082   6.375  0.4512  0.7138 -0.3374
   97MOL   H11734869   4.520   4.181   6.463 -0.4218  2.4370 -1.1118
   97MOL   H11834870   4.381   4.107   6.202 -0.1575  0.0160 -0.3587
   97MOL   H11934871   4.306   4.295   6.336 -0.7292  0.5791  1.5075
   97MOL   H12034872   4.287   4.193   6.479 -1.6456 -1.2791 -0.2907
   97MOL   H12134873   4.117   4.080   6.387 -0.5984  0.6545  0.8063
   97MOL   H12234874   4.148   4.136   6.221 -0.1810 -0.8367  0.2256
   97MOL   H12334875   4.100   4.359   6.318  2.1471 -1.8809 -0.3065
   97MOL   H12434876   4.049   4.300   6.477 -2.0143 -1.8014  0.7072
   97MOL   H12534877   3.856   4.379   6.321 -1.7068  0.5605  1.6973
   97MOL   H12634878   3.891   4.241   6.223 -1.0229 -0.0151 -0.2348
   97MOL   H12734879   3.828   4.213   6.378  1.2820 -0.0425  0.2978
   97MOL   C12834880   4.380   3.946   6.361 -0.0806  0.0323 -0.6343
   97MOL   C12934881   4.286   3.856   6.287  0.2714  0.6712  0.5408
   97MOL   C13034882   4.225   3.751   6.381 -0.1818 -0.5759  0.9046
   97MOL   C13134883   4.121   3.809   6.487  0.2677 -0.3437  0.7805
   97MOL   C13234884   4.053   3.704   6.581  0.0853 -0.1078  0.2722
   97MOL   C13334885   3.955   3.762   6.684 -0.2898  0.2442  0.1456
   97MOL   H13434886   4.351   3.943   6.465  1.0652 -0.1314 -0.3125
   97MOL   H13534887   4.483   3.910   6.355 -1.3853 -3.5836 -3.0289
   97MOL   H13634888   4.205   3.917   6.247  2.4387  1.9971 -2.0072
   97MOL   H13734889   4.174   3.674   6.323  0.0191  0.1672 -0.2561
   97MOL   H13834890   4.311   3.716   6.439 -0.2613  0.7144  1.8334
   97MOL   H13934891   4.037   3.855   6.435  0.9386  0.2207  0.1929
   97MOL   H14034892   4.160   3.886   6.553  1.2041 -0.4579  0.3664
   97MOL   H14134893   4.001   3.642   6.508  2.0586  1.0665 -2.1996
   97MOL   H14234894   4.115   3.632   6.636 -2.2168  1.4147  5.1857
   97MOL   H14334895   3.904   3.698   6.757 -0.6217  0.2762 -0.0574
   97MOL   H14434896   3.879   3.811   6.624  0.6459  1.8693  0.2414
   97MOL   H14534897   4.006   3.843   6.737 -0.9763  1.0881 -0.4764
   97MOL   C14634898   4.350   3.784   6.165 -0.6477  0.1288 -0.4138
   97MOL   C14734899   4.251   3.722   6.069  0.1392 -0.1690  0.2385
   97MOL   C14834900   4.275   3.573   6.056  0.4876  0.4604  0.0411
   97MOL   C14934901   4.161   3.501   5.986 -0.5069 -0.4261 -0.1347
   97MOL   C15034902   4.192   3.358   5.939  0.1046 -0.0085 -0.4573
   97MOL   C15134903   4.068   3.279   5.913  0.3867 -0.6355  0.5868
   97MOL   H15234904   4.425   3.842   6.111  1.6450 -1.5899  0.8591
   97MOL   H15334905   4.417   3.711   6.211 -1.8660 -0.8886 -0.2386
   97MOL   H15434906   4.149   3.737   6.103  0.0872 -1.0851  0.5159
   97MOL   H15534907   4.299   3.528   6.152  0.3524 -0.5134 -0.3731
   97MOL   H15634908   4.369   3.562   6.002 -0.6157  0.6577 -1.9840
   97MOL   H15734909   4.090   3.488   6.068  0.8564 -1.1299  0.9588
   97MOL   H15834910   4.105   3.541   5.902  1.5968  0.7619 -1.0065
   97MOL   H15934911   4.258   3.306   6.009 -0.5887 -0.9910 -0.5401
   97MOL   H16034912   4.251   3.377   5.849 -0.1454  0.9179 -0.4265
   97MOL   H16134913   4.017   3.258   6.007 -2.1711 -1.1755 -0.8621
   97MOL   H16234914   3.999   3.325   5.841  0.3853 -0.7338  0.5263
   97MOL   H16334915   4.092   3.182   5.871 -0.1227  0.3717 -2.1488
   97MOL   C16434916   4.261   3.791   5.933  0.5208  0.2681 -1.1773
   97MOL   C16534917   4.219   3.941   5.939  0.3395  0.6980  0.1196
   97MOL   C16634918   4.278   4.022   5.820  0.7903  0.0429 -0.1627
   97MOL   C16734919   4.431   4.023   5.815 -0.4349 -0.2286  0.2565
   97MOL   C16834920   4.507   4.130   5.733  0.6291 -0.0119 -0.2030
   97MOL   C16934921   4.467   4.285   5.767 -0.0248  0.0882  0.0175
   97MOL   H17034922   4.362   3.786   5.893  0.6047  1.2178 -1.0816
   97MOL   H17134923   4.205   3.743   5.853  1.0788 -1.3102 -0.6482
   97MOL   H17234924   4.257   3.987   6.030  0.2486 -1.1783  1.1054
   97MOL   H17334925   4.238   4.123   5.828 -0.5798 -0.2821 -2.7123
   97MOL   H17434926   4.252   3.974   5.726  3.0897 -2.5005  0.4278
   97MOL   H17534927   4.470   3.926   5.785 -1.3301 -0.2034 -1.0601
   97MOL   H17634928   4.459   4.029   5.920  2.8973  1.1654 -0.6483
   97MOL   H17734929   4.476   4.110   5.631  1.3850  1.2563 -0.6926
   97MOL   H17834930   4.614   4.122   5.753  0.5614 -0.4736 -0.0147
   97MOL   H17934931   4.368   4.297   5.722  1.0240  2.3264 -1.7822
   97MOL   H18034932   4.537   4.346   5.709  0.1973  0.3612  0.5680
   97MOL   H18134933   4.462   4.317   5.871 -3.8099 -1.6031  0.4476
   97MOL   C18234934   4.064   3.955   5.954 -0.5085  0.9460 -0.7288
   97MOL   C18334935   3.974   3.904   5.840  0.3032  0.2208 -0.9167
   97MOL   C18434936   3.891   4.020   5.789 -0.8443 -0.0205 -0.2039
   97MOL   C18534937   3.965   4.126   5.710 -0.2796 -0.1336 -0.1948
   97MOL   C18634938   3.870   4.236   5.649  0.2613 -0.7031 -0.2248
   97MOL   C18734939   3.945   4.358   5.584  0.0722  0.4611  0.4476
   97MOL   H18834940   4.028   3.920   6.051  0.0973 -2.4840 -1.6792
   97MOL   H18934941   4.048   4.063   5.961 -0.5179  0.9863 -1.3245
   97MOL   H19034942   4.043   3.879   5.759  1.3422  0.1312 -0.0152
   97MOL   H19134943   3.817   3.990   5.714  0.1669  1.5381 -1.8549
   97MOL   H19234944   3.826   4.064   5.865  1.5423  0.5626  1.5653
   97MOL   H19334945   4.014   4.079   5.625 -2.5306  0.0131 -1.6362
   97MOL   H19434946   4.046   4.171   5.767  0.6847  1.2599 -2.5952
   97MOL   H19534947   3.797   4.283   5.715 -0.6911 -0.5049 -1.4161
   97MOL   H19634948   3.807   4.193   5.571  0.4131  0.3963 -0.9747
   97MOL   H19734949   3.996   4.324   5.494  0.3031  2.1507 -0.0856
   97MOL   H19834950   4.011   4.415   5.650  0.5852  1.6686 -1.0823
   97MOL   H19934951   3.876   4.438   5.558  0.4389  0.0073 -2.0296
   97MOL   C20034952   3.885   3.777   5.876  0.7896 -0.7012 -1.0256
   97MOL   C20134953   3.785   3.723   5.778  0.9474  0.0167  0.0202
   97MOL   C20234954   3.844   3.689   5.629  0.0691  0.1368  0.1126
   97MOL   C20334955   3.724   3.692   5.526 -0.7750 -0.3414 -0.1709
   97MOL   C20434956   3.785   3.667   5.391  0.7058 -0.4505 -0.3146
   97MOL   C20534957   3.696   3.696   5.275 -0.0083 -0.5742  0.1549
   97MOL   H20634958   3.835   3.808   5.968  0.3912  1.1199 -1.8385
   97MOL   H20734959   3.949   3.695   5.908  2.7526  1.7878  1.6879
   97MOL   H20834960   3.708   3.795   5.751 -1.3308 -2.0146  0.8869
   97MOL   H20934961   3.902   3.597   5.626 -2.1600 -1.3016 -1.0376
   97MOL   H21034962   3.916   3.766   5.600  1.5358 -1.3367 -0.2374
   97MOL   H21134963   3.667   3.785   5.527 -0.5815 -0.2212 -0.3747
   97MOL   H21234964   3.652   3.611   5.540  0.0716 -1.2343 -0.8718
   97MOL   H21334965   3.818   3.563   5.383 -0.1995 -0.8038  0.4747
   97MOL   H21434966   3.872   3.732   5.384  0.6040 -0.3636 -0.8307
   97MOL   H21534967   3.751   3.680   5.183  1.1729  0.4119  0.6754
   97MOL   H21634968   3.613   3.626   5.286  0.3372 -0.7953  1.4642
   97MOL   H21734969   3.653   3.796   5.263  0.2035 -0.6917 -1.6895
   97MOL   C21834970   3.712   3.600   5.838  0.5490  0.5992  0.3654
   97MOL   C21934971   3.555   3.609   5.847 -0.2524 -0.7631  0.0341
   97MOL   C22034972   3.511   3.709   5.950  0.2532  0.3085  0.0008
   97MOL   C22134973   3.376   3.776   5.925  0.2722  0.3204  0.4464
   97MOL   C22234974   3.325   3.868   6.032  0.2972 -0.7466 -0.1394
   97MOL   C22334975   3.168   3.890   6.023 -1.2412 -0.0891 -0.1597
   97MOL   H22434976   3.742   3.504   5.796  0.8579 -0.0135  1.9440
   97MOL   H22534977   3.744   3.581   5.940  0.7149  2.0124  0.5811
   97MOL   H22634978   3.520   3.650   5.752 -1.8311  0.2064  0.9987
   97MOL   H22734979   3.577   3.795   5.961 -1.3092  1.3398  1.5479
   97MOL   H22834980   3.512   3.658   6.046 -2.6644  0.4349  0.1351
   97MOL   H22934981   3.302   3.698   5.908 -1.3781  1.9676 -0.1177
   97MOL   H23034982   3.380   3.833   5.832  0.1004  0.0664  0.2828
   97MOL   H23134983   3.327   3.823   6.132  3.7965 -0.7111 -0.1634
   97MOL   H23234984   3.379   3.962   6.030  0.5188 -0.8458  0.7006
   97MOL   H23334985   3.164   3.963   5.942  0.3830  0.1660 -0.0282
   97MOL   H23434986   3.111   3.932   6.106 -1.0208  2.3147 -1.1861
   97MOL   H23534987   3.115   3.807   5.977  0.6376 -1.1247 -0.4686
   97MOL   C23634988   3.484   3.476   5.860 -0.9329 -0.1699  0.3964
   97MOL   C23734989   3.446   3.402   5.733 -0.1295  0.4762 -0.2738
   97MOL   C23834990   3.315   3.469   5.675  0.4373  0.1568  0.2659
   97MOL   C23934991   3.327   3.499   5.527  0.1696 -0.3027  0.8554
   97MOL   C24034992   3.269   3.630   5.462 -0.3830 -0.3288 -0.2049
   97MOL   C24134993   3.350   3.750   5.506  0.1290 -0.7578  0.2526
   97MOL   H24234994   3.540   3.410   5.926 -0.5010 -0.2634 -0.0530
   97MOL   H24334995   3.391   3.488   5.915 -2.5109 -3.2518 -1.4589
   97MOL   H24434996   3.523   3.408   5.657 -1.0211 -1.2425 -1.3275
   97MOL   H24534997   3.220   3.419   5.689  0.2724  0.6921  1.0655
   97MOL   H24634998   3.308   3.572   5.711 -0.9346 -0.2385  1.1378
   97MOL   H24734999   3.268   3.424   5.474  1.0668 -0.4644  0.0803
   97MOL   H24835000   3.424   3.474   5.483 -1.0769 -1.0405 -1.5370
   97MOL   H24935001   3.259   3.615   5.355  4.0277 -0.3798 -0.6990
   97MOL   H25035002   3.165   3.631   5.494 -0.9357  0.0766 -1.9788
   97MOL   H25135003   3.441   3.744   5.446  1.5716 -1.6903  2.4499
   97MOL   H25235004   3.303   3.838   5.462 -1.9002 -2.8434 -1.8899
   97MOL   H25335005   3.369   3.770   5.611 -0.7518  1.5172  0.0064
   97MOL   C25435006   3.434   3.250   5.753  0.5883 -0.3425 -0.2698
   97MOL   C25535007   3.569   3.173   5.777 -0.0503 -0.2851 -0.7336
   97MOL   C25635008   3.664   3.170   5.659  0.9535  0.0903 -0.1184
   97MOL   C25735009   3.600   3.127   5.523  0.2784 -0.1733 -0.4171
   97MOL   C25835010   3.702   3.145   5.408  1.1353  0.3645  0.0615
   97MOL   C25935011   3.730   3.288   5.371 -0.1629 -0.3853  0.1344
   97MOL   H26035012   3.400   3.207   5.659  0.8828 -1.1496 -0.0062
   97MOL   H26135013   3.359   3.229   5.829 -0.4709 -0.0972 -1.2271
   97MOL   H26235014   3.620   3.223   5.859  0.6695  0.1424 -1.4338
   97MOL   H26335015   3.696   3.273   5.642  0.4808 -0.2439 -3.3168
   97MOL   H26435016   3.747   3.102   5.678  1.1401  0.0065 -1.2107
   97MOL   H26535017   3.560   3.025   5.520 -2.3503  0.8543 -1.3678
   97MOL   H26635018   3.518   3.193   5.494  0.4637  1.1110  1.8530
   97MOL   H26735019   3.656   3.101   5.320  1.0215  2.2790 -0.8721
   97MOL   H26835020   3.797   3.093   5.424  1.4107  1.0950  0.8470
   97MOL   H26935021   3.769   3.308   5.271 -1.5673  0.4664 -0.2523
   97MOL   H27035022   3.812   3.331   5.429 -1.4764  0.5417  1.3422
   97MOL   H27135023   3.648   3.357   5.393 -0.6112 -0.4201 -1.4054
   97MOL   C27235024   3.545   3.020   5.830 -0.3053  0.2465  0.2871
   97MOL   C27335025   3.489   2.997   5.971 -0.2075 -0.2264 -0.1859
   97MOL   C27435026   3.334   3.001   5.977 -0.0067  0.0494  0.0949
   97MOL   C27535027   3.265   2.875   6.042 -0.0766 -0.2660 -0.3303
   97MOL   C27635028   3.280   2.859   6.197  1.0522  0.5448 -0.0884
   97MOL   C27735029   3.194   2.950   6.284  0.2378 -0.5517  0.4984
   97MOL   H27835030   3.483   2.972   5.753  1.6342  0.7973 -1.6491
   97MOL   H27935031   3.631   2.955   5.818 -1.4522 -1.5351  1.4953
   97MOL   H28035032   3.517   2.897   6.003 -0.5021  0.0208  0.8873
   97MOL   H28135033   3.288   3.012   5.879  1.7058 -0.4391 -0.7918
   97MOL   H28235034   3.297   3.087   6.032  0.9026  0.7036 -0.3196
   97MOL   H28335035   3.298   2.789   5.984 -0.4467 -0.7187  0.1171
   97MOL   H28435036   3.157   2.878   6.022 -0.1869  1.6817  0.5067
   97MOL   H28535037   3.268   2.752   6.216  0.5443  0.7232  0.6075
   97MOL   H28635038   3.384   2.876   6.227  0.5039 -0.4589  2.5510
   97MOL   H28735039   3.089   2.925   6.296  0.3494 -1.9721 -1.2184
   97MOL   H28835040   3.234   2.963   6.385 -1.4718 -0.4535  1.1698
   97MOL   H28935041   3.187   3.047   6.235 -3.5794 -1.9244 -1.8689
   97MOL   C29035042   3.563   3.075   6.081  0.6212  0.0153 -0.0149
   97MOL   C29135043   3.712   3.073   6.077 -0.2786 -0.2309 -0.9900
   97MOL   C29235044   3.777   3.174   6.176  0.3737 -0.4970  0.6235
   97MOL   C29335045   3.752   3.327   6.150  0.4630  0.6484  0.0823
   97MOL   C29435046   3.798   3.416   6.275  0.0483  0.8677  0.4803
   97MOL   C29535047   3.781   3.567   6.238  0.8552  0.3456  0.5841
   97MOL   H29635048   3.526   3.041   6.178 -0.7760  0.9942 -0.1843
   97MOL   H29735049   3.516   3.172   6.061 -1.2539 -0.7962  0.3002
   97MOL   H29835050   3.748   3.104   5.979  0.2111  0.5544 -0.5659
   97MOL   H29935051   3.886   3.167   6.186  0.2003 -2.5250  1.4269
   97MOL   H30035052   3.734   3.138   6.270  0.4800 -0.9259  0.5124
   97MOL   H30135053   3.815   3.346   6.063  1.8422 -2.1920  0.4017
   97MOL   H30235054   3.656   3.359   6.108  0.6041  0.5229 -0.3385
   97MOL   H30335055   3.901   3.392   6.299  0.2180  1.4621  0.3594
   97MOL   H30435056   3.727   3.389   6.353 -0.3713  2.1631  0.5663
   97MOL   H30535057   3.826   3.591   6.142 -0.5960 -0.4731 -0.3085
   97MOL   H30635058   3.825   3.644   6.302 -1.0742  2.5616 -0.6596
   97MOL   H30735059   3.680   3.592   6.207  1.0893 -0.3246 -0.7562
   97MOL   C30835060   3.765   2.933   6.112 -0.2287  0.1054 -0.3367
   97MOL   C30935061   3.911   2.905   6.083 -0.1803 -0.6604 -0.0602
   97MOL   C31035062   3.929   2.858   5.939  0.2473 -0.0640 -0.0635
   97MOL   C31135063   4.073   2.859   5.901  0.5811  0.1933  0.0128
   97MOL   C31235064   4.101   2.802   5.762 -0.7739 -0.1694  0.2318
   97MOL   C31335065   4.087   2.650   5.741  0.1981 -0.6974 -0.6714
   97MOL   H31435066   3.735   2.913   6.214  0.8451 -2.2220 -0.4617
   97MOL   H31535067   3.703   2.857   6.065 -3.0258  0.3302  2.8056
   97MOL   H31635068   3.961   3.002   6.086  1.7540 -1.6705  0.7678
   97MOL   H31735069   3.879   2.925   5.870  1.6095 -0.2651 -1.2733
   97MOL   H31835070   3.873   2.768   5.916  1.2331  0.2266 -3.9775
   97MOL   H31935071   4.116   2.791   5.975  0.8590  1.7110  1.2645
   97MOL   H32035072   4.123   2.955   5.913 -0.1082  0.6086 -0.4257
   97MOL   H32135073   4.039   2.853   5.689  0.0064  0.8122  0.2434
   97MOL   H32235074   4.203   2.827   5.733 -1.0631  1.6714  0.7805
   97MOL   H32335075   4.005   2.598   5.789  0.5036  0.2179  0.8830
   97MOL   H32435076   4.181   2.605   5.772  0.2958 -1.5171 -2.0962
   97MOL   H32535077   4.075   2.640   5.633 -1.9281 -0.5754 -0.4673
   97MOL   C32635078   3.977   2.815   6.192  0.4134  0.1248 -0.4258
   97MOL   C32735079   3.907   2.676   6.212 -1.0282 -0.4417 -0.0239
   97MOL   C32835080   3.963   2.568   6.119 -0.2304 -0.0479 -0.5664
   97MOL   C32935081   4.105   2.526   6.162 -0.0210  0.6443  0.2140
   97MOL   C33035082   4.166   2.431   6.058 -0.6596  0.3040 -0.8366
   97MOL   C33135083   4.303   2.376   6.089 -0.9156  0.2657  0.5916
   97MOL   H33235084   3.985   2.872   6.285  2.1422 -0.0835 -0.4255
   97MOL   H33335085   4.084   2.802   6.173  0.2674  0.6579 -1.6411
   97MOL   H33435086   3.801   2.686   6.188 -1.0055 -0.1071  0.0109
   97MOL   H33535087   3.894   2.484   6.117  0.6076 -0.7997  0.8303
   97MOL   H33635088   3.969   2.615   6.021  2.1316  0.3622 -0.2571
   97MOL   H33735089   4.105   2.488   6.263  2.3431 -0.3020 -0.0957
   97MOL   H33835090   4.163   2.618   6.176 -0.1822  1.1280 -2.0312
   97MOL   H33935091   4.093   2.353   6.039  0.5809 -1.0033 -0.3178
   97MOL   H34035092   4.170   2.478   5.960 -1.7815  0.8645 -0.6197
   97MOL   H34135093   4.326   2.276   6.051  1.3158  0.6292  0.9149
   97MOL   H34235094   4.310   2.366   6.197 -2.1449 -2.8762  0.4488
   97MOL   H34335095   4.377   2.446   6.051  0.4757 -0.9045  1.0969
   97MOL   C34435096   3.911   2.630   6.354 -0.1360  0.1964 -0.4699
   97MOL   C34535097   3.818   2.707   6.454 -0.1872  0.2915  0.7036
   97MOL   C34635098   3.669   2.678   6.429  0.4698  0.5983 -0.2876
   97MOL   C34735099   3.584   2.749   6.543  0.0284  0.2391  0.1675
   97MOL   C34835100   3.443   2.738   6.526  0.7407  1.0256 -0.3594
   97MOL   C34935101   3.365   2.837   6.608  0.2346 -0.2627  0.2179
   97MOL   H35035102   3.900   2.522   6.364  0.7338  0.2110  0.7875
   97MOL   H35135103   4.010   2.662   6.387 -0.2093  1.8890 -1.7924
   97MOL   H35235104   3.832   2.814   6.446  0.9851  0.0509 -0.9215
   97MOL   H35335105   3.635   2.716   6.333 -1.4676 -0.3506 -0.0083
   97MOL   H35435106   3.638   2.574   6.430 -1.6235  1.2055  0.3856
   97MOL   H35535107   3.610   2.703   6.638 -0.6899 -0.4247  0.0434
   97MOL   H35635108   3.628   2.849   6.552  0.9715 -0.1143 -0.3511
   97MOL   H35735109   3.420   2.748   6.419 -0.0011  1.6676 -0.1443
   97MOL   H35835110   3.410   2.638   6.555 -0.3408  2.1682  2.5067
   97MOL   H35935111   3.384   2.813   6.713 -1.0410  0.7674  0.7064
   97MOL   H36035112   3.413   2.935   6.602  1.6411 -1.0117 -0.8063
   97MOL   H36135113   3.262   2.853   6.576  0.2860 -1.1008 -0.3616
   97MOL   H36235114   3.860   2.683   6.552  0.5156 -0.5753  0.2055
   98MOL     C135115   2.269   0.870   2.830 -0.9578 -0.2714 -0.6096
   98MOL     C235116   2.280   0.945   2.695 -0.2456 -0.1151  0.4342
   98MOL     C335117   2.150   1.024   2.664 -0.4335 -0.4563  0.7031
   98MOL     C435118   2.118   1.143   2.754 -0.0163 -0.6795 -0.0262
   98MOL     C535119   2.009   1.233   2.709  0.2143  0.4121  0.0702
   98MOL     C635120   1.985   1.357   2.800  0.3232  0.1008  0.0481
   98MOL     H735121   2.207   0.930   2.897 -2.7957 -1.9100 -0.7658
   98MOL     H835122   2.217   0.774   2.831 -2.5199  0.5465 -1.5608
   98MOL     H935123   2.365   1.013   2.698  0.6901 -1.2666  0.3202
   98MOL    H1035124   2.071   0.950   2.678  0.7293 -1.1154  4.3208
   98MOL    H1135125   2.158   1.064   2.563  0.9966  1.2982  1.4700
   98MOL    H1235126   2.202   1.210   2.768 -0.7728  0.4628 -0.8146
   98MOL    H1335127   2.094   1.101   2.851 -0.5765 -1.7016 -0.6054
   98MOL    H1435128   2.030   1.267   2.608 -1.1167 -0.3990 -0.4921
   98MOL    H1535129   1.910   1.188   2.700  1.0782 -1.4601 -0.1099
   98MOL    H1635130   1.923   1.438   2.761  0.7803 -0.8433 -2.7788
   98MOL    H1735131   2.081   1.389   2.839  0.0976  0.4302  0.3305
   98MOL    H1835132   1.924   1.341   2.888 -1.1883  0.7118 -0.8745
   98MOL    H1935133   2.364   0.828   2.864 -0.5013  1.0609 -0.2329
   98MOL    C2035134   2.313   0.841   2.587  0.0027  0.1986  0.5606
   98MOL    C2135135   2.343   0.880   2.434 -0.3900 -0.1862 -0.3655
   98MOL    C2235136   2.490   0.878   2.390 -0.1161 -1.0894  0.8681
   98MOL    C2335137   2.591   0.943   2.494  0.2248 -0.4994 -0.0928
   98MOL    C2435138   2.731   0.916   2.454  0.4324  0.0555  0.1138
   98MOL    C2535139   2.825   0.977   2.560  0.2178  0.3139  0.1372
   98MOL    H2635140   2.231   0.769   2.583  0.0505  0.0125  2.6377
   98MOL    H2735141   2.388   0.775   2.630 -2.6893 -1.8160  2.3824
   98MOL    H2835142   2.298   0.978   2.416  0.6132  0.5592  1.0463
   98MOL    H2935143   2.510   0.908   2.287 -0.6694  0.4570  1.1941
   98MOL    H3035144   2.529   0.777   2.384  0.0137 -0.9693 -0.5829
   98MOL    H3135145   2.566   0.902   2.592 -3.0776  0.9753 -0.2431
   98MOL    H3235146   2.582   1.051   2.509  1.2512 -0.4211 -0.0100
   98MOL    H3335147   2.765   0.813   2.455 -1.3428 -0.5490  0.3090
   98MOL    H3435148   2.745   0.964   2.357  1.9377  1.3761  0.9630
   98MOL    H3535149   2.932   0.985   2.546 -0.0878  2.0497 -1.5778
   98MOL    H3635150   2.788   1.079   2.572  0.9198  0.7419 -1.1548
   98MOL    H3735151   2.799   0.936   2.658 -3.1495  0.5156 -0.5942
   98MOL    C3835152   2.250   0.801   2.340  0.2596 -0.0554  0.1642
   98MOL    C3935153   2.106   0.853   2.324  0.1996 -0.1074 -0.6485
   98MOL    C4035154   2.089   0.958   2.204  0.2501 -0.1600  0.2964
   98MOL    C4135155   1.970   1.055   2.216 -0.3733 -0.5466  0.1659
   98MOL    C4235156   1.990   1.187   2.149 -0.2738  0.2714 -0.1192
   98MOL    C4335157   1.858   1.255   2.129 -0.4877  1.1607  0.0848
   98MOL    H4435158   2.253   0.695   2.364  0.8134  0.1643  1.0831
   98MOL    H4535159   2.304   0.794   2.246  1.9904 -1.7351  1.2553
   98MOL    H4635160   2.075   0.901   2.417  0.6166 -0.9280 -0.0869
   98MOL    H4735161   2.186   1.008   2.200  0.1779  0.1353  1.8587
   98MOL    H4835162   2.083   0.906   2.108 -2.6707 -0.0345  0.3843
   98MOL    H4935163   1.878   1.013   2.177  0.4837 -0.5679 -1.9225
   98MOL    H5035164   1.954   1.078   2.321  0.7588  1.2980 -0.0358
   98MOL    H5135165   2.043   1.256   2.214  0.3540 -1.2927  1.0579
   98MOL    H5235166   2.054   1.184   2.060  1.3508  0.3552  1.0400
   98MOL    H5335167   1.895   1.344   2.077 -2.3473  0.7014 -2.1084
   98MOL    H5435168   1.809   1.291   2.219 -2.9982  0.4372 -0.9412
   98MOL    H5535169   1.785   1.193   2.077  1.2079 -2.5384  1.9712
   98MOL    C5635170   2.015   0.730   2.291  0.0430  0.1234  0.4947
   98MOL    C5735171   1.959   0.655   2.420  0.1317  0.0588  0.9435
   98MOL    C5835172   1.893   0.518   2.383 -0.7307 -0.1218 -0.2491
   98MOL    C5935173   1.773   0.506   2.288  0.8157 -0.3012  0.0395
   98MOL    C6035174   1.714   0.360   2.295  0.2187  0.5714  0.9888
   98MOL    C6135175   1.609   0.351   2.184 -0.7750  0.5756  0.2410
   98MOL    H6235176   1.929   0.772   2.239 -0.3715 -1.2761  0.0189
   98MOL    H6335177   2.072   0.667   2.223 -1.4698  0.7971 -1.4309
   98MOL    H6435178   2.046   0.628   2.479 -0.0639  1.0268  1.6873
   98MOL    H6535179   1.973   0.465   2.333  0.1755  1.5666 -0.6373
   98MOL    H6635180   1.868   0.462   2.474 -0.6031 -0.3336 -0.3475
   98MOL    H6735181   1.808   0.537   2.189  0.4076  0.2805  0.0726
   98MOL    H6835182   1.695   0.577   2.314  1.0765 -0.4883  1.3597
   98MOL    H6935183   1.787   0.281   2.284  0.6373  0.7376  2.5176
   98MOL    H7035184   1.673   0.346   2.395 -3.0163  0.4475 -0.2863
   98MOL    H7135185   1.546   0.264   2.203 -1.9230  0.7407 -2.5621
   98MOL    H7235186   1.554   0.446   2.186  0.7122  1.5546 -2.8583
   98MOL    H7335187   1.659   0.347   2.088 -0.4007  1.7646  0.3763
   98MOL    C7435188   1.869   0.736   2.510  0.1222 -0.0969 -0.0455
   98MOL    C7535189   1.786   0.671   2.636  0.1923  0.1340 -0.3128
   98MOL    C7635190   1.886   0.616   2.738 -0.1744 -0.0678 -0.6863
   98MOL    C7735191   1.824   0.511   2.832 -0.1649  0.1921 -0.7490
   98MOL    C7835192   1.923   0.412   2.903 -0.5344 -0.1280 -0.3684
   98MOL    C7935193   1.856   0.351   3.025 -0.1153 -0.6521 -0.0810
   98MOL    H8035194   1.926   0.822   2.544  2.7173 -0.9828 -2.0337
   98MOL    H8135195   1.788   0.775   2.448 -0.1781 -1.7546 -0.7386
   98MOL    H8235196   1.725   0.591   2.593  0.0217  0.6296 -0.9857
   98MOL    H8335197   1.974   0.564   2.700  2.1021  0.4784  3.4450
   98MOL    H8435198   1.947   0.691   2.789  0.3177 -0.8035 -0.1637
   98MOL    H8535199   1.758   0.556   2.906  0.4327 -0.5665  0.2623
   98MOL    H8635200   1.756   0.453   2.769 -0.2159  0.4199 -0.9060
   98MOL    H8735201   2.011   0.468   2.936 -1.2931  1.2085 -0.5938
   98MOL    H8835202   1.958   0.329   2.841 -0.0333  0.1494 -0.4629
   98MOL    H8935203   1.748   0.332   3.020  0.1414 -1.6444 -2.4827
   98MOL    H9035204   1.908   0.262   3.059  1.9166  0.4748 -0.2020
   98MOL    H9135205   1.871   0.428   3.101  0.0287 -0.3152 -0.4465
   98MOL    C9235206   1.687   0.780   2.695  0.1025 -0.5594  0.0019
   98MOL    C9335207   1.592   0.753   2.813  0.4366 -0.2110  0.5341
   98MOL    C9435208   1.519   0.880   2.865  0.5326  0.3159 -0.0931
   98MOL    C9535209   1.610   0.991   2.928  0.2933  0.7963 -0.2075
   98MOL    C9635210   1.530   1.112   2.973 -0.8206  0.4707 -0.9531
   98MOL    C9735211   1.620   1.236   2.992  0.6173 -0.1166 -0.2670
   98MOL    H9835212   1.758   0.857   2.726 -1.2000  1.0026 -0.8309
   98MOL    H9935213   1.629   0.829   2.617  0.1408 -2.2293 -1.0992
   98MOL   H10035214   1.655   0.734   2.900 -0.3802  0.8868  1.3841
   98MOL   H10135215   1.451   0.840   2.940  0.6332 -1.8431 -1.1125
   98MOL   H10235216   1.457   0.925   2.788 -0.9615  0.1594  1.0071
   98MOL   H10335217   1.680   0.954   3.003  1.3268  0.4561 -1.3056
   98MOL   H10435218   1.686   1.025   2.857 -0.2641  0.7766 -0.8113
   98MOL   H10535219   1.442   1.127   2.912 -0.4472 -1.7685 -2.0731
   98MOL   H10635220   1.484   1.077   3.066  0.4320 -1.2166 -0.9395
   98MOL   H10735221   1.705   1.210   3.054 -0.3071 -0.8818  0.6921
   98MOL   H10835222   1.659   1.265   2.894 -1.5534 -1.7573 -1.6738
   98MOL   H10935223   1.563   1.320   3.032 -0.8910 -0.3133 -1.9319
   98MOL   C11035224   1.498   0.632   2.784  0.2258 -0.3422 -0.4885
   98MOL   C11135225   1.380   0.656   2.683 -0.1986 -0.0218  0.4016
   98MOL   C11235226   1.240   0.621   2.744 -0.5222 -0.0206  0.4724
   98MOL   C11335227   1.204   0.705   2.866 -0.0919  0.3142  0.4287
   98MOL   C11435228   1.170   0.854   2.828 -0.4350  0.1171  0.3242
   98MOL   C11535229   1.046   0.888   2.730  0.2646  0.7426  0.6390
   98MOL   H11635230   1.556   0.547   2.749 -0.0984 -0.7844  0.0385
   98MOL   H11735231   1.464   0.595   2.880  0.0195  1.9914  0.3601
   98MOL   H11835232   1.373   0.761   2.654  1.7692 -0.1585 -0.6498
   98MOL   H11935233   1.234   0.521   2.787 -2.1577 -0.9924 -1.9232
   98MOL   H12035234   1.163   0.621   2.667 -0.7878 -1.0267  0.7276
   98MOL   H12135235   1.279   0.707   2.945 -0.8040  0.4484  1.1075
   98MOL   H12235236   1.127   0.653   2.922 -0.7344 -0.9104 -1.5465
   98MOL   H12335237   1.258   0.902   2.785 -0.4115  0.4564  0.7496
   98MOL   H12435238   1.146   0.908   2.920 -1.1614 -0.8662  0.7174
   98MOL   H12535239   0.948   0.865   2.771  1.2214 -0.9050  2.0754
   98MOL   H12635240   1.046   0.995   2.707  2.9497  0.8594  1.0437
   98MOL   H12735241   1.049   0.846   2.630  1.7516 -1.1890  1.4655
   98MOL   C12835242   1.406   0.574   2.560 -0.5436 -0.2726 -0.2099
   98MOL   C12935243   1.326   0.617   2.428 -0.2804 -0.7317  0.5155
   98MOL   C13035244   1.319   0.496   2.334  0.1341  0.1188 -0.3137
   98MOL   C13135245   1.203   0.404   2.380 -0.0187  0.0471  0.2347
   98MOL   C13235246   1.069   0.435   2.310  0.0118  0.0290 -0.3989
   98MOL   C13335247   0.966   0.345   2.357 -0.5399 -0.0043 -0.1701
   98MOL   H13435248   1.385   0.472   2.592 -2.3602 -0.1075 -0.8486
   98MOL   H13535249   1.511   0.567   2.529  0.1445 -1.0321  2.1584
   98MOL   H13635250   1.228   0.659   2.453  0.3060  0.8907  0.1926
   98MOL   H13735251   1.315   0.522   2.228 -2.5189 -2.8839 -1.0353
   98MOL   H13835252   1.407   0.434   2.355 -1.0672 -1.2735  0.7170
   98MOL   H13935253   1.189   0.422   2.486 -0.0697  0.7061  0.1182
   98MOL   H14035254   1.243   0.305   2.355 -1.2358 -0.1123 -1.1595
   98MOL   H14135255   1.038   0.537   2.335 -2.6188 -0.6851 -0.5619
   98MOL   H14235256   1.066   0.448   2.202  1.1280  2.0226 -0.2156
   98MOL   H14335257   0.954   0.346   2.466 -1.8295  1.8044 -0.3004
   98MOL   H14435258   0.994   0.245   2.324  1.6428  0.0854  1.2738
   98MOL   H14535259   0.867   0.366   2.318 -0.7559 -1.6851 -0.5426
   98MOL   C14635260   1.393   0.732   2.347 -0.2779  0.4216 -0.3712
   98MOL   C14735261   1.296   0.806   2.251  0.2059 -0.7185 -0.4341
   98MOL   C14835262   1.370   0.900   2.155  0.2154 -0.1207 -0.1651
   98MOL   C14935263   1.465   0.820   2.062  0.2193 -0.5837  0.4103
   98MOL   C15035264   1.607   0.861   2.090 -0.1661 -0.0258  0.8819
   98MOL   C15135265   1.706   0.805   1.983  0.2931  0.2199 -0.4435
   98MOL   H15235266   1.435   0.806   2.416 -1.3599  1.3618 -0.7035
   98MOL   H15335267   1.474   0.692   2.287  1.8740 -0.2728  2.8675
   98MOL   H15435268   1.245   0.734   2.187  0.1553 -0.5534 -0.5821
   98MOL   H15535269   1.425   0.966   2.221  0.4108 -1.4445  1.0081
   98MOL   H15635270   1.299   0.949   2.088 -0.9111 -1.8515 -0.2855
   98MOL   H15735271   1.462   0.712   2.079  0.6354 -0.5873  0.4685
   98MOL   H15835272   1.434   0.836   1.959  1.3706  1.9070  0.4286
   98MOL   H15935273   1.651   0.833   2.185  2.9952 -1.8418 -1.0239
   98MOL   H16035274   1.615   0.969   2.080 -2.0171 -0.0100 -0.7113
   98MOL   H16135275   1.810   0.835   1.999  0.0684  0.1263  1.2664
   98MOL   H16235276   1.696   0.697   1.989  0.0704  0.3290  1.2315
   98MOL   H16335277   1.675   0.838   1.884  1.4396 -0.0988 -0.9113
   98MOL   C16435278   1.179   0.885   2.322 -0.8171 -0.9021  0.0370
   98MOL   C16535279   1.094   0.989   2.246 -0.0538  0.5007  0.9670
   98MOL   C16635280   1.025   0.930   2.119 -0.3488 -0.5713 -0.0783
   98MOL   C16735281   0.971   1.041   2.023  0.2657 -0.3314 -0.2919
   98MOL   C16835282   0.922   0.987   1.884  0.2617  0.1933  1.0334
   98MOL   C16935283   0.886   1.099   1.782  0.0357 -0.4003 -0.3673
   98MOL   H17035284   1.113   0.804   2.352  0.3670 -0.9458  2.6181
   98MOL   H17135285   1.220   0.926   2.414 -0.5895 -1.2869  0.1080
   98MOL   H17235286   1.165   1.062   2.208 -1.7142  0.9035 -1.4660
   98MOL   H17335287   0.945   0.860   2.139 -0.6959 -0.9387 -2.6157
   98MOL   H17435288   1.100   0.880   2.057  0.3159 -1.4034  1.3750
   98MOL   H17535289   1.059   1.106   2.018 -0.7879  1.4523  2.6753
   98MOL   H17635290   0.888   1.104   2.056  0.3456 -1.2941  1.8782
   98MOL   H17735291   0.836   0.922   1.895  1.8182 -1.7387  2.3107
   98MOL   H17835292   1.001   0.922   1.845 -2.1237 -1.1251 -1.7228
   98MOL   H17935293   0.826   1.067   1.697  0.6795 -2.3239 -0.1371
   98MOL   H18035294   0.973   1.145   1.735  1.6275 -2.2902  0.6107
   98MOL   H18135295   0.829   1.177   1.832 -0.3917 -0.7123 -0.3587
   98MOL   C18235296   0.977   1.047   2.337  0.0042 -0.3402  0.3136
   98MOL   C18335297   1.026   1.139   2.455 -0.4876  0.5191 -0.0012
   98MOL   C18435298   0.902   1.175   2.550 -0.2218 -0.8276  0.4262
   98MOL   C18535299   0.803   1.283   2.497 -0.0715  0.1953  0.1217
   98MOL   C18635300   0.678   1.279   2.581  0.6836 -0.7625 -0.0829
   98MOL   C18735301   0.704   1.318   2.730 -0.8368 -0.3118  0.7507
   98MOL   H18835302   0.909   1.111   2.280 -0.8873 -0.0476  1.6788
   98MOL   H18935303   0.913   0.975   2.388 -0.9924  1.0611  1.0751
   98MOL   H19035304   1.099   1.081   2.511  3.0840  2.2980 -2.5381
   98MOL   H19135305   0.855   1.081   2.579 -1.1327 -0.3389  0.5426
   98MOL   H19235306   0.945   1.208   2.644  0.9781 -0.1193 -0.3518
   98MOL   H19335307   0.768   1.267   2.395 -2.0295  0.0415  0.8042
   98MOL   H19435308   0.848   1.381   2.487  1.8970 -0.7031 -0.0072
   98MOL   H19535309   0.641   1.176   2.576 -0.2068 -0.4020 -1.3494
   98MOL   H19635310   0.600   1.342   2.537  1.5877 -0.6574 -1.5552
   98MOL   H19735311   0.763   1.410   2.736 -0.1124 -0.7968  1.1715
   98MOL   H19835312   0.762   1.241   2.780 -1.1548  0.2676  2.0511
   98MOL   H19935313   0.619   1.343   2.793 -0.5165  0.1356  1.0151
   98MOL   C20035314   1.099   1.264   2.410 -0.4434  0.4315  0.1488
   98MOL   C20135315   1.182   1.347   2.510  0.7547 -0.0221  0.7209
   98MOL   C20235316   1.296   1.274   2.578 -0.3920 -0.4580  0.3738
   98MOL   C20335317   1.415   1.232   2.489  0.7845 -0.1121  0.3415
   98MOL   C20435318   1.529   1.198   2.584  0.3788 -0.4653  0.9017
   98MOL   C20535319   1.634   1.117   2.505  0.1228 -0.2425 -0.3837
   98MOL   H20635320   1.024   1.332   2.369 -0.2201 -0.6157 -2.0810
   98MOL   H20735321   1.159   1.241   2.323 -2.3037 -1.5061 -0.6706
   98MOL   H20835322   1.113   1.374   2.590 -0.8643 -1.5798 -0.1068
   98MOL   H20935323   1.247   1.192   2.631  1.9970 -2.0794  0.1207
   98MOL   H21035324   1.330   1.343   2.655 -1.0417 -1.6826  1.7953
   98MOL   H21135325   1.445   1.309   2.418 -1.6440  0.9432  0.4187
   98MOL   H21235326   1.391   1.147   2.425  0.0906  1.3884 -1.4420
   98MOL   H21335327   1.493   1.139   2.669 -0.8141 -1.7592 -0.4642
   98MOL   H21435328   1.567   1.290   2.628 -0.2455  0.9530 -1.4557
   98MOL   H21535329   1.589   1.021   2.482 -1.0435 -0.2001  1.5825
   98MOL   H21635330   1.657   1.171   2.412 -2.4638  1.7138  0.0623
   98MOL   H21735331   1.723   1.114   2.568 -1.1388  0.1830  1.4448
   98MOL   C21835332   1.234   1.479   2.447 -0.1670 -0.3911 -0.2802
   98MOL   C21935333   1.296   1.584   2.539 -0.1227 -0.0647 -0.2978
   98MOL   C22035334   1.196   1.638   2.654 -0.3845  0.0769  0.9938
   98MOL   C22135335   1.047   1.676   2.613 -0.2122  0.2800 -0.2407
   98MOL   C22235336   0.979   1.768   2.713 -0.2362  0.7684  0.3537
   98MOL   C22335337   0.967   1.706   2.853  0.2936 -1.0001  0.4339
   98MOL   H22435338   1.300   1.445   2.367 -0.3462  2.1356 -1.5436
   98MOL   H22535339   1.160   1.538   2.394  0.2089 -0.6951 -1.1484
   98MOL   H22635340   1.377   1.541   2.596  0.1710 -1.8496 -2.0143
   98MOL   H22735341   1.246   1.723   2.702 -0.8285  0.5086  0.6992
   98MOL   H22835342   1.192   1.552   2.720  0.6569  1.0527  2.3607
   98MOL   H22935343   0.991   1.590   2.574  0.0532 -1.0114  2.1722
   98MOL   H23035344   1.041   1.726   2.516  0.0710 -3.3340 -2.2235
   98MOL   H23135345   1.032   1.863   2.719  0.7408  0.2210  0.5653
   98MOL   H23235346   0.881   1.784   2.669 -0.4928 -2.5644 -0.4750
   98MOL   H23335347   0.921   1.780   2.917  0.6586 -1.4004  1.1611
   98MOL   H23435348   1.065   1.688   2.897  0.5820 -0.3223  0.0817
   98MOL   H23535349   0.911   1.613   2.853 -0.7406 -0.4460 -2.9280
   98MOL   C23635350   1.354   1.705   2.455 -0.9462  0.6250  0.0183
   98MOL   C23735351   1.488   1.671   2.386  0.5641 -0.0796 -0.3176
   98MOL   C23835352   1.616   1.650   2.475 -0.5429  0.0801 -0.7544
   98MOL   C23935353   1.650   1.768   2.576  0.1753  0.6138 -0.1506
   98MOL   C24035354   1.786   1.752   2.656  0.2505 -0.0607  0.5345
   98MOL   C24135355   1.809   1.861   2.755  0.1947 -0.2397 -0.0377
   98MOL   H24235356   1.276   1.753   2.396 -0.4968 -0.2336 -1.2988
   98MOL   H24335357   1.366   1.787   2.525  1.6544 -0.5534  1.0278
   98MOL   H24435358   1.484   1.578   2.331 -1.0485  0.4736 -1.1578
   98MOL   H24535359   1.593   1.560   2.531 -0.1966  0.0214 -0.7089
   98MOL   H24635360   1.695   1.622   2.406 -0.5244 -0.3466 -0.5589
   98MOL   H24735361   1.565   1.775   2.644 -0.6422  0.2414 -1.1020
   98MOL   H24835362   1.660   1.861   2.519  1.7061 -0.7570 -2.1683
   98MOL   H24935363   1.778   1.658   2.709 -0.4646  0.1387  0.7805
   98MOL   H25035364   1.876   1.745   2.595 -1.3237 -0.5614 -1.8026
   98MOL   H25135365   1.734   1.878   2.832 -2.5267  0.5240 -2.7609
   98MOL   H25235366   1.900   1.838   2.811 -1.3297  0.2492  2.7365
   98MOL   H25335367   1.810   1.959   2.707  3.0472  1.0490  2.4642
   98MOL   C25435368   1.508   1.775   2.274 -0.4078 -0.4667  0.2142
   98MOL   C25535369   1.639   1.782   2.193 -0.3946 -0.4282  0.6472
   98MOL   C25635370   1.651   1.919   2.123 -0.1713 -0.4365 -0.4085
   98MOL   C25735371   1.546   1.945   2.015 -0.4283 -0.1948 -0.2798
   98MOL   C25835372   1.566   2.075   1.932 -0.7723  0.1148  1.1194
   98MOL   C25935373   1.480   2.067   1.814  0.1961  0.3459  0.0552
   98MOL   H26035374   1.489   1.875   2.314 -0.3986 -0.6729  0.7362
   98MOL   H26135375   1.421   1.770   2.210 -0.9991  0.1189  0.9598
   98MOL   H26235376   1.724   1.772   2.261 -0.8942 -1.5979  1.1141
   98MOL   H26335377   1.645   1.991   2.205  1.3019  0.4776 -1.0651
   98MOL   H26435378   1.756   1.927   2.096 -0.7580  3.1090 -1.9187
   98MOL   H26535379   1.552   1.863   1.943  1.9733 -1.6475  1.4910
   98MOL   H26635380   1.447   1.947   2.060  0.0777 -2.0064  0.9644
   98MOL   H26735381   1.672   2.079   1.905 -0.7187 -0.2541  1.2678
   98MOL   H26835382   1.551   2.162   1.994  0.6173 -1.2006  3.3731
   98MOL   H26935383   1.377   2.061   1.850 -0.4777 -1.0151 -1.9662
   98MOL   H27035384   1.500   1.981   1.750 -2.4352  0.7830 -1.4467
   98MOL   H27135385   1.487   2.154   1.749  1.0995  0.5631  0.4477
   98MOL   C27235386   1.661   1.665   2.091 -0.1733  0.3064 -0.4840
   98MOL   C27335387   1.789   1.682   2.001 -0.1789  0.3347 -0.2472
   98MOL   C27435388   1.785   1.575   1.895  0.6078  0.1337 -0.1297
   98MOL   C27535389   1.669   1.589   1.788  0.0972  0.1320  0.0245
   98MOL   C27635390   1.680   1.710   1.691 -0.4789 -0.0078  0.8352
   98MOL   C27735391   1.560   1.730   1.586 -0.3717  0.0153 -0.5079
   98MOL   H27835392   1.652   1.569   2.142  0.0934  0.9479  0.7893
   98MOL   H27935393   1.576   1.663   2.024 -0.6134 -2.4093  0.1026
   98MOL   H28035394   1.794   1.775   1.945 -1.2070 -0.7111 -2.1305
   98MOL   H28135395   1.786   1.481   1.950 -0.0126 -0.5551 -1.2836
   98MOL   H28235396   1.873   1.572   1.830  1.0858  1.5980  0.4440
   98MOL   H28335397   1.568   1.587   1.828 -0.4601 -0.9697 -1.4249
   98MOL   H28435398   1.695   1.506   1.723  0.1643  0.0632  0.1395
   98MOL   H28535399   1.691   1.801   1.750  0.5700  0.1683  0.3876
   98MOL   H28635400   1.773   1.695   1.637  0.2125 -0.6449  2.1689
   98MOL   H28735401   1.463   1.726   1.636  0.1506 -1.3838  0.4125
   98MOL   H28835402   1.556   1.819   1.523  1.5096  0.4341 -0.0770
   98MOL   H28935403   1.542   1.647   1.519 -1.1087  0.3837 -0.7702
   98MOL   C29035404   1.921   1.673   2.080 -0.1286  0.0461 -0.1741
   98MOL   C29135405   2.059   1.665   1.999  0.3358  0.5801 -0.0635
   98MOL   C29235406   2.064   1.784   1.910 -0.6436 -0.0485  0.7742
   98MOL   C29335407   2.075   1.920   1.978 -0.0543  0.3503  0.1860
   98MOL   C29435408   2.099   2.039   1.887  0.0805  0.2347 -0.4994
   98MOL   C29535409   2.093   2.180   1.961 -1.0347 -0.0347  0.3056
   98MOL   H29635410   1.909   1.588   2.148 -1.2964  1.1579  1.0283
   98MOL   H29735411   1.918   1.758   2.147  1.4927  0.2271 -0.3105
   98MOL   H29835412   2.082   1.577   1.939 -1.3489  0.2974 -0.3238
   98MOL   H29935413   1.980   1.784   1.840 -0.7993  1.3715  0.9494
   98MOL   H30035414   2.159   1.769   1.860 -1.0649  0.3639 -0.1706
   98MOL   H30135415   1.988   1.941   2.041  0.1664 -1.9542  1.3180
   98MOL   H30235416   2.164   1.921   2.041  0.6519  0.3277 -0.8097
   98MOL   H30335417   2.026   2.048   1.806  0.5886  0.5969 -0.9215
   98MOL   H30435418   2.197   2.033   1.840 -0.1399 -1.5841 -0.7759
   98MOL   H30535419   2.008   2.197   2.027 -1.2907  1.0378 -0.2982
   98MOL   H30635420   2.079   2.267   1.897  2.8367  1.5106  1.4184
   98MOL   H30735421   2.181   2.199   2.023 -2.4602  1.0095  2.0719
   98MOL   C30835422   2.164   1.659   2.109  1.0135 -0.2652  0.1511
   98MOL   C30935423   2.187   1.521   2.179  0.3727  0.3106  0.2506
   98MOL   C31035424   2.122   1.516   2.324 -0.2087  0.5409 -0.9381
   98MOL   C31135425   2.178   1.618   2.426 -0.4320  0.1187  0.6583
   98MOL   C31235426   2.131   1.572   2.562  0.4539  0.0384 -0.7193
   98MOL   C31335427   2.168   1.663   2.673 -0.3323  0.0503 -0.7242
   98MOL   H31435428   2.255   1.707   2.072  0.2239  0.1518 -1.3033
   98MOL   H31535429   2.129   1.724   2.189  1.0227  0.8787 -0.7624
   98MOL   H31635430   2.148   1.446   2.111  0.1937  1.2919 -0.7463
   98MOL   H31735431   2.127   1.415   2.365 -0.5709  0.8749 -0.0583
   98MOL   H31835432   2.015   1.531   2.336  0.0144  1.4068  0.0731
   98MOL   H31935433   2.147   1.722   2.412 -0.4247  0.2956  1.9151
   98MOL   H32035434   2.287   1.622   2.432 -0.4217  2.3908 -0.4334
   98MOL   H32135435   2.022   1.571   2.560  0.4125  1.6578 -0.0030
   98MOL   H32235436   2.167   1.472   2.583 -0.2913  0.3108  2.0756
   98MOL   H32335437   2.128   1.763   2.654 -0.0684  0.4170  0.6102
   98MOL   H32435438   2.276   1.676   2.674 -0.2177 -0.7921  1.5620
   98MOL   H32535439   2.138   1.636   2.775  1.3460  0.7132 -0.0406
   98MOL   C32635440   2.337   1.481   2.193  0.0023 -0.3811  0.5100
   98MOL   C32735441   2.414   1.467   2.061 -0.1228 -0.2945  0.5555
   98MOL   C32835442   2.567   1.464   2.091 -0.0178 -0.3409  0.5865
   98MOL   C32935443   2.658   1.489   1.967 -0.5476  0.2121 -0.0938
   98MOL   C33035444   2.670   1.633   1.924 -0.4302 -0.3697  0.3265
   98MOL   C33135445   2.752   1.662   1.802  0.1147 -0.2558  0.7910
   98MOL   H33235446   2.342   1.381   2.236  2.0889 -0.4714  0.1242
   98MOL   H33335447   2.391   1.534   2.272 -1.7327  1.6516  0.3888
   98MOL   H33435448   2.390   1.550   1.995 -0.0941 -0.8253 -0.1173
   98MOL   H33535449   2.575   1.551   2.156  1.5304 -0.9312  1.2057
   98MOL   H33635450   2.584   1.373   2.148 -1.4007 -1.4010 -0.6457
   98MOL   H33735451   2.633   1.433   1.877 -1.9315 -3.0930  2.2321
   98MOL   H33835452   2.758   1.454   1.994 -1.7494 -0.0873  4.3261
   98MOL   H33935453   2.572   1.680   1.919  0.0162  0.5748  0.3094
   98MOL   H34035454   2.722   1.683   2.006  0.9147 -0.1114 -0.6691
   98MOL   H34135455   2.775   1.769   1.798 -1.0014 -0.0339  0.1620
   98MOL   H34235456   2.706   1.623   1.712  1.7843 -0.4222 -0.0044
   98MOL   H34335457   2.847   1.611   1.817 -0.0303 -0.9437 -0.5698
   98MOL   C34435458   2.372   1.348   1.973  0.0350 -0.3683 -0.2577
   98MOL   C34535459   2.407   1.208   2.020 -0.4777  0.1389 -0.1098
   98MOL   C34635460   2.349   1.098   1.925  0.3166  0.8537  0.8745
   98MOL   C34735461   2.375   0.953   1.964 -0.0538  0.3861  0.9830
   98MOL   C34835462   2.513   0.911   1.918  0.5688 -0.7533  0.4226
   98MOL   C34935463   2.519   0.766   1.898 -0.0913 -0.2554 -0.1132
   98MOL   H35035464   2.267   1.341   1.945 -0.5129  3.3757  0.5935
   98MOL   H35135465   2.416   1.359   1.874 -2.7266 -0.8609 -1.5859
   98MOL   H35235466   2.362   1.192   2.118 -0.6623 -1.8324 -0.5124
   98MOL   H35335467   2.242   1.117   1.937  0.4505  2.7803 -0.6711
   98MOL   H35435468   2.373   1.123   1.822 -1.1237  0.0821  0.3411
   98MOL   H35535469   2.369   0.947   2.073  0.7823  0.8848  1.0657
   98MOL   H35635470   2.294   0.896   1.920  0.4685  0.1339  0.3472
   98MOL   H35735471   2.556   0.962   1.832  0.9966 -1.2668  0.3327
   98MOL   H35835472   2.590   0.956   1.982 -0.5120 -0.5051  1.5728
   98MOL   H35935473   2.459   0.741   1.810 -2.9014 -0.4821  1.7966
   98MOL   H36035474   2.621   0.737   1.874 -0.0844  0.1574 -0.5905
   98MOL   H36135475   2.487   0.702   1.980 -0.9621  1.1679  0.6581
   98MOL   H36235476   2.516   1.201   2.012 -0.3501  0.4622  1.1770
   99MOL     C135477   0.967   0.650   4.040 -0.4693 -0.3562 -0.0785
   99MOL     C235478   1.073   0.755   4.073  0.9953  0.1458  0.1057
   99MOL     C335479   1.015   0.864   4.160 -0.2577  0.0697  0.1204
   99MOL     C435480   0.956   0.809   4.297 -0.2030 -0.5129 -0.4417
   99MOL     C535481   0.912   0.911   4.398  0.6729 -0.1836  0.4621
   99MOL     C635482   1.023   0.974   4.481 -0.0942  0.2589 -0.1918
   99MOL     H735483   0.884   0.697   3.988 -0.9697  0.1357  1.1535
   99MOL     H835484   1.006   0.585   3.963  1.0380 -1.7719  1.8216
   99MOL     H935485   1.158   0.703   4.118  0.8773 -0.3892 -0.2857
   99MOL    H1035486   0.931   0.915   4.114 -0.4166 -0.3309 -0.0385
   99MOL    H1135487   1.082   0.949   4.170  1.1483 -0.9010 -0.8232
   99MOL    H1235488   1.028   0.740   4.343 -0.8963 -0.2746  1.0492
   99MOL    H1335489   0.878   0.735   4.279 -1.9702  0.9828  0.9775
   99MOL    H1435490   0.842   0.978   4.350  0.2321 -1.3931 -0.6120
   99MOL    H1535491   0.842   0.855   4.461  0.8035 -0.8681  0.0068
   99MOL    H1635492   1.097   0.912   4.532  0.3387  1.6777  0.9377
   99MOL    H1735493   0.983   1.033   4.563  1.2251  2.6483 -1.2245
   99MOL    H1835494   1.080   1.036   4.412  0.2300  1.1581  0.8772
   99MOL    H1935495   0.935   0.594   4.128  1.1843  0.4890  1.1067
   99MOL    C2035496   1.130   0.803   3.940  0.3560 -0.0213  0.3519
   99MOL    C2135497   1.245   0.896   3.937 -0.1558 -0.3868  0.0450
   99MOL    C2235498   1.375   0.811   3.923  0.6485  0.6208  0.5364
   99MOL    C2335499   1.512   0.894   3.932  0.8595  0.3490 -0.5783
   99MOL    C2435500   1.625   0.798   3.967  0.6524  0.0370 -0.2529
   99MOL    C2535501   1.752   0.877   3.994 -0.6123  0.0791  0.0076
   99MOL    H2635502   1.048   0.848   3.883  0.9000 -1.6161 -1.7423
   99MOL    H2735503   1.155   0.724   3.870 -0.6412 -0.4726  0.5022
   99MOL    H2835504   1.257   0.947   4.032 -2.0427  1.2559 -0.5600
   99MOL    H2935505   1.362   0.769   3.823  0.2067  0.4821  0.6515
   99MOL    H3035506   1.380   0.719   3.981 -0.0041  1.6410  2.2452
   99MOL    H3135507   1.503   0.973   4.006 -2.2349  0.2126 -0.7585
   99MOL    H3235508   1.535   0.951   3.842 -3.8585  0.6718 -1.7149
   99MOL    H3335509   1.595   0.735   4.051  0.0694  0.8567  0.1681
   99MOL    H3435510   1.637   0.736   3.878 -1.8227 -2.4706  1.1034
   99MOL    H3535511   1.789   0.942   3.914 -1.2635 -0.5943 -0.8571
   99MOL    H3635512   1.731   0.933   4.085  0.7714  0.7127 -0.0424
   99MOL    H3735513   1.838   0.813   4.014 -0.5365  0.2151  0.1147
   99MOL    C3835514   1.224   0.991   3.817 -0.0080  0.2420  0.2555
   99MOL    C3935515   1.123   1.101   3.836  0.3000 -0.3715  0.2017
   99MOL    C4035516   1.189   1.207   3.933  0.2664 -0.5556 -0.1760
   99MOL    C4135517   1.082   1.310   3.969 -0.1460 -0.3481 -0.6004
   99MOL    C4235518   1.127   1.414   4.075 -0.5572  0.0189  0.7600
   99MOL    C4335519   1.007   1.490   4.131 -0.6206  0.3385  0.1300
   99MOL    H4435520   1.198   0.929   3.732  0.1028  0.9101 -0.2744
   99MOL    H4535521   1.321   1.033   3.788  0.6916 -1.2900  0.3205
   99MOL    H4635522   1.038   1.067   3.895  1.0377 -1.0874  0.8663
   99MOL    H4735523   1.216   1.160   4.028  0.6368  0.3343  0.1655
   99MOL    H4835524   1.278   1.259   3.896 -0.7813  0.5809 -1.1230
   99MOL    H4935525   1.068   1.355   3.870  0.5065  0.2871 -0.4091
   99MOL    H5035526   0.993   1.264   4.012  0.7626  0.3200  2.0618
   99MOL    H5135527   1.167   1.356   4.159 -1.6090  0.1284  1.3370
   99MOL    H5235528   1.194   1.491   4.036 -0.4275 -0.9093 -0.8803
   99MOL    H5335529   1.042   1.551   4.215  2.7280 -1.0334 -0.1772
   99MOL    H5435530   0.927   1.426   4.167  0.4920 -1.9786 -1.4103
   99MOL    H5535531   0.961   1.556   4.057  2.1653  0.3078 -1.6948
   99MOL    C5635532   1.080   1.161   3.694 -0.1186 -0.0484 -0.3255
   99MOL    C5735533   0.929   1.187   3.674  0.3967 -0.1292  0.2354
   99MOL    C5835534   0.859   1.062   3.611  0.5858 -0.1007 -0.3723
   99MOL    C5935535   0.872   0.932   3.691  0.1476  0.5488 -0.4323
   99MOL    C6035536   0.778   0.826   3.623 -0.9231  0.3022 -0.9645
   99MOL    C6135537   0.767   0.692   3.681  0.3753  0.4741 -0.5175
   99MOL    H6235538   1.137   1.250   3.671  0.2820 -0.2392 -0.0687
   99MOL    H6335539   1.116   1.095   3.615 -0.2369  0.6109 -0.9280
   99MOL    H6435540   0.893   1.215   3.773  0.4463  3.3203 -0.6557
   99MOL    H6535541   0.755   1.085   3.589  0.6958  1.1964  0.4369
   99MOL    H6635542   0.905   1.044   3.514  3.4969 -2.3496  1.3247
   99MOL    H6735543   0.858   0.938   3.799  0.0798 -0.1221 -0.4022
   99MOL    H6835544   0.974   0.897   3.675  1.1817  3.6864 -1.1900
   99MOL    H6935545   0.675   0.850   3.600 -0.6774  1.2067 -1.1403
   99MOL    H7035546   0.815   0.808   3.522 -0.2590  1.8916 -1.0188
   99MOL    H7135547   0.745   0.613   3.610 -0.2634  0.9534 -0.8655
   99MOL    H7235548   0.853   0.665   3.742 -0.2841  0.8785  0.6085
   99MOL    H7335549   0.687   0.686   3.755  0.8063 -0.8698 -0.1551
   99MOL    C7435550   0.916   1.313   3.582 -0.4466 -0.2959  0.1964
   99MOL    C7535551   0.771   1.348   3.538  0.1043  0.4773  0.3207
   99MOL    C7635552   0.669   1.361   3.656 -0.1696 -0.2595  0.3918
   99MOL    C7735553   0.715   1.458   3.769 -0.5161  0.8655  0.0292
   99MOL    C7835554   0.616   1.463   3.890 -0.3203  0.3288  0.8914
   99MOL    C7935555   0.494   1.553   3.873  0.2048 -0.3327  0.2920
   99MOL    H8035556   0.963   1.397   3.633 -1.2501  1.5463 -2.0305
   99MOL    H8135557   0.974   1.285   3.494 -1.0195 -1.3301  0.1372
   99MOL    H8235558   0.734   1.267   3.474  0.6364  0.2567  0.2903
   99MOL    H8335559   0.569   1.375   3.615  0.8150  1.0398 -1.6656
   99MOL    H8435560   0.657   1.258   3.690 -1.3136 -0.7980 -1.6087
   99MOL    H8535561   0.815   1.429   3.799 -0.1107  0.6449 -1.5086
   99MOL    H8635562   0.713   1.554   3.716  1.1602 -0.3086 -2.2156
   99MOL    H8735563   0.675   1.499   3.975  0.9550 -0.0764  0.1866
   99MOL    H8835564   0.578   1.362   3.901 -0.0304 -0.1618 -2.1633
   99MOL    H8935565   0.437   1.505   3.794  0.7473 -1.1168  0.3709
   99MOL    H9035566   0.439   1.571   3.965 -1.0567  0.4382 -0.5814
   99MOL    H9135567   0.532   1.647   3.831  1.5866 -0.3146  1.5485
   99MOL    C9235568   0.766   1.483   3.460 -0.1396 -0.4196  0.0540
   99MOL    C9335569   0.824   1.491   3.312 -0.9496 -0.7131 -0.8487
   99MOL    C9435570   0.746   1.402   3.215 -0.2572  0.0591 -0.9283
   99MOL    C9535571   0.597   1.442   3.183 -0.2453 -0.2122 -0.5208
   99MOL    C9635572   0.543   1.386   3.049 -1.1396 -0.3040 -0.4098
   99MOL    C9735573   0.397   1.432   3.032  0.4176 -0.1623 -0.1301
   99MOL    H9835574   0.661   1.509   3.448 -0.2572 -0.4285  1.0477
   99MOL    H9935575   0.804   1.564   3.521 -1.1015 -0.9825  1.4441
   99MOL   H10035576   0.927   1.456   3.322 -0.7030  0.3783  0.4505
   99MOL   H10135577   0.748   1.299   3.249 -0.3562  0.3904  0.1000
   99MOL   H10235578   0.788   1.397   3.114 -0.2542 -1.9116 -0.8518
   99MOL   H10335579   0.531   1.413   3.265 -1.1099 -0.2494 -1.2306
   99MOL   H10435580   0.594   1.550   3.170  5.1009 -0.1244 -2.2875
   99MOL   H10535581   0.595   1.439   2.970  0.2980 -0.2744  0.5214
   99MOL   H10635582   0.558   1.279   3.033  1.0233 -0.2999  1.3268
   99MOL   H10735583   0.370   1.436   2.926  0.3218  0.2204 -0.0900
   99MOL   H10835584   0.334   1.368   3.095  0.0525  1.6940  1.4275
   99MOL   H10935585   0.395   1.534   3.071  0.2133  0.3040 -1.3438
   99MOL   C11035586   0.836   1.632   3.251  0.7245 -0.3391 -0.2789
   99MOL   C11135587   0.948   1.716   3.320 -0.7106 -0.0083  0.2276
   99MOL   C11235588   0.937   1.870   3.301  0.4050 -0.9211 -0.3207
   99MOL   C11335589   0.794   1.934   3.333 -0.6352 -0.3772 -0.0907
   99MOL   C11435590   0.748   1.899   3.475 -0.5145 -0.6393 -0.2786
   99MOL   C11535591   0.608   1.934   3.511  0.4645  0.5123 -0.2454
   99MOL   H11635592   0.861   1.628   3.145 -0.2834 -0.5482 -0.5103
   99MOL   H11735593   0.739   1.681   3.251  1.0375  0.3286  1.1903
   99MOL   H11835594   0.934   1.702   3.428 -1.2228  1.8456  0.4186
   99MOL   H11935595   0.946   1.893   3.195 -3.3135  2.3610 -0.0156
   99MOL   H12035596   1.018   1.911   3.361 -0.0994 -0.5728  0.1256
   99MOL   H12135597   0.728   1.900   3.253  0.1972  0.5352 -1.1735
   99MOL   H12235598   0.790   2.042   3.321  0.2417 -0.0525  2.2177
   99MOL   H12335599   0.817   1.949   3.543 -1.0711  0.5711 -0.6004
   99MOL   H12435600   0.759   1.791   3.486 -2.6939 -0.8180  0.4972
   99MOL   H12535601   0.546   1.871   3.447  1.6490  2.5715 -3.5240
   99MOL   H12635602   0.594   1.904   3.615  0.3119 -1.3945 -0.7857
   99MOL   H12735603   0.600   2.041   3.494  0.4358  0.4069 -0.9010
   99MOL   C12835604   1.094   1.671   3.285  0.0398 -0.4805 -0.8107
   99MOL   C12935605   1.211   1.734   3.374 -0.0927  0.4360 -0.0027
   99MOL   C13035606   1.265   1.852   3.291 -0.0195 -0.0707  0.4579
   99MOL   C13135607   1.364   1.946   3.369 -0.0656 -0.7401 -0.0660
   99MOL   C13235608   1.422   2.055   3.282  0.2736  0.0439 -0.3263
   99MOL   C13335609   1.321   2.168   3.228 -0.3448 -0.2060 -0.5315
   99MOL   H13435610   1.113   1.662   3.178 -2.9909  0.7358 -1.5041
   99MOL   H13535611   1.104   1.566   3.314  0.2249 -0.0824  0.5845
   99MOL   H13635612   1.164   1.766   3.467  3.3905 -1.2208  2.4756
   99MOL   H13735613   1.318   1.810   3.206 -1.5360 -0.0813 -0.5064
   99MOL   H13835614   1.195   1.920   3.242  0.6188  3.4112  4.1465
   99MOL   H13935615   1.440   1.885   3.420 -0.3064  0.9167  2.3486
   99MOL   H14035616   1.308   1.991   3.451 -0.6728 -0.8912 -0.3997
   99MOL   H14135617   1.504   2.097   3.340  1.0360 -0.2947 -1.1445
   99MOL   H14235618   1.477   2.006   3.201  1.5684 -0.3651  0.7839
   99MOL   H14335619   1.262   2.210   3.310 -2.3511  4.0596 -3.9413
   99MOL   H14435620   1.250   2.124   3.158  0.2337 -0.8388 -0.7181
   99MOL   H14535621   1.371   2.252   3.181 -2.4154  1.3090 -0.1271
   99MOL   C14635622   1.326   1.633   3.406  0.1713  0.9362 -0.0884
   99MOL   C14735623   1.302   1.536   3.522 -0.8962  0.2160  0.4255
   99MOL   C14835624   1.293   1.604   3.656 -0.2496  0.1206  0.1060
   99MOL   C14935625   1.404   1.703   3.687 -0.7564 -0.3449 -0.1466
   99MOL   C15035626   1.429   1.727   3.836  0.3642 -0.2422 -0.2677
   99MOL   C15135627   1.314   1.773   3.923  0.2953  0.1519 -0.2108
   99MOL   H15235628   1.331   1.582   3.310 -1.4428  0.0736  0.2709
   99MOL   H15335629   1.419   1.689   3.422  0.5447  0.9572 -2.1513
   99MOL   H15435630   1.203   1.491   3.517 -0.9976  0.4930 -0.1523
   99MOL   H15535631   1.269   1.532   3.734  1.5174  0.9130  1.4003
   99MOL   H15635632   1.199   1.660   3.658 -0.5728 -0.4429  0.6879
   99MOL   H15735633   1.497   1.677   3.637 -2.1161  0.2647 -3.0563
   99MOL   H15835634   1.377   1.792   3.631 -0.1769  0.7150  1.2102
   99MOL   H15935635   1.502   1.807   3.847 -0.2595  0.3187 -0.1516
   99MOL   H16035636   1.475   1.640   3.882 -1.9348  0.4184  3.5567
   99MOL   H16135637   1.230   1.703   3.927 -0.8400  1.4235 -1.2544
   99MOL   H16235638   1.345   1.793   4.025  0.3961 -2.2992  0.2820
   99MOL   H16335639   1.274   1.866   3.883  0.2580  0.3874  0.3733
   99MOL   C16435640   1.409   1.414   3.520 -0.3233 -0.3250  0.3237
   99MOL   C16535641   1.402   1.311   3.409  0.2177  0.2791  0.2331
   99MOL   C16635642   1.546   1.251   3.389 -0.3641  0.6687 -0.2508
   99MOL   C16735643   1.575   1.133   3.489 -0.0218  0.1799 -0.0084
   99MOL   C16835644   1.701   1.048   3.463  0.5096 -0.1589  0.2397
   99MOL   C16935645   1.732   0.938   3.568  0.2061 -0.7450 -0.1128
   99MOL   H17035646   1.513   1.449   3.522 -0.1433 -0.7939 -0.6114
   99MOL   H17135647   1.395   1.360   3.613 -0.1640  0.0482  0.5644
   99MOL   H17235648   1.382   1.370   3.320  0.6026 -0.0427 -0.0697
   99MOL   H17335649   1.628   1.321   3.372  1.3380 -0.8167  1.6126
   99MOL   H17435650   1.553   1.216   3.286 -0.6797  1.2716 -0.4783
   99MOL   H17535651   1.495   1.060   3.478 -0.1071  0.1699  0.6625
   99MOL   H17635652   1.567   1.172   3.590 -0.1016 -1.2232  0.5474
   99MOL   H17735653   1.781   1.115   3.430 -0.2404 -0.0630 -1.4265
   99MOL   H17835654   1.683   0.996   3.369  1.4503  3.1232 -1.8568
   99MOL   H17935655   1.824   0.890   3.535 -0.3727 -1.9860  0.0671
   99MOL   H18035656   1.646   0.872   3.578 -0.3579  0.0598  0.4384
   99MOL   H18135657   1.750   0.988   3.663 -0.1287  1.8927 -1.3736
   99MOL   C18235658   1.284   1.213   3.414 -0.5458  0.1730 -0.5239
   99MOL   C18335659   1.270   1.100   3.308  0.1405  0.1371 -0.3636
   99MOL   C18435660   1.235   1.149   3.166  0.1062 -0.6547  0.3973
   99MOL   C18535661   1.097   1.220   3.159 -0.5436 -0.1399  0.0487
   99MOL   C18635662   1.031   1.224   3.016 -0.8809  0.1550 -0.5075
   99MOL   C18735663   1.122   1.286   2.914 -0.0522 -0.3056 -0.6249
   99MOL   H18835664   1.294   1.177   3.516 -0.3295 -0.2603 -0.6925
   99MOL   H18935665   1.191   1.269   3.409 -1.1610 -0.9496 -2.0770
   99MOL   H19035666   1.367   1.050   3.303 -0.4374 -1.0966  0.4750
   99MOL   H19135667   1.316   1.214   3.133  1.6382 -2.6312  0.1768
   99MOL   H19235668   1.234   1.071   3.089 -1.6525 -0.6826  0.4298
   99MOL   H19335669   1.115   1.320   3.196  0.4310 -0.1599 -0.3561
   99MOL   H19435670   1.026   1.175   3.228  1.2115  0.7268  2.4516
   99MOL   H19535671   0.936   1.278   3.017 -0.6185  0.7647 -3.3459
   99MOL   H19635672   1.004   1.130   2.968 -1.2034  0.8988 -1.8166
   99MOL   H19735673   1.142   1.392   2.921 -1.2655 -0.1457  0.8563
   99MOL   H19835674   1.085   1.270   2.813  0.4173  0.0161 -0.8476
   99MOL   H19935675   1.219   1.238   2.906  0.1373 -0.3065  1.4159
   99MOL   C20035676   1.180   0.988   3.362  0.7872 -0.2818 -0.2523
   99MOL   C20135677   1.163   0.862   3.269 -0.0698 -0.4576  0.3314
   99MOL   C20235678   1.300   0.808   3.224 -0.6479  0.5038  0.8828
   99MOL   C20335679   1.394   0.746   3.328  0.0705 -0.8791  0.7550
   99MOL   C20435680   1.533   0.714   3.267 -0.4100 -0.5584 -0.5635
   99MOL   C20535681   1.605   0.625   3.365  0.6245 -0.8979 -0.0758
   99MOL   H20635682   1.078   1.025   3.370  1.1226  0.4577  0.7336
   99MOL   H20735683   1.212   0.957   3.462  0.8885  1.2446  0.1973
   99MOL   H20835684   1.108   0.893   3.180 -0.8981 -0.6437  0.7643
   99MOL   H20935685   1.360   0.877   3.165 -1.6852 -0.0710 -0.8624
   99MOL   H21035686   1.277   0.737   3.145 -0.5871 -0.9070  2.0948
   99MOL   H21135687   1.339   0.663   3.371  2.0086 -1.8164  1.4722
   99MOL   H21235688   1.402   0.821   3.407 -0.0419 -0.1515  0.0847
   99MOL   H21335689   1.595   0.803   3.265 -0.6668 -0.3286  1.1541
   99MOL   H21435690   1.524   0.658   3.174  1.3030 -1.8086 -0.0132
   99MOL   H21535691   1.599   0.664   3.466  2.4588 -1.2052  0.1656
   99MOL   H21635692   1.556   0.527   3.370 -3.2265  0.9050 -0.6004
   99MOL   H21735693   1.709   0.602   3.342  1.2075 -0.6226  2.2167
   99MOL   C21835694   1.054   0.770   3.340 -0.1538  0.5447  0.4725
   99MOL   C21935695   0.996   0.656   3.258 -0.1393 -0.8326  0.3341
   99MOL   C22035696   0.862   0.681   3.177  0.0924 -0.6578  0.6512
   99MOL   C22135697   0.860   0.797   3.082  0.0003 -0.2429 -0.1607
   99MOL   C22235698   0.722   0.817   3.025 -0.1787  0.4176  0.0504
   99MOL   C22335699   0.718   0.934   2.918  0.1571  0.4950 -0.0372
   99MOL   H22435700   1.099   0.732   3.432  1.7393 -1.2595 -1.1320
   99MOL   H22535701   0.969   0.825   3.380 -3.0321 -0.8801 -3.4244
   99MOL   H22635702   1.073   0.636   3.183 -0.6424 -3.0914  0.3783
   99MOL   H22735703   0.784   0.695   3.251  0.9850  1.4049  1.2485
   99MOL   H22835704   0.845   0.591   3.119  0.0935 -0.1036 -0.2350
   99MOL   H22935705   0.934   0.779   3.003 -1.8640 -0.3073 -1.9316
   99MOL   H23035706   0.881   0.894   3.125 -0.8650 -0.4576  0.7588
   99MOL   H23135707   0.672   0.733   2.976  3.4520 -1.4437 -0.6158
   99MOL   H23235708   0.659   0.838   3.112  0.8550  0.6089  0.7626
   99MOL   H23335709   0.799   1.007   2.924  0.4067  0.2017  0.1714
   99MOL   H23435710   0.626   0.989   2.902  1.1616  2.4897  0.8065
   99MOL   H23535711   0.741   0.895   2.819  0.3525 -1.4728  0.7575
   99MOL   C23635712   0.976   0.530   3.344  0.9508  0.2775 -0.2872
   99MOL   C23735713   1.102   0.441   3.362 -1.2183  0.5813 -0.2363
   99MOL   C23835714   1.148   0.373   3.234  0.2633  0.0248  0.3166
   99MOL   C23935715   1.299   0.365   3.206  0.0793 -0.4352  0.4430
   99MOL   C24035716   1.338   0.312   3.066 -0.0086  0.1590 -0.0228
   99MOL   C24135717   1.297   0.159   3.045  0.1657  0.3360 -0.3397
   99MOL   H24235718   0.941   0.564   3.441 -1.2335 -1.9114 -0.2574
   99MOL   H24335719   0.892   0.474   3.304 -0.4526  2.0753  0.0707
   99MOL   H24435720   1.183   0.509   3.390 -0.1827 -0.9588  0.5459
   99MOL   H24535721   1.101   0.276   3.223  2.0941 -0.7948 -0.3691
   99MOL   H24635722   1.104   0.429   3.151 -1.9064 -1.7393  0.2558
   99MOL   H24735723   1.359   0.314   3.281 -0.8197 -0.5284  1.1149
   99MOL   H24835724   1.348   0.462   3.195  1.1391 -1.0447 -0.2026
   99MOL   H24935725   1.285   0.365   2.987  0.5653  2.5806  1.1530
   99MOL   H25035726   1.445   0.319   3.043  0.1046 -0.4326  0.3062
   99MOL   H25135727   1.192   0.159   3.075  1.3013  3.7626  4.0901
   99MOL   H25235728   1.318   0.115   2.947  0.5985 -1.2869  0.4715
   99MOL   H25335729   1.350   0.103   3.122  0.6919  0.4961 -0.5804
   99MOL   C25435730   1.096   0.342   3.484 -0.4290  0.8566 -0.1196
   99MOL   C25535731   1.087   0.415   3.620  0.1105 -0.1227  0.4267
   99MOL   C25635732   1.208   0.509   3.654  0.3674  0.0703 -0.1450
   99MOL   C25735733   1.342   0.430   3.643 -0.0703 -0.5863 -0.0550
   99MOL   C25835734   1.461   0.493   3.709 -0.1700 -0.7194  0.3900
   99MOL   C25935735   1.591   0.407   3.690  0.5942 -0.1099  0.0614
   99MOL   H26035736   1.178   0.270   3.479  0.3060  1.7188 -0.6055
   99MOL   H26135737   1.008   0.280   3.469  1.1465 -0.8252 -2.9697
   99MOL   H26235738   1.006   0.487   3.623 -0.6491 -0.9461 -0.1197
   99MOL   H26335739   1.205   0.597   3.590  0.3991  1.2960  1.4922
   99MOL   H26435740   1.203   0.546   3.756  2.1410 -2.3962  0.8785
   99MOL   H26535741   1.334   0.325   3.672  1.7758 -1.3583 -2.2291
   99MOL   H26635742   1.372   0.406   3.541 -1.1497 -1.7862 -0.1067
   99MOL   H26735743   1.431   0.500   3.814 -0.1856  1.9336  0.2453
   99MOL   H26835744   1.474   0.597   3.679 -1.2205  0.1019  2.6600
   99MOL   H26935745   1.613   0.386   3.586  0.2883  1.3167 -0.2978
   99MOL   H27035746   1.577   0.312   3.741  1.1680  0.3879  1.1869
   99MOL   H27135747   1.676   0.450   3.745  0.0072  0.8158  0.2595
   99MOL   C27235748   1.050   0.317   3.743 -0.8768  0.0935 -0.3023
   99MOL   C27335749   0.925   0.226   3.736 -0.4500  0.2699  0.3660
   99MOL   C27435750   0.794   0.304   3.723  0.2562 -0.5337  0.1067
   99MOL   C27535751   0.694   0.224   3.634  0.8831  0.9506  0.2272
   99MOL   C27635752   0.574   0.303   3.594 -0.3941 -0.3931 -0.1009
   99MOL   C27735753   0.461   0.206   3.554  0.0096 -0.3473  0.0247
   99MOL   H27835754   1.128   0.247   3.771 -2.0527 -1.1592 -0.0944
   99MOL   H27935755   1.039   0.369   3.838  1.4968 -0.3988  0.2684
   99MOL   H28035756   0.940   0.171   3.643  0.7487  1.3639 -0.0905
   99MOL   H28135757   0.811   0.402   3.679 -0.1087 -0.6627 -0.3210
   99MOL   H28235758   0.751   0.330   3.819  1.3750  0.6571  0.3063
   99MOL   H28335759   0.680   0.123   3.673 -3.9106  1.6737  0.5987
   99MOL   H28435760   0.750   0.214   3.541  1.4734 -1.5523  0.7943
   99MOL   H28535761   0.548   0.374   3.672  1.5041 -0.2323  0.4217
   99MOL   H28635762   0.601   0.355   3.502 -2.5474  0.4140 -0.2988
   99MOL   H28735763   0.382   0.260   3.502 -0.9730 -0.8887  0.9263
   99MOL   H28835764   0.498   0.124   3.492 -0.6775 -1.2386  0.7916
   99MOL   H28935765   0.416   0.162   3.643  0.2805  1.2264  0.9651
   99MOL   C29035766   0.922   0.130   3.856  0.5977  0.2948  0.1744
   99MOL   C29135767   1.026   0.013   3.844 -0.4004 -0.3954  0.6758
   99MOL   C29235768   1.012   7.647   3.962 -0.1678 -0.0489  0.7893
   99MOL   C29335769   1.121   7.531   3.970  0.1143 -0.3263 -0.8333
   99MOL   C29435770   1.103   7.441   4.091  0.3965  0.3055 -0.0455
   99MOL   C29535771   1.180   7.309   4.078 -0.8173  0.3742 -0.0095
   99MOL   H29635772   0.823   0.083   3.857  1.0382 -0.6758 -0.8661
   99MOL   H29735773   0.944   0.176   3.952 -0.4128 -1.7300  1.4020
   99MOL   H29835774   1.129   0.048   3.859 -0.2522  0.2088 -1.5797
   99MOL   H29935775   0.916   7.596   3.948  0.9329 -1.3532 -2.6736
   99MOL   H30035776   0.999   7.703   4.055  0.5208  0.1283  0.7769
   99MOL   H30135777   1.122   7.464   3.884  0.0848  0.0584 -1.1342
   99MOL   H30235778   1.218   7.579   3.978 -0.5578  1.2527 -1.8557
   99MOL   H30335779   1.001   7.422   4.123 -0.2778  1.0505 -1.7146
   99MOL   H30435780   1.151   7.496   4.172  0.7519  0.2320 -0.2013
   99MOL   H30535781   1.279   7.335   4.042 -1.8331  0.3572 -2.9530
   99MOL   H30635782   1.137   7.252   3.995  1.9496 -2.2190  0.2326
   99MOL   H30735783   1.182   7.246   4.167 -0.4498  0.3738 -0.0188
   99MOL   C30835784   1.021   7.667   3.710  0.3747  0.2567  0.0846
   99MOL   C30935785   1.140   7.691   3.610  0.2856  0.0056  0.1055
   99MOL   C31035786   1.112   7.651   3.461  0.2374  0.6758 -0.0915
   99MOL   C31135787   0.975   7.694   3.404  0.1822 -0.3418 -0.3675
   99MOL   C31235788   0.989   7.715   3.253 -0.5960 -0.0093  0.3989
   99MOL   C31335789   0.856   0.022   3.185 -0.7241  0.0548  0.2924
   99MOL   H31435790   1.003   7.561   3.728  1.9288 -0.2739 -1.2905
   99MOL   H31535791   0.934   7.691   3.648  0.4273 -0.0612 -0.1122
   99MOL   H31635792   1.161   0.070   3.606  1.1008 -0.1221  0.8058
   99MOL   H31735793   1.117   7.542   3.453 -0.1088  0.7773 -2.0192
   99MOL   H31835794   1.193   7.696   3.404 -0.7139  1.1981 -1.0410
   99MOL   H31935795   0.946   0.064   3.444 -1.6103 -0.4750 -1.3294
   99MOL   H32035796   0.891   7.627   3.424 -0.4734  0.0746 -1.7104
   99MOL   H32135797   1.061   0.070   3.249  1.0961 -1.4162  1.2124
   99MOL   H32235798   1.043   7.630   3.211 -0.3563 -0.2944  1.2625
   99MOL   H32335799   0.814   0.114   3.227 -1.7761  0.4443 -1.5567
   99MOL   H32435800   0.782   7.669   3.180 -0.6651 -0.0118  0.4978
   99MOL   H32535801   0.876   0.043   3.080 -1.6991 -1.2626 -0.1759
   99MOL   C32635802   1.267   7.623   3.668 -0.6225  0.1390  0.3604
   99MOL   C32735803   1.392   7.608   3.579  0.3592 -0.4975 -0.5502
   99MOL   C32835804   1.444   0.018   3.541 -0.0653  0.1046 -0.2666
   99MOL   C32935805   1.534   7.724   3.418  1.2829 -0.4093  0.0001
   99MOL   C33035806   1.645   0.112   3.395 -0.5953 -0.4242 -0.5320
   99MOL   C33135807   1.720   0.098   3.263 -0.2742 -0.5760 -0.4735
   99MOL   H33235808   1.235   7.523   3.698  1.5871 -1.0088 -0.9863
   99MOL   H33335809   1.293   7.664   3.765 -0.4315 -1.2366  0.8998
   99MOL   H33435810   1.353   7.566   3.485 -1.7244 -0.3486  0.2256
   99MOL   H33535811   1.375   0.098   3.513 -0.0890 -0.1585 -0.9735
   99MOL   H33635812   1.500   0.051   3.628 -0.4071  0.3511 -0.1411
   99MOL   H33735813   1.474   7.712   3.328  0.0287  1.2806  0.5832
   99MOL   H33835814   1.593   7.632   3.422 -0.3949 -1.4597  0.7823
   99MOL   H33935815   1.597   0.210   3.395  2.9873  1.4412  0.6337
   99MOL   H34035816   1.703   0.134   3.484 -2.3098  1.3703  0.1823
   99MOL   H34135817   1.645   0.085   3.186 -1.4128 -1.0685  0.7110
   99MOL   H34235818   1.783   0.009   3.258  0.3365 -0.1187 -1.0573
   99MOL   H34335819   1.788   0.181   3.240  0.5329 -1.0073  0.3167
   99MOL   C34435820   1.492   7.515   3.647 -0.3768  0.1873 -0.4893
   99MOL   C34535821   1.566   7.572   3.764 -0.1476  0.6340  0.6048
   99MOL   C34635822   1.651   7.485   3.850  0.6887 -0.4466 -0.2363
   99MOL   C34735823   1.555   7.396   3.937  0.0822 -0.9781 -0.6576
   99MOL   C34835824   1.648   7.315   4.035 -0.2364  0.5502  0.4271
   99MOL   C34935825   1.583   7.214   4.129 -0.0539  0.2207 -0.0185
   99MOL   H35035826   1.449   7.421   3.681 -2.1965  0.7369 -1.2380
   99MOL   H35135827   1.564   7.490   3.569 -0.9309 -1.2029 -0.5735
   99MOL   H35235828   1.513   7.645   3.825 -0.0746  2.8623 -1.9048
   99MOL   H35335829   1.727   7.434   3.792 -0.5961 -0.1147 -2.2739
   99MOL   H35435830   1.706   7.561   3.906  0.2654 -0.3684  0.0778
   99MOL   H35535831   1.503   7.468   4.001 -1.4124  0.7797 -3.7299
   99MOL   H35635832   1.481   7.342   3.879 -1.6324  1.8188 -1.1964
   99MOL   H35735833   1.725   7.267   3.973 -1.6342 -3.4694  1.6336
   99MOL   H35835834   1.695   7.388   4.100 -1.9476 -0.3343  2.7114
   99MOL   H35935835   1.569   7.117   4.082  1.8953  0.4583 -1.1587
   99MOL   H36035836   1.650   7.201   4.215  1.8389  0.1705 -1.4806
   99MOL   H36135837   1.489   7.259   4.160 -0.2359 -0.7686  0.8764
   99MOL   H36235838   1.639   7.634   3.712  2.5891 -0.8467  2.5399
  100MOL     C135839   3.671   4.056   6.858 -0.3827  0.3416  0.6203
  100MOL     C235840   3.767   4.151   6.934 -0.4566  0.1201 -0.8820
  100MOL     C335841   3.714   4.185   7.073  0.9430 -0.3244 -0.1819
  100MOL     C435842   3.579   4.266   7.072  0.3612 -0.0172  0.5132
  100MOL     C535843   3.531   4.310   7.207  0.4105 -0.0803 -0.6613
  100MOL     C635844   3.427   4.421   7.208  1.3181 -0.9763  1.3028
  100MOL     H735845   3.619   3.988   6.926 -0.5744  0.8354  0.9696
  100MOL     H835846   3.600   4.112   6.798 -0.5068  0.4131  0.8323
  100MOL     H935847   3.860   4.094   6.947  1.5415  3.0442 -1.8638
  100MOL    H1035848   3.789   4.239   7.130 -0.6661  0.1929  1.5031
  100MOL    H1135849   3.686   4.098   7.133 -0.4047 -1.1914 -2.0350
  100MOL    H1235850   3.497   4.216   7.020  1.6749 -0.7626 -0.8890
  100MOL    H1335851   3.591   4.359   7.018 -0.8549 -0.0266  0.2258
  100MOL    H1435852   3.492   4.221   7.256  0.0527 -0.7342 -2.0836
  100MOL    H1535853   3.620   4.347   7.258  0.4680 -0.2135 -0.6636
  100MOL    H1635854   3.352   4.399   7.132  0.9314 -0.9521  1.6764
  100MOL    H1735855   3.463   4.507   7.150  1.6656 -1.9523  0.0547
  100MOL    H1835856   3.391   4.456   7.305  1.2051 -0.7171  1.1672
  100MOL    H1935857   3.728   3.990   6.792  1.2838  1.0920  1.2933
  100MOL    C2035858   3.825   4.264   6.846  0.3019  0.0849  0.2172
  100MOL    C2135859   3.981   4.300   6.863  0.1494 -0.3064  0.2568
  100MOL    C2235860   4.068   4.192   6.792 -0.3293 -0.3052 -0.2463
  100MOL    C2335861   4.217   4.194   6.837  0.1986  0.1965 -0.1724
  100MOL    C2435862   4.307   4.298   6.760  0.2419 -0.6333 -0.3068
  100MOL    C2535863   4.452   4.245   6.743  0.0774 -0.2053 -0.4847
  100MOL    H2635864   3.765   4.352   6.870 -0.8432 -0.0867 -1.8925
  100MOL    H2735865   3.810   4.242   6.740  0.5163 -3.0960  0.8111
  100MOL    H2835866   4.007   4.290   6.969  0.4318 -1.6865  0.0702
  100MOL    H2935867   4.070   4.202   6.684  0.8076 -0.0624 -0.2086
  100MOL    H3035868   4.028   4.093   6.813 -1.8568  0.2448 -0.5099
  100MOL    H3135869   4.260   4.096   6.816  1.1326  0.7159 -0.7310
  100MOL    H3235870   4.210   4.200   6.946  0.1839  2.1351 -0.2749
  100MOL    H3335871   4.276   4.327   6.659 -1.7587  0.4387  0.5759
  100MOL    H3435872   4.304   4.390   6.818 -0.4828 -0.5976 -0.3897
  100MOL    H3535873   4.502   4.335   6.707 -0.4862  0.5899  0.7041
  100MOL    H3635874   4.503   4.231   6.838  1.4373 -0.7790 -1.2798
  100MOL    H3735875   4.465   4.162   6.673  1.4801 -0.7011  0.3431
  100MOL    C3835876   4.015   4.439   6.823  0.0481 -0.1520 -0.0908
  100MOL    C3935877   3.955   4.563   6.900  0.1200 -0.2517  0.5695
  100MOL    C4035878   3.950   4.542   7.055  0.5058  0.5075 -0.3334
  100MOL    C4135879   3.840   4.628   7.114  0.2227  0.4538 -0.2168
  100MOL    C4235880   3.818   4.604   7.262 -0.1627 -0.1799  0.5493
  100MOL    C4335881   3.935   4.661   7.344  0.2305 -0.2887  0.2415
  100MOL    H4435882   3.997   4.459   6.717  0.0000  0.4877  0.0355
  100MOL    H4535883   4.121   4.440   6.850 -0.2474 -1.2312  1.1629
  100MOL    H4635884   3.850   4.563   6.870  1.1397 -3.5937 -3.3539
  100MOL    H4735885   3.929   4.436   7.074  0.2521  0.5079 -0.6167
  100MOL    H4835886   4.044   4.563   7.107  0.6197 -1.7051  0.4084
  100MOL    H4935887   3.867   4.733   7.113 -0.7488  0.7088 -0.1694
  100MOL    H5035888   3.740   4.621   7.070  0.9641 -1.2130 -1.7412
  100MOL    H5135889   3.723   4.650   7.289 -0.6220  0.1052 -1.4302
  100MOL    H5235890   3.827   4.498   7.286  1.8162  0.1346  1.2212
  100MOL    H5335891   3.929   4.631   7.448  1.1396  1.8125  0.9271
  100MOL    H5435892   3.941   4.770   7.336 -0.4183 -0.3123 -0.7252
  100MOL    H5535893   4.032   4.623   7.313 -0.7915 -1.8867 -1.1110
  100MOL    C5635894   4.025   4.692   6.862  0.9881  0.2512  0.8296
  100MOL    C5735895   3.928   4.799   6.815 -0.2949 -0.0903  0.1650
  100MOL    C5835896   3.845   4.760   6.685  0.0269  0.0739  0.3496
  100MOL    C5935897   3.943   4.707   6.569 -0.6625 -0.0656 -0.2776
  100MOL    C6035898   3.859   4.642   6.467 -0.0316  0.7345 -0.5272
  100MOL    C6135899   3.945   4.640   6.342  0.4771  0.0950 -0.1591
  100MOL    H6235900   4.096   4.726   6.937  1.2820  4.2876 -1.1734
  100MOL    H6335901   4.092   4.665   6.780 -0.2740 -1.9816  0.4733
  100MOL    H6435902   3.854   4.828   6.890  0.8935  1.9745  0.6147
  100MOL    H6535903   3.765   4.691   6.710 -1.0207  1.8772  2.0308
  100MOL    H6635904   3.789   4.846   6.648  0.5681 -0.5328 -1.9999
  100MOL    H6735905   4.014   4.632   6.605 -0.3889 -0.0239 -0.7377
  100MOL    H6835906   3.991   4.799   6.535  2.3076 -1.0270  1.0968
  100MOL    H6935907   3.827   4.541   6.492 -0.6550  0.5109 -2.1520
  100MOL    H7035908   3.771   4.703   6.448 -1.1228 -0.0467  1.8442
  100MOL    H7135909   3.886   4.608   6.256 -0.0358 -1.4195  0.7333
  100MOL    H7235910   3.999   4.730   6.311 -0.8982  0.2032 -2.3741
  100MOL    H7335911   4.036   4.580   6.350  2.6518  3.4842  2.0689
  100MOL    C7435912   4.003   4.931   6.780  0.8369  0.6289  0.5594
  100MOL    C7535913   4.067   5.004   6.910  0.8923  0.7227 -0.2857
  100MOL    C7635914   4.132   5.133   6.862 -1.2130  0.1455 -0.5886
  100MOL    C7735915   4.263   5.115   6.782 -0.3071 -0.1423  0.3084
  100MOL    C7835916   4.330   5.245   6.726  0.0655  0.0017  0.2544
  100MOL    C7935917   4.425   5.208   6.613  0.3901  0.1138 -1.2459
  100MOL    H8035918   4.072   4.919   6.696  0.8651  3.2716  0.1600
  100MOL    H8135919   3.941   4.997   6.719  1.5164  0.4179 -0.3811
  100MOL    H8235920   4.133   4.933   6.961  0.6470  1.1332  0.6122
  100MOL    H8335921   4.065   5.195   6.803  0.9155  0.9627 -2.1777
  100MOL    H8435922   4.158   5.196   6.947  0.5581 -0.0294 -0.9808
  100MOL    H8535923   4.334   5.060   6.844 -0.3109 -1.8107 -1.1352
  100MOL    H8635924   4.242   5.059   6.691 -2.7602  2.3199 -0.7083
  100MOL    H8735925   4.381   5.299   6.806 -2.7093  2.8299  0.2508
  100MOL    H8835926   4.253   5.313   6.688  1.9947  0.8389 -2.2762
  100MOL    H8935927   4.477   5.298   6.579 -1.2466  1.3914 -0.4144
  100MOL    H9035928   4.507   5.143   6.644 -0.1162 -1.1261 -2.4368
  100MOL    H9135929   4.363   5.174   6.530  0.7548 -3.4845 -0.1511
  100MOL    C9235930   3.961   5.055   7.012  0.1138  0.1475  0.1383
  100MOL    C9335931   4.023   5.096   7.154 -0.1434  0.3109  0.1289
  100MOL    C9435932   3.919   5.145   7.260 -0.1089  0.3597  0.0858
  100MOL    C9535933   3.805   5.053   7.296 -0.1661 -0.2033 -0.1034
  100MOL    C9635934   3.731   5.111   7.427  0.0555 -0.0270 -0.2241
  100MOL    C9735935   3.596   5.049   7.434  0.4396 -0.6179  0.1556
  100MOL    H9835936   3.904   5.141   6.978 -0.3434 -0.5446 -0.8848
  100MOL    H9935937   3.890   4.976   7.036 -2.1319  1.9939 -0.2718
  100MOL   H10035938   4.083   5.184   7.130  1.3109 -0.8622 -0.6005
  100MOL   H10135939   3.872   5.234   7.218  0.7397  0.6440 -0.2795
  100MOL   H10235940   3.976   5.175   7.348  0.9249 -0.0416 -0.4291
  100MOL   H10335941   3.741   5.044   7.207  1.1260 -0.5948 -1.0003
  100MOL   H10435942   3.853   4.958   7.317  2.6480  1.4449  1.1054
  100MOL   H10535943   3.774   5.096   7.527  0.2685  1.4324 -0.0861
  100MOL   H10635944   3.728   5.218   7.405  0.1714  0.1637  0.6420
  100MOL   H10735945   3.549   5.066   7.337 -0.6942 -0.6157  0.6990
  100MOL   H10835946   3.600   4.940   7.438  1.4387 -0.6504 -1.1887
  100MOL   H10935947   3.535   5.083   7.517  0.6306  0.5481 -0.1718
  100MOL   C11035948   4.124   4.991   7.221 -0.3316 -0.4303 -0.1284
  100MOL   C11135949   4.275   5.007   7.208  0.4654 -0.5061 -0.1455
  100MOL   C11235950   4.347   4.876   7.249  0.7913  0.2137 -0.1882
  100MOL   C11335951   4.315   4.742   7.172 -0.4309 -0.6247  0.0404
  100MOL   C11435952   4.416   4.627   7.177 -0.2914  0.0091 -0.0931
  100MOL   C11535953   4.348   4.492   7.129  0.0031 -0.4127 -0.3256
  100MOL   H11635954   4.108   5.000   7.328  1.2604  1.8427 -0.0478
  100MOL   H11735955   4.103   4.890   7.188 -0.5438 -1.5812  3.3461
  100MOL   H11835956   4.300   5.025   7.104 -1.4574 -0.4111 -0.6154
  100MOL   H11935957   4.340   4.860   7.357  1.5614 -0.4840 -0.2370
  100MOL   H12035958   4.454   4.894   7.233  1.5442 -1.0195  3.0198
  100MOL   H12135959   4.289   4.770   7.069 -1.4371  0.6725  0.6274
  100MOL   H12235960   4.219   4.706   7.209 -0.4814 -0.7358 -0.1917
  100MOL   H12335961   4.450   4.628   7.281  0.6933 -0.6178 -0.4038
  100MOL   H12435962   4.505   4.647   7.117 -0.4538 -1.0359 -0.6998
  100MOL   H12535963   4.424   4.414   7.141 -0.7743 -0.9238  1.3845
  100MOL   H12635964   4.251   4.479   7.176 -2.2380  0.8186 -4.3451
  100MOL   H12735965   4.333   4.499   7.021 -0.9390  0.3631 -0.1457
  100MOL   C12835966   4.316   5.127   7.298  0.2670 -0.3910  0.4311
  100MOL   C12935967   4.337   5.266   7.229 -0.9091 -1.1217 -0.1917
  100MOL   C13035968   4.461   5.276   7.130 -0.2925 -0.4008 -0.2641
  100MOL   C13135969   4.591   5.238   7.190  0.2008  0.2263 -0.1085
  100MOL   C13235970   4.709   5.311   7.117  0.1763  0.5623 -0.2785
  100MOL   C13335971   4.703   5.455   7.153 -0.4656 -0.7689 -0.2697
  100MOL   H13435972   4.411   5.100   7.344  0.5135  1.2118  0.9047
  100MOL   H13535973   4.249   5.137   7.384  2.8180  3.1580  2.1609
  100MOL   H13635974   4.249   5.296   7.173 -0.9754  0.0629  0.5335
  100MOL   H13735975   4.446   5.215   7.041 -1.9921  0.5490 -0.6436
  100MOL   H13835976   4.465   5.377   7.090 -0.0372  0.0706  0.9169
  100MOL   H13935977   4.606   5.130   7.191  1.5938  0.4198  0.9748
  100MOL   H14035978   4.592   5.244   7.299  0.5583 -1.9010  0.0207
  100MOL   H14135979   4.794   5.259   7.161 -0.3181 -0.8583 -0.9545
  100MOL   H14235980   4.717   5.283   7.012  0.3246  0.7299 -0.3121
  100MOL   H14335981   4.617   5.510   7.115  0.0325 -0.0355 -0.3449
  100MOL   H14435982   4.790   5.510   7.116 -1.0326  0.3677  0.0836
  100MOL   H14535983   4.713   5.462   7.261 -1.3790  0.9664 -0.2828
  100MOL   C14635984   4.351   5.375   7.337  0.1447 -0.4110  0.5971
  100MOL   C14735985   4.214   5.393   7.413  0.4310 -0.8899  0.0434
  100MOL   C14835986   4.159   5.534   7.384 -0.3626 -0.2666  0.1888
  100MOL   C14935987   4.122   5.574   7.237  0.5686 -0.1818  0.6398
  100MOL   C15035988   4.059   5.711   7.223 -0.1466  0.4072  0.9980
  100MOL   C15135989   4.148   5.824   7.250  0.1983  0.1008 -0.2094
  100MOL   H15235990   4.431   5.343   7.404  0.0503 -0.4844  0.6743
  100MOL   H15335991   4.386   5.473   7.305  0.6853 -0.4367  1.0892
  100MOL   H15435992   4.148   5.322   7.362  0.4611 -0.1508 -1.0204
  100MOL   H15535993   4.224   5.611   7.426  1.4527 -1.6687 -0.0040
  100MOL   H15635994   4.067   5.542   7.442 -0.4717 -2.5053  0.3825
  100MOL   H15735995   4.202   5.555   7.165 -1.1021 -0.2985 -1.2043
  100MOL   H15835996   4.049   5.498   7.213 -0.9569  1.2251  0.7552
  100MOL   H15935997   3.979   5.719   7.297 -2.2094 -2.5563 -0.8121
  100MOL   H16035998   4.009   5.724   7.128  0.0180  0.8631  0.9726
  100MOL   H16135999   4.195   5.823   7.348 -2.2265 -0.6572  0.9656
  100MOL   H16236000   4.229   5.830   7.176 -1.2104  1.5382 -1.7018
  100MOL   H16336001   4.089   5.915   7.235  0.0828  0.1785  0.7444
  100MOL   C16436002   4.225   5.366   7.565 -0.1152  0.2730  0.3171
  100MOL   C16536003   4.097   5.360   7.654  0.0464 -0.1535 -0.2904
  100MOL   C16636004   4.094   5.233   0.016  0.1451 -0.8794  0.5913
  100MOL   C16736005   4.087   5.097   7.667  0.1254  0.1851  0.7272
  100MOL   C16836006   4.071   4.976   0.035 -0.1869 -0.1478 -0.2283
  100MOL   C16936007   4.049   4.842   7.703 -0.0131  0.0067  0.3810
  100MOL   H17036008   4.275   5.270   7.580 -3.5682 -1.7214 -0.4251
  100MOL   H17136009   4.300   5.429   7.613  0.8441 -0.5963 -0.0184
  100MOL   H17236010   4.021   5.357   7.576 -0.9361 -0.7696  0.6759
  100MOL   H17336011   3.997   5.238   0.066  0.2433 -0.6197  0.7555
  100MOL   H17436012   4.171   5.226   0.093  1.8627  1.0320 -0.8997
  100MOL   H17536013   4.179   5.080   7.612  0.1426  1.3313  0.3909
  100MOL   H17636014   4.005   5.094   7.596  1.1394 -1.2017 -0.4272
  100MOL   H17736015   3.989   5.000   0.103  0.9809 -1.7980  1.8095
  100MOL   H17836016   4.166   4.975   0.088  0.8227 -0.5526 -2.0115
  100MOL   H17936017   4.129   4.804   7.640 -0.8610  1.3992 -1.6149
  100MOL   H18036018   3.949   4.832   7.659 -1.0656  3.0750  1.9695
  100MOL   H18136019   4.049   4.775   0.062 -1.6892 -0.5544 -0.0341
  100MOL   C18236020   4.082   5.490   0.015  0.3606  0.3665  0.1199
  100MOL   C18336021   3.966   5.511   0.116 -0.1254  0.4283 -0.1144
  100MOL   C18436022   3.829   5.519   0.046  0.3254  0.0390  0.1366
  100MOL   C18536023   3.753   5.387   0.017  0.5003  0.4752  0.1839
  100MOL   C18636024   3.612   5.411   7.709  0.3262  0.6242  0.6639
  100MOL   C18736025   3.583   5.506   7.585  0.2470  0.4956  0.4770
  100MOL   H18836026   4.168   5.508   0.080 -0.4148  1.2850  0.9058
  100MOL   H18936027   4.079   5.578   7.678  1.3561  0.6610  0.4650
  100MOL   H19036028   3.969   5.422   0.179  1.1766 -0.4789 -1.4612
  100MOL   H19136029   3.761   5.573   0.111  0.0919 -0.3959  0.2566
  100MOL   H19236030   3.836   5.589   7.690  0.5275 -0.7599 -0.5264
  100MOL   H19336031   3.767   5.319   0.100  2.4282 -0.2722 -0.7239
  100MOL   H19436032   3.811   5.350   7.659 -1.4651 -2.3599 -0.0021
  100MOL   H19536033   3.562   5.462   0.063  2.2118  0.2711  2.0868
  100MOL   H19636034   3.557   5.317   7.706  1.4647 -0.1126  2.6493
  100MOL   H19736035   3.619   5.607   7.600 -0.5853  0.9538 -0.5047
  100MOL   H19836036   3.482   5.515   7.544 -0.0443  0.8565  1.2754
  100MOL   H19936037   3.647   5.467   7.505  0.3610  0.5767  0.5275
  100MOL   C20036038   3.984   5.634   0.209  0.3892  1.3330  0.0336
  100MOL   C20136039   4.026   5.768   0.155 -0.3843 -1.3713 -0.3915
  100MOL   C20236040   3.966   5.873   0.247 -0.2704  0.1392  0.1054
  100MOL   C20336041   4.006   5.880   0.398  0.4827 -0.1876  0.3545
  100MOL   C20436042   3.959   6.010   0.477 -0.6081 -0.3420 -0.4821
  100MOL   C20536043   3.819   6.051   0.449  0.5820  0.0254 -0.1729
  100MOL   H20636044   4.059   5.608   0.284  2.2966 -1.0757 -2.5856
  100MOL   H20736045   3.893   5.651   0.266  2.5942  3.4908  3.1084
  100MOL   H20836046   3.985   5.771   0.055  0.9312 -0.1202 -0.9140
  100MOL   H20936047   3.859   5.882   0.230  0.1288 -0.6603 -3.1771
  100MOL   H21036048   4.002   5.970   0.210 -0.4546  0.2137  0.1181
  100MOL   H21136049   4.112   5.867   0.419  0.4852 -0.3142  0.2570
  100MOL   H21236050   3.971   5.788   0.444 -0.9819 -0.4250 -1.1743
  100MOL   H21336051   4.022   6.099   0.473 -0.0007 -0.6620  1.1404
  100MOL   H21436052   3.966   5.984   0.583 -0.0382 -0.5447 -0.5692
  100MOL   H21536053   3.785   6.128   0.518 -0.3040  0.2920 -0.8863
  100MOL   H21636054   3.811   6.091   0.347 -0.8493 -1.0392 -0.4937
  100MOL   H21736055   3.755   5.963   0.457 -1.3040  1.3762  0.0659
  100MOL   C21836056   4.185   5.788   0.148  0.1947 -0.2645  0.0539
  100MOL   C21936057   4.242   5.901   0.058 -0.1523  0.8372  0.2467
  100MOL   C22036058   4.184   5.894   7.640 -0.4441 -0.3642  0.3126
  100MOL   C22136059   4.071   5.988   7.609 -0.2853  0.2779  0.1505
  100MOL   C22236060   4.118   6.120   7.548  0.1564 -0.4260 -0.0852
  100MOL   C22336061   4.000   6.208   7.503  0.3989 -0.3514 -0.4632
  100MOL   H22436062   4.214   5.782   0.253 -3.6510 -0.4147  1.1991
  100MOL   H22536063   4.228   5.695   0.111 -1.0991 -1.2718  1.0136
  100MOL   H22636064   4.209   5.994   0.106  0.4196  0.5514  1.2223
  100MOL   H22736065   4.150   5.795   7.609  1.1898  0.0959 -3.2372
  100MOL   H22836066   4.267   5.900   7.569  0.1688 -2.3784  0.8221
  100MOL   H22936067   3.996   6.013   7.685  1.2503 -0.5978  2.0008
  100MOL   H23036068   4.013   5.927   7.539  0.1363  0.1754 -0.1094
  100MOL   H23136069   4.179   6.190   7.605 -0.9915  0.8177 -0.3459
  100MOL   H23236070   4.179   6.102   7.459  0.6691 -0.0334  0.1881
  100MOL   H23336071   4.025   6.307   7.466 -0.4192  1.1594  2.8440
  100MOL   H23436072   3.929   6.230   7.582  2.7905  3.1390  0.8719
  100MOL   H23536073   3.948   6.155   7.424  0.9307 -0.2618 -0.8769
  100MOL   C23636074   4.396   5.885   0.068 -0.3296 -0.0115 -0.4589
  100MOL   C23736075   4.490   5.999   0.023  0.0420  0.2824 -0.9290
  100MOL   C23836076   4.639   5.941   0.015  0.5461 -0.0764 -0.0826
  100MOL   C23936077   4.661   5.863   7.613 -0.1458 -0.5159 -0.5809
  100MOL   C24036078   4.800   5.804   7.600 -0.5759  0.4774 -0.4912
  100MOL   C24136079   4.808   5.713   7.478  0.1675  0.9049  0.0985
  100MOL   H24236080   4.414   5.874   0.175 -1.5736 -0.4539 -0.2816
  100MOL   H24336081   4.409   5.794   0.011 -3.0688 -0.9752  0.3539
  100MOL   H24436082   4.453   6.028   7.651 -1.1837  0.6589 -0.3803
  100MOL   H24536083   4.716   6.018   0.025 -0.0270  0.5788 -0.6230
  100MOL   H24636084   4.656   5.865   0.091 -1.3457  0.6961  1.1801
  100MOL   H24736085   4.638   5.924   7.526 -0.6330 -2.0726 -1.5587
  100MOL   H24836086   4.584   5.788   7.627  1.1785 -1.6561  0.7977
  100MOL   H24936087   4.880   5.878   7.603  0.4446 -0.6016 -0.3371
  100MOL   H25036088   4.814   5.745   7.691  0.0925  0.1124 -0.8228
  100MOL   H25136089   4.911   5.684   7.461 -1.1402 -3.0095 -1.8583
  100MOL   H25236090   4.743   5.625   7.488 -0.1439  0.9511 -1.3707
  100MOL   H25336091   4.763   5.765   7.393 -0.2445 -1.3987 -1.1472
  100MOL   C25436092   4.476   6.122   0.111  0.4655  0.4940 -0.5434
  100MOL   C25536093   4.546   6.248   0.056  0.6366  0.1902 -0.5989
  100MOL   C25636094   4.550   6.355   0.164  0.1154  0.0344  0.6755
  100MOL   C25736095   4.679   6.353   0.244  0.1937  0.3077  0.4824
  100MOL   C25836096   4.685   6.458   0.348 -0.0344 -0.4240 -0.1504
  100MOL   C25936097   4.724   6.601   0.287  0.7300  0.2437 -0.1404
  100MOL   H26036098   4.521   6.110   0.210  0.0321 -1.7310 -0.5945
  100MOL   H26136099   4.371   6.144   0.129 -0.1813 -1.5801 -1.6304
  100MOL   H26236100   4.647   6.213   0.033 -0.1582 -1.2451 -1.9521
  100MOL   H26336101   4.554   6.446   0.104  0.8386  0.4494  1.3554
  100MOL   H26436102   4.453   6.363   0.213 -1.5113 -1.4832 -2.1715
  100MOL   H26536103   4.691   6.261   0.300  3.0869  2.1012  2.9804
  100MOL   H26636104   4.769   6.370   0.185 -0.3973  1.2924 -0.1525
  100MOL   H26736105   4.762   6.434   0.422  1.1102  3.5759  0.1034
  100MOL   H26836106   4.590   6.459   0.402 -1.7640  1.7545 -3.1155
  100MOL   H26936107   4.647   6.634   0.217  0.8439 -4.0075 -2.4260
  100MOL   H27036108   4.818   6.598   0.232  0.0133 -2.0281 -1.3146
  100MOL   H27136109   4.735   6.677   0.364 -2.3643  0.4727  0.1514
  100MOL   C27236110   4.482   6.299   7.647 -0.3074  0.1393  0.2339
  100MOL   C27336111   4.537   6.422   7.565 -0.5242 -0.5370 -0.0997
  100MOL   C27436112   4.455   6.459   7.434 -0.8725 -0.1578 -0.2521
  100MOL   C27536113   4.308   6.502   7.450 -0.1714 -0.1053 -1.4460
  100MOL   C27636114   4.237   6.539   7.315 -0.1786  0.2970  0.0168
  100MOL   C27736115   4.097   6.571   7.330  0.5196  0.0972  0.0368
  100MOL   H27836116   4.475   6.215   7.579 -1.3023 -1.8458  2.7211
  100MOL   H27936117   4.376   6.313   7.669 -0.2209  1.6960 -0.2406
  100MOL   H28036118   4.521   6.504   7.635 -0.3701  1.2453 -2.1114
  100MOL   H28136119   4.458   6.370   7.372 -1.7874 -0.3263 -0.0647
  100MOL   H28236120   4.511   6.533   7.378  0.4851 -0.9238  0.0824
  100MOL   H28336121   4.296   6.577   7.529 -0.8054 -2.1982  0.4935
  100MOL   H28436122   4.265   6.408   7.482 -3.2873  1.7040 -0.0356
  100MOL   H28536123   4.290   6.620   7.266 -0.2443  0.3899  0.1015
  100MOL   H28636124   4.245   6.457   7.243 -0.3476  0.2357  0.0676
  100MOL   H28736125   4.040   6.493   7.381  0.2779  0.4527  0.3129
  100MOL   H28836126   4.089   6.667   7.380  4.9967  0.1235  0.9460
  100MOL   H28936127   4.064   6.583   7.227  2.0355 -0.3020 -0.5094
  100MOL   C29036128   4.688   6.406   7.542 -0.6253  0.3328 -0.1645
  100MOL   C29136129   4.771   6.533   7.508  0.9454 -0.5464 -0.1797
  100MOL   C29236130   4.776   6.616   7.639 -0.5693 -0.5485 -0.7475
  100MOL   C29336131   4.879   6.731   7.621  0.0631 -0.1712 -0.1813
  100MOL   C29436132   4.877   6.840   0.011 -0.4999  0.1841 -0.4667
  100MOL   C29536133   4.993   6.932   0.023 -0.0949 -0.4803  0.3803
  100MOL   H29636134   4.697   6.332   7.462 -1.0846  1.5469 -1.3612
  100MOL   H29736135   4.741   6.369   7.629  0.4284  1.2750 -0.3884
  100MOL   H29836136   4.711   6.590   7.437  2.3130  0.6439 -0.4171
  100MOL   H29936137   4.812   6.553   7.720 -1.7148  0.3055  0.4388
  100MOL   H30036138   4.678   6.652   7.670  0.1924  1.1151 -0.2381
  100MOL   H30136139   4.981   6.694   7.618  0.2595  0.3651 -0.2975
  100MOL   H30236140   4.860   6.791   7.532  1.4312  0.3731 -0.1159
  100MOL   H30336141   4.848   6.790   0.103 -2.1896  0.3684 -0.8897
  100MOL   H30436142   4.792   6.901   7.708 -0.7442 -0.0403 -0.2233
  100MOL   H30536143   5.081   6.878   0.061 -0.5400 -2.1739 -0.9676
  100MOL   H30636144   4.971   7.009   0.097  0.6126  0.3279 -0.2366
  100MOL   H30736145   5.018   6.984   7.658  0.9738 -0.1638  0.8306
  100MOL   C30836146   4.908   6.506   7.441 -0.2556 -0.4792  0.5014
  100MOL   C30936147   4.914   6.405   7.328  0.4532  0.4124  0.4549
  100MOL   C31036148   5.067   6.371   7.293 -0.2468  0.1543 -0.1220
  100MOL   C31136149   5.142   6.278   7.399 -0.2074  0.6507 -0.3100
  100MOL   C31236150   5.201   6.150   7.332 -0.9166  0.5150 -0.1149
  100MOL   C31336151   5.095   6.043   7.317 -0.0478  0.2390  0.3357
  100MOL   H31436152   4.945   6.597   7.396  0.9851 -1.6691 -0.9329
  100MOL   H31536153   4.974   6.473   7.522 -1.4038 -2.1924  0.7764
  100MOL   H31636154   4.873   6.311   7.367 -1.1601  0.3348 -1.3213
  100MOL   H31736155   5.124   6.463   7.286  1.5676 -0.9897 -0.7698
  100MOL   H31836156   5.069   6.321   7.196  0.4219  0.2174 -0.1436
  100MOL   H31936157   5.075   6.243   7.478 -1.5083  0.9556 -1.2602
  100MOL   H32036158   5.227   6.324   7.448 -0.1400 -1.9325  2.1522
  100MOL   H32136159   5.232   6.173   7.230 -1.3291 -2.3635 -0.9350
  100MOL   H32236160   5.283   6.112   7.394 -0.0496 -0.4990 -1.8573
  100MOL   H32336161   5.069   6.020   7.420  0.6661  2.1165  0.9518
  100MOL   H32436162   5.137   5.956   7.268  1.8944  1.5405 -0.3682
  100MOL   H32536163   5.006   6.071   7.260 -0.6225 -0.0031  1.1048
  100MOL   C32636164   4.833   6.446   7.200  0.1010 -0.2823 -0.1130
  100MOL   C32736165   4.823   6.341   7.080  0.5036  0.0899 -0.0823
  100MOL   C32836166   4.764   6.210   7.136  0.2381 -0.1828  0.4424
  100MOL   C32936167   4.736   6.103   7.028 -0.2707 -0.0759  0.6832
  100MOL   C33036168   4.721   5.965   7.094 -0.3920  0.0015 -0.0704
  100MOL   C33136169   4.708   5.857   6.984 -0.4301 -0.2231  0.5179
  100MOL   H33236170   4.874   6.545   7.176 -0.2165  0.2686  1.5702
  100MOL   H33336171   4.734   6.476   7.234  0.4320  0.9992 -0.2239
  100MOL   H33436172   4.921   6.304   7.049  0.0086 -1.1287 -0.2224
  100MOL   H33536173   4.827   6.165   7.212  0.7225 -2.0153 -1.0026
  100MOL   H33636174   4.668   6.248   7.170  0.7093  0.2911  1.2538
  100MOL   H33736175   4.816   6.104   6.954 -1.1092 -1.3857 -0.2604
  100MOL   H33836176   4.646   6.123   6.969 -1.8974 -2.3409  2.3249
  100MOL   H33936177   4.801   5.942   7.165  0.3650 -0.2161 -0.9825
  100MOL   H34036178   4.626   5.954   7.146  0.6322 -2.5637  1.3877
  100MOL   H34136179   4.654   5.777   7.034  1.5855 -0.7727  1.8658
  100MOL   H34236180   4.809   5.838   6.948 -0.5266  1.3914 -0.6618
  100MOL   H34336181   4.646   5.889   6.900 -0.2658  2.0751  1.2453
  100MOL   C34436182   4.752   6.398   6.953 -0.4067  0.0486  0.1253
  100MOL   C34536183   4.842   6.501   6.887  0.3853  0.7504 -0.3703
  100MOL   C34636184   4.807   6.535   6.744  0.2278  0.4307  0.1774
  100MOL   C34736185   4.928   6.584   6.664  0.2726 -0.4929 -0.5905
  100MOL   C34836186   5.011   6.697   6.733  0.3030 -0.0160  0.5921
  100MOL   C34936187   5.137   6.731   6.649 -0.0200 -0.4206 -0.1135
  100MOL   H35036188   4.725   6.322   6.880 -0.1262  0.3981 -0.3448
  100MOL   H35136189   4.655   6.446   6.971 -0.0968  1.1209 -0.9826
  100MOL   H35236190   4.943   6.460   6.889 -0.5412 -1.6059 -0.1496
  100MOL   H35336191   4.751   6.457   6.693 -1.2982 -0.2345  2.7974
  100MOL   H35436192   4.741   6.622   6.746 -1.2136 -0.6149 -0.6824
  100MOL   H35536193   4.994   6.501   6.637 -1.1270 -1.8482  0.0938
  100MOL   H35636194   4.891   6.620   6.568 -0.8218  1.7640  0.6390
  100MOL   H35736195   4.944   6.783   6.737 -0.7811 -0.8084 -0.1687
  100MOL   H35836196   5.034   6.670   6.836  0.5418  0.5095  0.6782
  100MOL   H35936197   5.194   6.811   6.696 -0.8756  0.7648 -1.0438
  100MOL   H36036198   5.204   6.646   6.657  1.4237  0.4712 -2.1147
  100MOL   H36136199   5.116   6.758   6.545 -0.2212  2.4038  0.6045
  100MOL   H36236200   4.850   6.592   6.946  0.5190  0.7911 -0.4496
  101MOL     C136201   1.112   2.268   5.531 -0.6918  0.6768 -0.7891
  101MOL     C236202   1.036   2.285   5.666 -0.2546  0.0779 -0.1345
  101MOL     C336203   1.081   2.407   5.751 -0.3539  0.3124  0.3918
  101MOL     C436204   1.232   2.410   5.788  0.4998  0.4345 -0.5317
  101MOL     C536205   1.269   2.519   5.885 -0.0957  0.0188 -0.6805
  101MOL     C636206   1.383   2.469   5.984  0.2125  0.1770  0.0942
  101MOL     H736207   1.214   2.229   5.539 -0.9627 -0.1801 -1.3407
  101MOL     H836208   1.051   2.202   5.469 -0.7577 -0.7959  0.8336
  101MOL     H936209   0.937   2.316   5.634  0.2092  0.4229 -1.2602
  101MOL    H1036210   1.023   2.405   5.843  0.5040  0.0788  0.9282
  101MOL    H1136211   1.051   2.496   5.695  3.9821  1.9429  0.4358
  101MOL    H1236212   1.292   2.411   5.697  2.6987  1.2078  0.8929
  101MOL    H1336213   1.258   2.316   5.837 -2.5816  0.8844  2.1438
  101MOL    H1436214   1.290   2.615   5.838 -0.4668 -0.1389 -1.1699
  101MOL    H1536215   1.180   2.548   5.942 -1.3622 -1.2178 -2.0083
  101MOL    H1636216   1.422   2.544   6.052 -1.1885  2.0793 -1.1559
  101MOL    H1736217   1.471   2.427   5.935  0.2156  1.4902 -1.0405
  101MOL    H1836218   1.357   2.384   6.047 -2.0598  0.0319 -0.9512
  101MOL    H1936219   1.136   2.364   5.486  2.7547  0.6036  0.7282
  101MOL    C2036220   1.026   2.144   5.739 -1.0973 -0.6966 -0.4891
  101MOL    C2136221   0.916   2.135   5.841 -0.1287  0.0229 -0.6764
  101MOL    C2236222   0.776   2.111   5.784  0.0313  0.8221  0.1102
  101MOL    C2336223   0.700   2.227   5.717 -0.3838 -0.7480 -0.2972
  101MOL    C2436224   0.549   2.220   5.702  0.1488  0.5659  0.4361
  101MOL    C2536225   0.503   2.079   5.667  0.1690 -0.8500 -0.0164
  101MOL    H2636226   1.120   2.113   5.785 -1.6557  0.3068  1.3800
  101MOL    H2736227   1.010   2.064   5.667  1.1244 -0.2172 -1.5747
  101MOL    H2836228   0.904   2.224   5.903 -1.4210 -1.4630  1.2729
  101MOL    H2936229   0.714   2.077   5.867  0.1906  2.3974  0.9044
  101MOL    H3036230   0.775   2.025   5.717  1.1599 -0.7000  2.0184
  101MOL    H3136231   0.748   2.245   5.621 -1.5888  2.0373 -0.4241
  101MOL    H3236232   0.721   2.320   5.769 -1.4565 -0.8210  0.2982
  101MOL    H3336233   0.506   2.249   5.798  0.9648 -0.7109  1.2095
  101MOL    H3436234   0.522   2.306   5.641  3.1187  1.3191  0.0914
  101MOL    H3536235   0.401   2.075   5.704  0.1072  1.0618  0.0617
  101MOL    H3636236   0.503   2.070   5.558  1.6834  0.8543 -0.1855
  101MOL    H3736237   0.559   1.994   5.706  2.3398  0.2284 -0.7311
  101MOL    C3836238   0.946   2.022   5.943  0.6014 -0.2862 -0.1724
  101MOL    C3936239   1.051   2.068   6.042 -0.8577 -0.2706  0.8448
  101MOL    C4036240   1.000   2.106   6.185  0.5584 -0.1628  0.3370
  101MOL    C4136241   0.907   2.229   6.174  0.2866  0.3327 -0.4376
  101MOL    C4236242   0.835   2.275   6.305 -0.1149 -0.3151  0.8314
  101MOL    C4336243   0.735   2.393   6.292 -0.2747 -0.4403 -0.1549
  101MOL    H4436244   0.962   1.931   5.886  0.3044 -0.3453 -0.1624
  101MOL    H4536245   0.859   1.994   6.002  1.1483 -0.5507  0.5114
  101MOL    H4636246   1.106   2.156   6.009 -0.0897 -0.4784  1.5645
  101MOL    H4736247   0.950   2.025   6.238 -0.9216 -0.6389 -1.7118
  101MOL    H4836248   1.080   2.142   6.249  1.8897  0.0524 -1.4069
  101MOL    H4936249   0.962   2.311   6.128  2.3116  0.6665  2.4105
  101MOL    H5036250   0.826   2.202   6.106 -0.3592  0.8102  0.1315
  101MOL    H5136251   0.781   2.191   6.349  0.2584 -0.1598  1.5833
  101MOL    H5236252   0.910   2.305   6.378  2.2274  0.7795 -1.9287
  101MOL    H5336253   0.665   2.412   6.374 -0.7852  1.1429 -0.9285
  101MOL    H5436254   0.672   2.391   6.203  0.1769  2.6274 -0.5964
  101MOL    H5536255   0.785   2.487   6.268  1.6887 -1.6040 -0.6889
  101MOL    C5636256   1.157   1.961   6.055  0.0640  0.1558  0.1434
  101MOL    C5736257   1.286   1.986   6.134  0.5519  0.3212 -0.6005
  101MOL    C5836258   1.382   2.073   6.049 -0.4995  0.2576 -0.0745
  101MOL    C5936259   1.469   1.996   5.944  0.3896 -0.4047  0.5094
  101MOL    C6036260   1.520   2.077   5.833  0.3170  0.5835 -0.0748
  101MOL    C6136261   1.593   2.002   5.716 -0.0293  0.5518 -0.1043
  101MOL    H6236262   1.109   1.868   6.086  0.4506 -1.2673 -3.3387
  101MOL    H6336263   1.198   1.947   5.955  1.3909 -0.4842  0.7720
  101MOL    H6436264   1.256   2.034   6.227 -0.8610  2.3650 -2.0472
  101MOL    H6536265   1.341   2.161   6.000  0.1845  0.6736  0.0989
  101MOL    H6636266   1.451   2.114   6.123 -0.1889  1.8537 -1.2340
  101MOL    H6736267   1.396   1.934   5.891 -1.4860  3.2406 -1.3420
  101MOL    H6836268   1.540   1.926   5.988 -0.0731 -0.9315  0.4230
  101MOL    H6936269   1.436   2.135   5.794 -1.7490 -1.9975  0.4410
  101MOL    H7036270   1.591   2.151   5.870 -0.1168  0.7402  0.4461
  101MOL    H7136271   1.620   2.064   5.630 -1.6357 -1.2329 -1.9642
  101MOL    H7236272   1.687   1.960   5.751 -1.0848 -2.2226 -0.4567
  101MOL    H7336273   1.531   1.922   5.677  1.4335 -0.3569 -0.6280
  101MOL    C7436274   1.356   1.853   6.180 -1.0049  0.5088  0.3714
  101MOL    C7536275   1.308   1.790   6.312  0.7927 -0.7096  0.1737
  101MOL    C7636276   1.355   1.645   6.324  0.0101  0.1538  0.1618
  101MOL    C7736277   1.508   1.618   6.337  0.2823  0.0851  0.1774
  101MOL    C7836278   1.543   1.468   6.307  0.1084 -0.1024 -0.0470
  101MOL    C7936279   1.697   1.448   6.291  0.1239 -0.0518  0.4328
  101MOL    H8036280   1.367   1.783   6.097 -1.5470  1.0132 -0.1326
  101MOL    H8136281   1.457   1.881   6.209 -0.3804 -1.6603  0.4075
  101MOL    H8236282   1.202   1.788   6.286  1.5568  0.8335 -3.3725
  101MOL    H8336283   1.296   1.602   6.405  0.1540 -2.2044 -0.9430
  101MOL    H8436284   1.323   1.599   6.230  0.2101  1.7073 -0.6820
  101MOL    H8536285   1.572   1.678   6.272  0.6278  1.2391  1.5845
  101MOL    H8636286   1.545   1.628   6.439  0.2398  0.3352  0.1665
  101MOL    H8736287   1.504   1.435   6.211 -0.7137 -1.9369  0.9097
  101MOL    H8836288   1.509   1.394   6.379  2.7214 -2.1756 -0.8850
  101MOL    H8936289   1.755   1.498   6.213  1.9953 -1.2447  1.0265
  101MOL    H9036290   1.747   1.470   6.385 -1.6333  1.2358  1.0907
  101MOL    H9136291   1.717   1.342   6.279 -1.0698 -0.0599 -1.6414
  101MOL    C9236292   1.337   1.877   6.437 -0.1452  0.1010 -0.1275
  101MOL    C9336293   1.238   1.873   6.559  1.1653 -0.5591 -0.9316
  101MOL    C9436294   1.306   1.930   6.694 -0.1433 -0.4912 -0.6647
  101MOL    C9536295   1.344   1.819   6.786 -0.3127 -0.0756 -0.5643
  101MOL    C9636296   1.429   1.870   6.902  0.1906  0.0366  0.0276
  101MOL    C9736297   1.445   1.771   7.023  0.0316 -0.0794  0.0502
  101MOL    H9836298   1.436   1.848   6.472 -0.6648  0.7331  1.9406
  101MOL    H9936299   1.359   1.983   6.420 -0.6536  0.4195  1.1393
  101MOL   H10036300   1.217   1.767   6.571 -0.9733 -0.2037 -1.3320
  101MOL   H10136301   1.230   1.983   6.751 -2.6809 -2.5852 -1.9657
  101MOL   H10236302   1.377   2.011   6.679 -0.0684 -0.2780  0.8233
  101MOL   H10336303   1.258   1.755   6.804 -1.1143  1.5029  1.4287
  101MOL   H10436304   1.415   1.753   6.735  0.7849  0.6262  0.0358
  101MOL   H10536305   1.530   1.898   6.873  0.0772  0.5841  0.1611
  101MOL   H10636306   1.379   1.959   6.939 -1.7320 -0.8621 -0.3447
  101MOL   H10736307   1.357   1.721   7.064  2.8292 -3.4287  2.3158
  101MOL   H10836308   1.508   1.684   7.001  1.6310  0.9272  0.5154
  101MOL   H10936309   1.484   1.821   7.112  1.2616  0.5711 -0.8366
  101MOL   C11036310   1.103   1.942   6.520 -0.1105 -0.2908 -0.2901
  101MOL   C11136311   0.987   1.944   6.628  0.1458  0.9675 -0.1710
  101MOL   C11236312   0.939   1.815   6.700  0.0773  0.6083 -0.3579
  101MOL   C11336313   0.862   1.716   6.607  0.1864 -0.4712  0.2039
  101MOL   C11436314   0.834   1.582   6.671  0.4729  0.0223  0.4383
  101MOL   C11536315   0.724   1.578   6.782  0.0835  0.1815  0.2205
  101MOL   H11636316   1.117   2.048   6.497  2.7770 -0.4448  0.5208
  101MOL   H11736317   1.076   1.891   6.428 -0.5707  1.6426 -1.2371
  101MOL   H11836318   1.018   2.011   6.708  3.5829 -1.1425  0.3710
  101MOL   H11936319   0.884   1.822   6.793  0.7244 -2.4786  0.3433
  101MOL   H12036320   1.030   1.764   6.734  1.0178  2.1411 -0.5283
  101MOL   H12136321   0.913   1.698   6.513  1.8204 -1.7809  1.3175
  101MOL   H12236322   0.764   1.756   6.583  0.4760  0.1989  0.1020
  101MOL   H12336323   0.930   1.550   6.710  0.1510  0.4597  1.6314
  101MOL   H12436324   0.804   1.510   6.596 -0.5742  1.4782 -0.5640
  101MOL   H12536325   0.705   1.476   6.814 -1.7455 -0.0712 -1.5840
  101MOL   H12636326   0.766   1.631   6.868  0.6160 -1.8894  1.2570
  101MOL   H12736327   0.636   1.634   6.751  0.9527  2.1149  1.1226
  101MOL   C12836328   0.864   2.010   6.558  0.2284 -0.3287 -0.0025
  101MOL   C12936329   0.758   2.068   6.659  0.2683  0.6171  0.3325
  101MOL   C13036330   0.617   2.078   6.591  0.8422  0.6475 -0.3591
  101MOL   C13136331   0.553   1.938   6.587  0.0582 -0.0152 -0.1979
  101MOL   C13236332   0.412   1.946   6.540  0.5048  0.0458 -0.3830
  101MOL   C13336333   0.335   1.811   6.553 -0.0177  0.2995 -0.1883
  101MOL   H13436334   0.818   1.944   6.484  0.5750 -0.8025  0.1995
  101MOL   H13536335   0.908   2.094   6.503 -0.5284  0.7340  0.9880
  101MOL   H13636336   0.747   2.011   6.751 -2.0500 -0.4277 -0.5418
  101MOL   H13736337   0.543   2.137   6.646  0.6012 -0.6919  0.7972
  101MOL   H13836338   0.622   2.122   6.492 -2.8800  1.9714 -0.0529
  101MOL   H13936339   0.564   1.881   6.679  1.1034  0.1237 -0.2365
  101MOL   H14036340   0.604   1.876   6.513 -0.4589 -1.3695  0.5540
  101MOL   H14136341   0.354   2.012   6.604  0.1744  0.3194 -0.9573
  101MOL   H14236342   0.403   1.992   6.441 -1.3069 -0.5137 -0.5087
  101MOL   H14336343   0.231   1.814   6.523 -0.6698  4.1484  2.1847
  101MOL   H14436344   0.334   1.776   6.656 -1.3637  2.4210  0.5492
  101MOL   H14536345   0.387   1.731   6.500  0.3748  0.5190 -0.1416
  101MOL   C14636346   0.805   2.202   6.714 -0.3413  0.5639 -0.2183
  101MOL   C14736347   0.709   2.270   6.817 -0.1578  0.2525 -0.1001
  101MOL   C14836348   0.756   2.414   6.848 -0.2141  0.1825  0.0493
  101MOL   C14936349   0.717   2.504   6.728 -0.3673 -0.0717 -0.3411
  101MOL   C15036350   0.840   2.547   6.645  0.4882  0.3017 -0.3864
  101MOL   C15136351   0.801   2.665   6.554 -0.6435  0.1819  0.0391
  101MOL   H15236352   0.897   2.196   6.773 -0.5943  1.1370  0.2374
  101MOL   H15336353   0.803   2.263   6.624  1.1236 -0.6252 -1.0673
  101MOL   H15436354   0.608   2.282   6.778  0.2592 -0.9702 -1.6061
  101MOL   H15536355   0.860   2.425   6.879 -0.2883  0.7222  0.1069
  101MOL   H15636356   0.691   2.439   6.932  1.3724  0.1926  1.3074
  101MOL   H15736357   0.637   2.462   6.667 -0.5070  0.4400 -0.5165
  101MOL   H15836358   0.674   2.596   6.769  1.7967 -0.0842  2.0860
  101MOL   H15936359   0.867   2.461   6.583  1.7746  1.1606 -1.0487
  101MOL   H16036360   0.924   2.577   6.707  0.4338 -0.1197 -0.1154
  101MOL   H16136361   0.798   2.756   6.615  0.1321  0.7151 -0.7088
  101MOL   H16236362   0.869   2.676   6.470  0.7129 -1.8425  0.8414
  101MOL   H16336363   0.697   2.656   6.523 -0.3462  2.1973 -1.6934
  101MOL   C16436364   0.699   2.190   6.953 -0.1877  0.0907  0.2808
  101MOL   C16536365   0.553   2.140   6.979  0.6158  0.8341 -0.0251
  101MOL   C16636366   0.564   2.022   7.083  0.3781  0.8642  0.4079
  101MOL   C16736367   0.555   1.878   7.022 -0.2327 -0.1938 -0.4114
  101MOL   C16836368   0.532   1.781   7.143 -0.5042  0.0920  0.5786
  101MOL   C16936369   0.546   1.631   7.107 -0.4748 -0.1167  0.6999
  101MOL   H17036370   0.758   2.099   6.943 -1.0329 -0.2341 -2.0500
  101MOL   H17136371   0.737   2.245   7.039 -1.3223  1.4520 -0.0745
  101MOL   H17236372   0.516   2.099   6.885 -0.3828  1.0912  0.2551
  101MOL   H17336373   0.478   2.037   7.149  0.2846  0.9910  0.2562
  101MOL   H17436374   0.652   2.030   7.147 -0.2450  2.0233  1.1345
  101MOL   H17536375   0.648   1.855   6.970 -0.5650 -2.4248 -0.0718
  101MOL   H17636376   0.483   1.863   6.941 -0.5251  2.5954 -0.7229
  101MOL   H17736377   0.431   1.785   7.184 -0.5500 -0.9080  0.5766
  101MOL   H17836378   0.602   1.802   7.224  0.1273  0.7379 -0.1346
  101MOL   H17936379   0.646   1.595   7.082  0.3496  1.5353  1.4911
  101MOL   H18036380   0.477   1.616   7.024  0.9308  0.0328 -0.5083
  101MOL   H18136381   0.502   1.576   7.191  1.5795 -1.9217  0.6433
  101MOL   C18236382   0.447   2.252   7.015 -0.4636  0.2446 -0.2025
  101MOL   C18336383   0.302   2.215   6.992 -0.8475  0.1377 -0.5226
  101MOL   C18436384   0.273   2.195   6.836  0.6733  0.7388  0.3050
  101MOL   C18536385   0.293   2.317   6.748 -0.1173 -0.0405  0.1449
  101MOL   C18636386   0.247   2.298   6.607  0.2075 -0.3141 -0.0159
  101MOL   C18736387   0.251   2.419   6.515 -0.5111  0.0940 -0.1623
  101MOL   H18836388   0.460   2.276   7.121 -2.3767  1.3787 -0.2105
  101MOL   H18936389   0.470   2.342   6.958  1.5026 -1.1311 -1.6624
  101MOL   H19036390   0.290   2.120   7.043 -1.1492  0.5476  0.1973
  101MOL   H19136391   0.341   2.123   6.789 -0.5919  1.8136 -3.3133
  101MOL   H19236392   0.178   2.143   6.822  0.4864  0.9218  0.8702
  101MOL   H19336393   0.399   2.339   6.759 -0.0326 -0.9802  1.2434
  101MOL   H19436394   0.242   2.406   6.785  1.1833  0.7693 -0.0132
  101MOL   H19536395   0.145   2.261   6.608  0.1590 -0.2392 -1.2914
  101MOL   H19636396   0.314   2.234   6.550  1.3950  1.7562 -1.0317
  101MOL   H19736397   0.167   2.482   6.545  0.6705  0.7611  1.8313
  101MOL   H19836398   0.244   2.392   6.409 -2.7199 -1.4957  0.3558
  101MOL   H19936399   0.342   2.474   6.537 -0.8373  0.5723 -0.0076
  101MOL   C20036400   0.209   2.317   7.061 -0.3475  0.2322 -0.4110
  101MOL   C20136401   0.057   2.269   7.083  1.1716 -0.6029  0.1206
  101MOL   C20236402   0.040   2.138   7.157  0.6027  0.1160 -0.2646
  101MOL   C20336403   0.076   2.138   7.304  0.4283 -0.0844  0.3689
  101MOL   C20436404   0.067   1.995   7.376  0.1178 -0.1362 -0.3621
  101MOL   C20536405   0.107   2.012   7.524 -0.0046 -0.5240  0.1583
  101MOL   H20636406   0.221   2.415   7.013  0.4427  0.5751  0.4569
  101MOL   H20736407   0.257   2.328   7.158 -0.2952 -1.2462 -0.2693
  101MOL   H20836408   0.027   2.236   6.984  0.7841  0.3973 -0.1000
  101MOL   H20936409   0.085   2.051   7.109 -2.0406 -0.7327 -1.3425
  101MOL   H21036410   7.662   2.107   7.152  0.6857 -0.0545 -1.0273
  101MOL   H21136411   0.007   2.206   7.353  2.8970  1.5406  1.6599
  101MOL   H21236412   0.170   2.185   7.332  1.5708 -1.5219 -0.9285
  101MOL   H21336413   0.137   1.928   7.328  1.1025 -3.0727  4.8136
  101MOL   H21436414   7.696   1.951   7.359 -1.0756  1.1694  2.6578
  101MOL   H21536415   0.067   2.105   7.566  0.5185 -0.4504  0.4984
  101MOL   H21636416   0.063   1.936   7.588 -0.1166  0.3591  1.1502
  101MOL   H21736417   0.213   2.009   7.549 -0.2990  0.8026  1.6104
  101MOL   C21836418   7.697   2.381   7.131  0.4602 -0.5200  0.6229
  101MOL   C21936419   7.546   2.362   7.108 -0.2533  0.1517  0.3276
  101MOL   C22036420   7.480   2.427   6.976  0.2833  0.0270 -0.9122
  101MOL   C22136421   7.554   2.387   6.844  0.5124  0.0576 -0.0805
  101MOL   C22236422   7.466   2.392   6.718 -0.0622  0.5022  0.5414
  101MOL   C22336423   7.395   2.527   6.695  0.2296 -0.0294 -0.2677
  101MOL   H22436424   7.710   2.397   7.238  0.2506 -0.9779  0.7205
  101MOL   H22536425   0.010   2.471   7.085  1.4532 -1.0035  0.5262
  101MOL   H22636426   7.520   2.258   7.090 -0.9187  0.0152  2.0034
  101MOL   H22736427   7.481   2.534   6.994 -1.2212 -0.4563  2.3363
  101MOL   H22836428   7.379   2.389   6.968  0.0802  0.5657 -0.9003
  101MOL   H22936429   7.572   2.279   6.848  0.3777 -0.0801 -2.6901
  101MOL   H23036430   7.645   2.445   6.834  1.8492 -2.5783 -4.3665
  101MOL   H23136431   7.516   2.384   6.622 -0.8437  0.6882  0.1202
  101MOL   H23236432   7.395   2.310   6.706  0.4308  0.0728  0.5350
  101MOL   H23336433   7.343   2.535   6.600 -1.6711 -1.9308  0.5708
  101MOL   H23436434   7.458   2.616   6.692 -0.7560  0.6773 -0.4617
  101MOL   H23536435   7.314   2.538   6.768  0.8811  1.5932  0.2375
  101MOL   C23636436   7.461   2.427   7.226  0.4349  0.3040 -0.3846
  101MOL   C23736437   7.432   2.339   7.350  0.5999 -0.5515  0.0410
  101MOL   C23836438   7.339   2.210   7.316  0.1320 -0.5079 -0.3009
  101MOL   C23936439   7.394   2.076   7.368 -0.0528  0.4264  0.3983
  101MOL   C24036440   7.391   2.069   7.519  0.6709 -0.1646  0.1893
  101MOL   C24136441   7.432   1.933   7.578  0.2980  0.4378 -1.0286
  101MOL   H24236442   7.512   2.520   7.249  3.0528 -0.6341 -2.1314
  101MOL   H24336443   7.358   2.445   7.194 -0.4476 -1.2508  1.4989
  101MOL   H24436444   7.532   2.308   7.382  0.7202 -1.7744 -1.4755
  101MOL   H24536445   7.243   2.227   7.364  0.6780  0.4893  0.4583
  101MOL   H24636446   7.319   2.208   7.209 -2.1415 -1.7041  0.1324
  101MOL   H24736447   7.497   2.064   7.336 -0.2251 -2.0485  0.6982
  101MOL   H24836448   7.340   1.987   7.336  0.9388  0.0414 -0.2169
  101MOL   H24936449   7.456   2.148   7.555  2.4442 -2.4575  2.2650
  101MOL   H25036450   7.303   2.106   7.570  0.3382  0.0748 -0.5673
  101MOL   H25136451   7.447   1.946   7.685 -0.0264 -0.5339 -0.8596
  101MOL   H25236452   7.362   1.850   7.573 -0.3217  0.9008 -0.1771
  101MOL   H25336453   7.523   1.891   7.536 -1.0851 -3.2338 -0.5026
  101MOL   C25436454   7.372   2.421   7.470 -0.2653 -0.1522 -0.3021
  101MOL   C25536455   7.433   2.555   7.517  0.6037  0.1550 -0.0343
  101MOL   C25636456   7.584   2.554   7.527 -0.0061 -0.3542 -0.1552
  101MOL   C25736457   7.650   2.456   7.620  0.1803  0.2729  0.2933
  101MOL   C25836458   0.068   2.477   7.637  0.1752  0.0116 -0.1968
  101MOL   C25936459   0.157   2.447   7.514 -0.7434  0.2753 -0.7281
  101MOL   H26036460   7.372   2.360   7.560 -1.1876 -1.9939 -1.5119
  101MOL   H26136461   7.269   2.444   7.442  0.8551  2.2817 -2.6868
  101MOL   H26236462   7.405   2.618   7.432  0.1460  1.5858  1.1611
  101MOL   H26336463   7.628   2.544   7.427  0.5009 -2.5202  0.2486
  101MOL   H26436464   7.620   2.653   7.553 -3.2386  0.1213  2.7969
  101MOL   H26536465   7.609   2.467   7.721  3.0858  1.3334  1.4141
  101MOL   H26636466   7.639   2.351   7.594  0.0527  0.2562  0.4124
  101MOL   H26736467   0.095   2.417   7.724 -0.7858 -0.9462 -0.5352
  101MOL   H26836468   0.084   2.581   7.663  2.3378 -0.0246 -1.2608
  101MOL   H26936469   0.152   2.338   7.504  0.5049  0.1378 -0.0515
  101MOL   H27036470   0.260   2.473   7.540 -0.6348  0.0466 -0.9297
  101MOL   H27136471   0.124   2.512   7.434 -0.2219 -0.3125 -1.4300
  101MOL   C27236472   7.368   2.609   7.646 -0.3552 -0.0199  0.0423
  101MOL   C27336473   7.380   2.758   7.687  0.2792  0.2464  0.5378
  101MOL   C27436474   7.489   2.779   0.068  0.2837  0.1980 -0.0294
  101MOL   C27536475   7.553   2.922   0.089 -0.9448  0.8826 -0.2021
  101MOL   C27636476   7.627   2.973   7.682  1.0708 -0.3742  0.0279
  101MOL   C27736477   7.718   3.096   7.713 -0.1703  0.3487 -0.3984
  101MOL   H27836478   7.266   2.572   7.650 -1.1597  2.1016 -0.2783
  101MOL   H27936479   7.401   2.558   0.010  0.6044  1.3259  0.4756
  101MOL   H28036480   7.400   2.803   7.590 -0.4260 -0.4763  0.0486
  101MOL   H28136481   7.576   2.717   0.046 -1.0610 -1.0245 -2.0317
  101MOL   H28236482   7.449   2.748   0.165 -1.9486  1.0497 -0.6471
  101MOL   H28336483   7.637   2.921   0.157 -1.3679 -2.3312  0.3430
  101MOL   H28436484   7.475   2.982   0.136 -1.2238  1.8250 -1.8073
  101MOL   H28536485   7.685   2.891   7.641  1.0934 -0.2546 -0.1754
  101MOL   H28636486   7.555   3.006   7.606 -1.8551  0.0490  2.8490
  101MOL   H28736487   0.035   3.137   7.622  0.9552 -1.3027 -0.6063
  101MOL   H28836488   7.657   3.174   0.032  0.8745  0.8622  0.1264
  101MOL   H28936489   0.069   3.071   0.058 -0.1391 -0.1946 -0.6215
  101MOL   C29036490   7.244   2.813   0.009 -0.6404 -0.0966  0.1208
  101MOL   C29136491   7.129   2.812   7.629  0.1658  0.3983 -0.7406
  101MOL   C29236492   7.004   2.801   7.726 -0.3885  0.3400  0.5802
  101MOL   C29336493   6.954   2.657   0.023 -0.2180  0.4818  0.3838
  101MOL   C29436494   6.816   2.641   0.085  0.1720  0.1950 -0.1855
  101MOL   C29536495   6.779   2.505   0.141  0.1918  0.0266  1.1207
  101MOL   H29636496   7.259   2.915   0.043 -1.2222  0.2479 -0.6492
  101MOL   H29736497   7.211   2.758   0.098 -0.5364 -0.7134 -0.2177
  101MOL   H29836498   7.141   2.731   7.558 -2.5890  0.0521 -0.8561
  101MOL   H29936499   6.919   2.844   7.672  0.9047 -0.9429 -2.5237
  101MOL   H30036500   7.014   2.867   0.086  0.8344 -0.0280  0.7148
  101MOL   H30136501   6.956   2.602   7.656 -1.9571  1.4094 -0.2258
  101MOL   H30236502   7.027   2.606   0.085  0.7112  0.7604 -0.4764
  101MOL   H30336503   6.738   2.671   0.015  1.2880  2.3490 -0.5511
  101MOL   H30436504   6.815   2.713   0.167  0.7099 -3.0283  2.8019
  101MOL   H30536505   6.861   2.469   0.203  0.6754 -0.6312  0.1124
  101MOL   H30636506   6.772   2.446   0.049 -0.2579  1.7110  0.0557
  101MOL   H30736507   6.681   2.510   0.190 -0.4721 -1.0964 -0.0618
  101MOL   C30836508   7.113   2.951   7.553  0.1356  0.0859  0.3659
  101MOL   C30936509   7.217   3.006   7.454  0.8448 -0.4092 -0.3005
  101MOL   C31036510   7.178   3.147   7.405  0.4337  0.1460 -0.6097
  101MOL   C31136511   7.040   3.159   7.337  0.0446  0.8966  0.1694
  101MOL   C31236512   7.005   3.300   7.289 -0.2255 -0.3976 -0.3179
  101MOL   C31336513   6.873   3.303   7.223 -0.0334 -1.0646 -0.1654
  101MOL   H31436514   7.026   2.934   7.491  0.5575  0.3202 -0.2940
  101MOL   H31536515   7.084   3.031   7.620 -1.8011 -0.2581 -0.0356
  101MOL   H31636516   7.312   3.012   7.508  0.9302 -0.1386 -0.4784
  101MOL   H31736517   7.250   3.189   7.335  0.3889 -1.0071 -1.3497
  101MOL   H31836518   7.183   3.220   7.486  0.6197  0.4005 -0.8480
  101MOL   H31936519   6.967   3.104   7.396  1.1144 -0.5221  0.1975
  101MOL   H32036520   7.049   3.101   7.244  2.0966 -0.0148  0.9096
  101MOL   H32136521   7.021   3.363   7.377 -0.2457 -4.2008  2.5786
  101MOL   H32236522   7.085   3.320   7.218 -0.3403  1.7485  0.1441
  101MOL   H32336523   6.858   3.220   7.155  2.5709 -2.1872  0.5832
  101MOL   H32436524   6.854   3.399   7.173 -0.2041 -0.9299  0.1536
  101MOL   H32536525   6.786   3.305   7.290 -0.5895 -0.6772 -0.8906
  101MOL   C32636526   7.254   2.902   7.343 -0.7384  0.6788  0.3284
  101MOL   C32736527   7.357   2.934   7.227 -0.4174 -0.0829 -0.6546
  101MOL   C32836528   7.502   2.922   7.285  1.1241  0.4179 -0.1598
  101MOL   C32936529   7.625   2.954   7.198 -0.0320 -0.3188 -0.1767
  101MOL   C33036530   0.027   3.003   7.264  0.2555  0.2453  0.1967
  101MOL   C33136531   0.124   3.044   7.157 -0.8095 -0.6071  0.8640
  101MOL   H33236532   7.153   2.875   7.310 -0.1344 -2.0518  0.5769
  101MOL   H33336533   7.285   2.806   7.383 -0.9976 -1.1798 -3.6256
  101MOL   H33436534   7.345   3.039   7.201 -1.6798 -0.4616 -1.6432
  101MOL   H33536535   7.502   2.986   7.373  0.0839 -0.6386  0.6317
  101MOL   H33636536   7.501   2.818   7.320  0.4549  0.6877  0.6335
  101MOL   H33736537   7.602   3.040   7.134 -1.0301 -0.7300 -0.3842
  101MOL   H33836538   7.657   2.870   7.137  0.5435 -0.8899  0.9048
  101MOL   H33936539   0.019   3.099   7.316 -1.5220  0.3184 -0.1780
  101MOL   H34036540   0.076   2.924   7.321  3.3344 -0.0790 -2.7126
  101MOL   H34136541   0.131   2.959   7.089  2.3739  2.3235 -2.6778
  101MOL   H34236542   0.221   3.070   7.198  0.5662 -2.6551 -0.9707
  101MOL   H34336543   0.087   3.130   7.100  1.6424  0.1724  0.4111
  101MOL   C34436544   7.342   2.849   7.097  0.4980  0.4578  0.0921
  101MOL   C34536545   7.226   2.891   7.001 -0.5848  0.3993 -0.0497
  101MOL   C34636546   7.200   2.794   6.890  0.1566  0.6492 -0.3850
  101MOL   C34736547   7.070   2.840   6.812 -0.2984  0.2868  0.0198
  101MOL   C34836548   7.045   2.762   6.678 -0.1219  0.3492 -0.3476
  101MOL   C34936549   6.917   2.797   6.604  0.0560  0.5215  0.0511
  101MOL   H35036550   7.435   2.867   7.041  0.0555 -1.3402 -1.2694
  101MOL   H35136551   7.350   2.741   7.108  0.5566  0.4732  0.2030
  101MOL   H35236552   7.255   2.982   6.949 -2.4092  1.0059 -0.0503
  101MOL   H35336553   7.292   2.788   6.833  0.5437 -2.3110  0.4946
  101MOL   H35436554   7.183   2.690   6.916 -0.1226  0.8707  0.3250
  101MOL   H35536555   6.989   2.822   6.883 -0.2387 -1.2501 -0.2993
  101MOL   H35636556   7.076   2.949   6.801  1.3069  0.4343  2.1508
  101MOL   H35736557   7.135   2.770   6.617  1.2271  2.6703  1.8934
  101MOL   H35836558   7.038   2.658   6.711 -0.0602  0.0355 -1.2910
  101MOL   H35936559   6.901   2.720   6.529 -2.0712  0.1928  0.8201
  101MOL   H36036560   6.829   2.813   6.667  1.5255  2.3614  1.7396
  101MOL   H36136561   6.931   2.894   6.556 -0.2601  0.0612 -0.9683
  101MOL   H36236562   7.135   2.907   7.059  0.1052 -1.7749  1.7184
  102MOL     C136563   4.789   4.394   3.653 -0.1708  0.4340  0.2237
  102MOL     C236564   4.685   4.422   3.758  0.0931  0.1037  0.5053
  102MOL     C336565   4.554   4.358   3.710  0.5524  0.5374 -0.6569
  102MOL     C436566   4.546   4.206   3.704  0.4245  0.2744 -0.0661
  102MOL     C536567   4.536   4.133   3.840  0.2230 -0.1778  0.5798
  102MOL     C636568   4.495   3.983   3.825  0.4057  0.0321  0.1254
  102MOL     H736569   4.772   4.410   3.547  1.5241 -1.8218 -0.4115
  102MOL     H836570   4.876   4.453   3.682 -0.5005  0.5439  1.0361
  102MOL     H936571   4.712   4.359   3.842  1.0845 -1.0206 -0.6415
  102MOL    H1036572   4.523   4.407   3.617  0.5361  1.6752 -0.0518
  102MOL    H1136573   4.470   4.391   3.770  1.2518  1.1809 -0.0298
  102MOL    H1236574   4.628   4.155   3.653 -0.3203 -0.6716 -0.3340
  102MOL    H1336575   4.461   4.185   3.640 -1.3909 -0.4046  2.4890
  102MOL    H1436576   4.630   4.143   3.895 -0.1832  1.6025  0.9686
  102MOL    H1536577   4.459   4.187   3.895 -0.4880 -1.3983  0.7985
  102MOL    H1636578   4.581   3.930   3.786 -0.5506 -1.0477 -0.5411
  102MOL    H1736579   4.409   3.958   3.763  0.2714  1.0400 -0.0969
  102MOL    H1836580   4.467   3.940   3.921  1.9315  0.4611  0.7676
  102MOL    H1936581   4.813   4.289   3.668 -3.5605 -0.4849 -0.4422
  102MOL    C2036582   4.660   4.571   3.777  0.9754  0.6169  0.3777
  102MOL    C2136583   4.767   4.645   3.864 -0.7480  0.4516  0.2737
  102MOL    C2236584   4.755   4.802   3.878  0.1939 -0.7933 -0.0154
  102MOL    C2336585   4.891   4.869   3.885 -0.4106  0.8417 -0.3429
  102MOL    C2436586   4.891   5.024   3.854 -0.3620 -0.5520  0.7989
  102MOL    C2536587   5.031   5.069   3.811 -0.0026  0.5572 -0.3280
  102MOL    H2636588   4.565   4.590   3.827 -0.7080 -0.4458 -2.3477
  102MOL    H2736589   4.651   4.619   3.680  2.2924  2.4192  1.1210
  102MOL    H2836590   4.863   4.630   3.814 -0.2489 -1.9789  1.9069
  102MOL    H2936591   4.693   4.818   3.967 -3.1982 -0.4325 -2.3461
  102MOL    H3036592   4.691   4.843   3.800  0.9046 -2.6583 -1.6039
  102MOL    H3136593   4.959   4.835   3.807  0.7073 -0.8319  1.3252
  102MOL    H3236594   4.942   4.847   3.979  0.9450  0.1996 -1.2122
  102MOL    H3336595   4.819   5.044   3.775 -0.7272 -1.7220  0.8155
  102MOL    H3436596   4.856   5.075   3.943 -2.2079 -0.0982 -0.1551
  102MOL    H3536597   5.084   4.998   3.748  1.2903  0.5936  0.6696
  102MOL    H3636598   5.020   5.161   3.754  0.0636 -0.3764 -1.8546
  102MOL    H3736599   5.093   5.092   3.899 -2.0937 -1.5684  1.7672
  102MOL    C3836600   4.791   4.571   3.997 -0.1277  0.0503 -0.1950
  102MOL    C3936601   4.664   4.531   4.082  0.2192  0.8625  0.3999
  102MOL    C4036602   4.711   4.432   4.183  0.0452 -0.4027  0.0319
  102MOL    C4136603   4.733   4.298   4.129  0.2603 -0.0358  0.1502
  102MOL    C4236604   4.786   4.211   4.237 -0.1651  1.0368  0.4045
  102MOL    C4336605   4.807   4.070   4.186 -0.4176 -0.0252  0.1936
  102MOL    H4436606   4.853   4.632   4.063 -1.0205  0.9251 -0.1474
  102MOL    H4536607   4.849   4.483   3.972 -0.7052 -0.8352  1.4577
  102MOL    H4636608   4.601   4.478   4.010  0.6142 -2.3625  2.3006
  102MOL    H4736609   4.793   4.480   4.237  0.7914 -2.4960  0.7981
  102MOL    H4836610   4.641   4.415   4.265 -0.4175  0.2230 -0.2297
  102MOL    H4936611   4.641   4.255   4.089  0.8637  1.9135 -3.5526
  102MOL    H5036612   4.800   4.290   4.044 -1.3143 -0.0235 -1.1275
  102MOL    H5136613   4.880   4.245   4.280  0.8748 -2.4694  1.0809
  102MOL    H5236614   4.711   4.200   4.315 -0.1330 -1.3978  0.1270
  102MOL    H5336615   4.716   4.030   4.141 -0.8501  0.1009  0.9539
  102MOL    H5436616   4.846   4.008   4.266 -0.0170 -2.2797 -1.6927
  102MOL    H5536617   4.877   4.059   4.103  0.3512  1.3165  0.6488
  102MOL    C5636618   4.585   4.654   4.137 -0.5892 -0.1687 -0.1613
  102MOL    C5736619   4.467   4.613   4.229 -0.2285  0.1022  0.8405
  102MOL    C5836620   4.373   4.508   4.168  0.5810 -0.0225 -0.7460
  102MOL    C5936621   4.311   4.514   4.022  0.3642 -0.4846  0.2138
  102MOL    C6036622   4.205   4.407   4.001  0.5527  0.5605 -0.3077
  102MOL    C6136623   4.156   4.390   3.856 -0.1946 -1.0830 -0.7260
  102MOL    H6236624   4.652   4.727   4.182 -0.4698  1.5908 -3.0309
  102MOL    H6336625   4.537   4.705   4.053 -1.7797 -2.4402 -0.9029
  102MOL    H6436626   4.509   4.570   4.320  4.1705 -0.5097 -1.3581
  102MOL    H6536627   4.422   4.411   4.176  0.0125 -0.3911 -1.6778
  102MOL    H6636628   4.285   4.503   4.232  1.1292 -0.6537 -0.0323
  102MOL    H6736629   4.392   4.507   3.950 -0.1334  0.5535 -0.4538
  102MOL    H6836630   4.264   4.611   4.006  0.5750 -0.7041 -1.8503
  102MOL    H6936631   4.240   4.307   4.028  2.5121  1.2222 -0.3093
  102MOL    H7036632   4.118   4.425   4.065  0.5201  0.1574 -0.2378
  102MOL    H7136633   4.131   4.491   3.823 -2.0723 -1.9534 -2.0822
  102MOL    H7236634   4.237   4.346   3.798  1.2854 -0.1212  0.5744
  102MOL    H7336635   4.055   4.350   3.847 -0.9185  0.8616 -1.5782
  102MOL    C7436636   4.386   4.732   4.278 -0.1595  0.8959  0.9157
  102MOL    C7536637   4.448   4.796   4.405  0.3014  0.2700 -0.2469
  102MOL    C7636638   4.390   4.939   4.424  0.3116 -0.1152 -0.5366
  102MOL    C7736639   4.437   5.035   4.308 -0.1788 -0.0792  0.0230
  102MOL    C7836640   4.587   5.075   4.311  0.0895 -0.9906 -0.2562
  102MOL    C7936641   4.622   5.179   4.202 -0.6543  0.0420  0.1684
  102MOL    H8036642   4.388   4.799   4.192  1.7212  1.2344  1.2055
  102MOL    H8136643   4.280   4.707   4.288 -0.6700  1.4566 -2.4896
  102MOL    H8236644   4.554   4.804   4.382  0.3251 -0.8601 -0.5542
  102MOL    H8336645   4.281   4.935   4.422  0.3228 -0.3243 -0.9145
  102MOL    H8436646   4.422   4.979   4.519 -1.5629 -0.8984  0.4569
  102MOL    H8536647   4.413   5.011   4.204  1.3907  2.2356 -0.9330
  102MOL    H8636648   4.376   5.125   4.321  1.2629  0.9149  0.0427
  102MOL    H8736649   4.643   4.984   4.289  0.0907 -0.5946 -1.9209
  102MOL    H8836650   4.619   5.098   4.413  0.5940 -2.8723  0.0373
  102MOL    H8936651   4.602   5.139   4.103  1.5806 -0.2094 -0.2146
  102MOL    H9036652   4.560   5.267   4.220  1.5655  1.0040  3.7656
  102MOL    H9136653   4.727   5.205   4.219 -0.6267  0.1444 -0.1578
  102MOL    C9236654   4.426   4.710   4.537  0.1082  0.3118 -0.4493
  102MOL    C9336655   4.546   4.727   4.642  0.4279  0.1829  0.0874
  102MOL    C9436656   4.498   4.685   4.779  0.0744  0.0933  0.2994
  102MOL    C9536657   4.407   4.779   4.850 -0.2047 -0.9267 -0.1134
  102MOL    C9636658   4.389   4.734   4.994  0.9557 -0.4259 -0.3655
  102MOL    C9736659   4.294   4.831   5.070 -0.0884 -0.1156 -0.8695
  102MOL    H9836660   4.338   4.744   4.593 -0.8930 -1.0152 -1.2098
  102MOL    H9936661   4.405   4.604   4.523 -0.5976  0.4897 -0.7632
  102MOL   H10036662   4.585   4.828   4.650  1.0681  0.1699 -2.5592
  102MOL   H10136663   4.591   4.675   4.834  1.1728  1.8913 -1.1990
  102MOL   H10236664   4.458   4.583   4.771  1.1412 -0.3314  0.2899
  102MOL   H10336665   4.444   4.882   4.846 -1.2395 -0.5652 -0.4784
  102MOL   H10436666   4.309   4.780   4.803 -0.0713  1.7122 -0.4396
  102MOL   H10536667   4.350   4.632   5.000 -0.6653  0.1817 -0.2788
  102MOL   H10636668   4.484   4.735   5.047  0.8241 -0.5973 -0.1268
  102MOL   H10736669   4.186   4.820   5.054  0.1734 -1.2941 -1.9827
  102MOL   H10836670   4.308   4.811   5.176 -0.2689  3.1398 -0.1802
  102MOL   H10936671   4.332   4.932   5.065 -1.0659  0.3492  0.6454
  102MOL   C11036672   4.657   4.637   4.583  0.3183  0.4580  1.0034
  102MOL   C11136673   4.795   4.681   4.637  0.9535 -0.3502 -0.5206
  102MOL   C11236674   4.844   4.814   4.566 -0.6613 -0.1672 -0.2083
  102MOL   C11336675   4.948   4.900   4.647 -0.5272  0.5438 -0.3478
  102MOL   C11436676   4.990   5.027   4.581 -0.5741 -0.0907 -0.1151
  102MOL   C11536677   4.887   5.136   4.621  0.5051 -0.2083 -0.3672
  102MOL   H11636678   4.634   4.532   4.596 -1.0100  0.3660 -1.7848
  102MOL   H11736679   4.657   4.655   4.476 -2.0978  2.2068  1.2650
  102MOL   H11836680   4.789   4.708   4.742 -1.6995 -0.0471 -0.7215
  102MOL   H11936681   4.769   4.880   4.524 -1.5121 -0.1363  1.3271
  102MOL   H12036682   4.897   4.780   4.477 -0.0015 -1.3931  0.6250
  102MOL   H12136683   5.040   4.842   4.654 -0.4041  0.7765  0.0184
  102MOL   H12236684   4.904   4.915   4.746  2.5970  2.6261  0.8049
  102MOL   H12336685   4.999   5.019   4.473  0.0456  2.4953 -0.2740
  102MOL   H12436686   5.084   5.067   4.618  0.2385  0.5905 -2.8637
  102MOL   H12536687   4.887   5.158   4.727  1.4505 -0.3908 -0.3212
  102MOL   H12636688   4.908   5.232   4.575  1.5303 -0.6273 -0.8040
  102MOL   H12736689   4.789   5.098   4.591  0.5515 -0.9668  0.4152
  102MOL   C12836690   4.894   4.560   4.619 -0.2065 -0.5358 -0.1743
  102MOL   C12936691   4.871   4.441   4.716 -0.8181  0.6102  0.0347
  102MOL   C13036692   5.004   4.416   4.799 -0.6759 -0.0671  0.2363
  102MOL   C13136693   5.047   4.524   4.898 -0.4007 -0.4492  1.0210
  102MOL   C13236694   5.174   4.487   4.979 -0.7921  0.4883 -0.3006
  102MOL   C13336695   5.196   4.588   5.091  0.6661  0.0939  0.1762
  102MOL   H13436696   4.996   4.599   4.628  1.2504 -4.4107  1.2751
  102MOL   H13536697   4.898   4.520   4.518  0.2900  0.7791 -0.6931
  102MOL   H13636698   4.802   4.476   4.792 -0.8076  0.6797  0.0117
  102MOL   H13736699   4.999   4.327   4.861 -1.7819 -0.0963  0.1026
  102MOL   H13836700   5.085   4.402   4.727 -0.1992  0.8955  0.5666
  102MOL   H13936701   4.957   4.542   4.957 -1.1474 -1.4216  0.1977
  102MOL   H14036702   5.057   4.615   4.839 -1.2082 -1.0149  0.0026
  102MOL   H14136703   5.168   4.397   5.040 -0.3135  0.4464 -0.3120
  102MOL   H14236704   5.268   4.483   4.924 -1.3502  1.2059 -1.3091
  102MOL   H14336705   5.123   4.576   5.172  0.1891  3.6680  0.3626
  102MOL   H14436706   5.186   4.691   5.057 -1.0336 -0.2893 -0.5098
  102MOL   H14536707   5.295   4.582   5.137  1.3332  0.6851 -1.1616
  102MOL   C14636708   4.826   4.312   4.636  0.2596 -0.1182 -0.2921
  102MOL   C14736709   4.791   4.193   4.724  0.1210  0.3655  0.6992
  102MOL   C14836710   4.758   4.073   4.633  0.2415  0.3121 -0.7120
  102MOL   C14936711   4.865   4.022   4.543 -0.9140 -0.2684  0.1451
  102MOL   C15036712   4.999   3.983   4.625 -0.1672  0.5602  0.6628
  102MOL   C15136713   5.095   3.882   4.550  0.6375  0.0808  0.7711
  102MOL   H15236714   4.737   4.329   4.575 -0.3241  0.0756  0.6102
  102MOL   H15336715   4.907   4.274   4.573  0.3307  0.8227 -0.7740
  102MOL   H15436716   4.872   4.163   4.790  0.9901 -0.4531 -0.7235
  102MOL   H15536717   4.681   4.108   4.563  0.6048  0.7050 -0.9233
  102MOL   H15636718   4.731   3.989   4.696  2.5911  1.4620  1.9726
  102MOL   H15736719   4.836   3.926   4.501 -0.3305  0.9584 -3.2543
  102MOL   H15836720   4.887   4.082   4.455  0.3557 -1.8836 -0.6579
  102MOL   H15936721   4.977   3.929   4.718  2.8030 -0.4623  0.8497
  102MOL   H16036722   5.052   4.075   4.652  0.5800 -0.6220  3.4462
  102MOL   H16136723   5.126   3.929   4.457 -1.3436 -1.6209 -0.8166
  102MOL   H16236724   5.185   3.849   4.602  0.6598 -1.3498 -0.1369
  102MOL   H16336725   5.045   3.788   4.525  1.4316 -0.2079  0.2517
  102MOL   C16436726   4.665   4.222   4.807 -0.4109 -0.0886 -0.3092
  102MOL   C16536727   4.665   4.155   4.945 -0.2919  0.1992 -0.2001
  102MOL   C16636728   4.775   4.197   5.044 -0.1674  0.4196  0.4864
  102MOL   C16736729   4.762   4.342   5.100 -0.3792  0.4518 -0.0496
  102MOL   C16836730   4.883   4.370   5.205  0.4520 -0.5726 -1.2541
  102MOL   C16936731   4.849   4.309   5.343 -0.1185  0.0787 -0.3213
  102MOL   H17036732   4.653   4.327   4.832  0.2515 -0.5573  2.1261
  102MOL   H17136733   4.580   4.197   4.744  0.4840 -2.6101 -0.5859
  102MOL   H17236734   4.689   4.050   4.931 -0.1745  0.1873  0.0859
  102MOL   H17336735   4.868   4.180   4.990 -1.0786 -1.9165 -0.4175
  102MOL   H17436736   4.779   4.133   5.132 -0.1481  1.7045  1.4243
  102MOL   H17536737   4.672   4.368   5.155 -1.0491 -0.8578 -0.5069
  102MOL   H17636738   4.762   4.407   5.013  0.9517 -3.3231 -3.0210
  102MOL   H17736739   4.894   4.478   5.215 -1.4830 -0.6881  2.9920
  102MOL   H17836740   4.975   4.332   5.160  1.0705  0.1897 -0.6616
  102MOL   H17936741   4.746   4.334   5.370  0.1166  0.1567  0.4846
  102MOL   H18036742   4.927   4.345   5.410 -0.5275  3.7718 -1.6960
  102MOL   H18136743   4.863   4.201   5.348 -0.6980  0.1205  3.4540
  102MOL   C18236744   4.519   4.159   5.000 -0.5804  0.3775 -0.3558
  102MOL   C18336745   4.450   4.021   5.001 -0.3563 -0.1665  0.2266
  102MOL   C18436746   4.523   3.910   5.083 -0.3645  0.1767 -0.2331
  102MOL   C18536747   4.552   3.949   5.227  0.3073 -0.0263  0.4414
  102MOL   C18636748   4.627   3.840   5.306 -0.1763  0.0700  0.2448
  102MOL   C18736749   4.614   3.868   5.457 -0.2136  0.5729  0.2343
  102MOL   H18836750   4.522   4.190   5.105  3.0403  1.1309 -0.6096
  102MOL   H18936751   4.464   4.241   4.954 -0.9049  0.3084 -0.0893
  102MOL   H19036752   4.360   4.053   5.054  0.8476  0.1730  2.0986
  102MOL   H19136753   4.474   3.812   5.082  0.7884 -0.4663  2.3567
  102MOL   H19236754   4.612   3.888   5.024 -0.2204  1.1667 -0.3870
  102MOL   H19336755   4.451   3.946   5.269 -0.3127  1.0504 -0.9382
  102MOL   H19436756   4.609   4.042   5.233 -1.4448  1.3903 -3.1565
  102MOL   H19536757   4.734   3.843   5.283 -0.0892  0.2162  0.6547
  102MOL   H19636758   4.587   3.742   5.278 -2.2762  1.9079 -3.4875
  102MOL   H19736759   4.661   3.966   5.469 -2.1895  1.5156  0.4491
  102MOL   H19836760   4.661   3.794   5.521  0.1970  1.7579  1.3290
  102MOL   H19936761   4.513   3.887   5.492 -0.3503  0.4406 -0.0841
  102MOL   C20036762   4.402   3.970   4.865 -0.0078 -0.1638 -0.1692
  102MOL   C20136763   4.288   3.864   4.857 -0.3184  0.0787 -0.2940
  102MOL   C20236764   4.151   3.901   4.919  0.1822 -0.1122 -0.2316
  102MOL   C20336765   4.125   3.886   5.070  0.3887 -0.3142 -0.2857
  102MOL   C20436766   3.991   3.943   5.118 -0.4076  0.0945 -0.4983
  102MOL   C20536767   3.978   3.938   5.267  0.4446  0.0023 -0.0246
  102MOL   H20636768   4.496   3.924   4.834 -0.2959 -0.9043  0.0515
  102MOL   H20736769   4.374   4.050   4.797  1.3718  0.0629 -0.4770
  102MOL   H20836770   4.332   3.780   4.911  1.9788  0.8785 -0.8813
  102MOL   H20936771   4.076   3.842   4.867 -0.3412 -0.1110  0.5069
  102MOL   H21036772   4.134   4.002   4.882 -0.1444  0.1696  0.6686
  102MOL   H21136773   4.204   3.923   5.134 -1.0693 -2.8460  3.1600
  102MOL   H21236774   4.115   3.779   5.090  2.3741 -0.8918 -2.1484
  102MOL   H21336775   3.914   3.888   5.064 -1.1223 -0.1331  0.7451
  102MOL   H21436776   3.977   4.043   5.077  0.5969  0.1920 -0.6321
  102MOL   H21536777   3.875   3.926   5.303  0.5340  0.0526  0.2556
  102MOL   H21636778   4.035   3.856   5.310 -2.4320 -0.4450  3.1396
  102MOL   H21736779   4.014   4.030   5.314  2.1664 -0.3644 -0.6189
  102MOL   C21836780   4.271   3.812   4.715 -0.2619 -0.1634 -0.2613
  102MOL   C21936781   4.392   3.743   4.646  0.2632 -0.7869 -0.2594
  102MOL   C22036782   4.379   3.714   4.493  0.2104 -0.9305  0.0323
  102MOL   C22136783   4.373   3.839   4.411  0.6071 -0.9210 -0.2748
  102MOL   C22236784   4.377   3.802   4.262 -0.0202 -0.1327  0.1021
  102MOL   C22336785   4.492   3.701   4.217  0.0930 -1.0799 -0.4709
  102MOL   H22436786   4.191   3.737   4.719  0.3609 -0.7536  1.5287
  102MOL   H22536787   4.214   3.877   4.648  1.0435  0.0453 -1.1936
  102MOL   H22636788   4.475   3.814   4.647  0.9801 -1.6240  0.2247
  102MOL   H22736789   4.290   3.653   4.477 -0.1775 -0.3623 -0.0251
  102MOL   H22836790   4.451   3.636   4.471 -0.4776 -1.4284 -0.4743
  102MOL   H22936791   4.471   3.883   4.429 -0.6465  2.8250 -2.0562
  102MOL   H23036792   4.287   3.904   4.428 -1.8579 -3.9456 -0.7088
  102MOL   H23136793   4.282   3.759   4.229  0.6844 -1.2310 -0.5341
  102MOL   H23236794   4.397   3.892   4.205 -0.3992 -0.8834 -1.2502
  102MOL   H23336795   4.493   3.610   4.276  0.1693 -0.6735  0.1607
  102MOL   H23436796   4.583   3.760   4.225  0.6852 -1.4763 -3.5321
  102MOL   H23536797   4.489   3.687   4.109 -0.6563  1.2626 -0.8013
  102MOL   C23636798   4.431   3.611   4.725  0.4784 -0.4793  0.1246
  102MOL   C23736799   4.574   3.597   4.765  0.2303  0.0247 -0.3077
  102MOL   C23836800   4.670   3.599   4.648  0.4238  0.4493  0.0050
  102MOL   C23936801   4.687   3.464   4.569 -0.0412 -0.6319 -0.1343
  102MOL   C24036802   4.751   3.476   4.428 -0.2493 -0.2989  0.2107
  102MOL   C24136803   4.757   3.337   4.350  0.3951 -0.1452 -0.3896
  102MOL   H24236804   4.374   3.589   4.816  0.9398 -0.0619  0.5191
  102MOL   H24336805   4.400   3.524   4.666  0.4858 -0.6476  0.3677
  102MOL   H24436806   4.593   3.690   4.820  1.6578  0.0320 -0.7903
  102MOL   H24536807   4.633   3.668   4.572  1.1648  0.1169 -0.6666
  102MOL   H24636808   4.770   3.632   4.678  0.3395 -0.9327  1.8604
  102MOL   H24736809   4.596   3.404   4.561 -1.2067  1.1102 -0.0995
  102MOL   H24836810   4.747   3.398   4.632 -0.4328 -2.4598 -1.6413
  102MOL   H24936811   4.708   3.556   4.369 -0.0943 -0.1428  0.3086
  102MOL   H25036812   4.853   3.513   4.442 -0.5514  0.4776  0.3999
  102MOL   H25136813   4.801   3.260   4.413  0.7817  0.0154 -0.4632
  102MOL   H25236814   4.652   3.310   4.339 -0.0591 -0.2770  3.4865
  102MOL   H25336815   4.822   3.360   4.265  0.0274  1.3556 -0.2817
  102MOL   C25436816   4.603   3.473   4.859  0.2938  0.3201 -0.1136
  102MOL   C25536817   4.535   3.473   5.006 -0.1383  0.6136 -0.1890
  102MOL   C25636818   4.632   3.419   5.120  0.7808 -0.2621  0.4718
  102MOL   C25736819   4.749   3.513   5.153 -0.3078 -0.3914  0.4579
  102MOL   C25836820   4.807   3.481   5.290  0.4374  0.4531 -0.7191
  102MOL   C25936821   4.925   3.571   5.345  0.0315  0.7252  0.0253
  102MOL   H26036822   4.711   3.470   4.871  0.1678 -0.6469  0.7946
  102MOL   H26136823   4.568   3.381   4.813  0.4146 -1.3136  2.9358
  102MOL   H26236824   4.523   3.578   5.032  3.3664  1.0799 -0.1400
  102MOL   H26336825   4.578   3.400   5.213  0.9029 -0.9667  0.3968
  102MOL   H26436826   4.674   3.325   5.085 -0.0045 -0.9383  1.3326
  102MOL   H26536827   4.834   3.501   5.086  1.6139  1.6743  2.4014
  102MOL   H26636828   4.714   3.616   5.152 -1.5279 -0.7571  2.2950
  102MOL   H26736829   4.853   3.382   5.291 -0.3393  0.0763 -1.4673
  102MOL   H26836830   4.728   3.481   5.366  1.5779  0.5601  0.4833
  102MOL   H26936831   5.011   3.548   5.281  0.3870 -0.1188  0.7962
  102MOL   H27036832   4.945   3.558   5.451  0.8205  0.6246 -0.1338
  102MOL   H27136833   4.915   3.679   5.332  0.8795  0.8412  0.2774
  102MOL   C27236834   4.394   3.401   5.026 -0.2092 -0.2999 -0.0067
  102MOL   C27336835   4.289   3.485   5.105  0.1061  0.0501  0.2742
  102MOL   C27436836   4.339   3.528   5.241 -0.1483  0.2134  0.2315
  102MOL   C27536837   4.262   3.634   5.310 -0.2582 -0.1753  0.2004
  102MOL   C27636838   4.306   3.646   5.459 -0.0901 -0.2414  0.1981
  102MOL   C27736839   4.194   3.719   5.536  0.1544  0.3559 -0.1336
  102MOL   H27836840   4.349   3.385   4.928  0.6587  1.3174 -0.7027
  102MOL   H27936841   4.412   3.308   5.080  0.2266 -0.4096 -0.3414
  102MOL   H28036842   4.262   3.571   5.044  0.2184 -1.7118 -2.3321
  102MOL   H28136843   4.436   3.574   5.222 -0.7517  0.3110 -2.9201
  102MOL   H28236844   4.355   3.444   5.309  2.5730 -0.1008 -0.7223
  102MOL   H28336845   4.155   3.610   5.312 -0.3619  0.2719  0.1800
  102MOL   H28436846   4.281   3.728   5.258  2.5899 -1.1188 -0.5176
  102MOL   H28536847   4.321   3.554   5.517  2.4631  0.4300  0.6853
  102MOL   H28636848   4.406   3.689   5.468  0.7364 -1.3612 -2.9979
  102MOL   H28736849   4.102   3.660   5.538 -1.5283  2.9198  2.0901
  102MOL   H28836850   4.214   3.747   5.639  3.6772 -0.5503 -0.5201
  102MOL   H28936851   4.170   3.808   5.477 -0.0787  0.3005 -0.1209
  102MOL   C29036852   4.162   3.400   5.126  0.1329  0.2959  0.1165
  102MOL   C29136853   4.090   3.358   5.001 -0.3156  0.5992  0.2379
  102MOL   C29236854   3.971   3.273   5.047 -0.2589 -0.0651  0.5075
  102MOL   C29336855   3.996   3.167   5.161  0.2419 -0.8879 -0.2584
  102MOL   C29436856   4.104   3.065   5.124 -0.1452  0.1721 -0.0707
  102MOL   C29536857   4.102   2.946   5.217 -0.9147 -0.7355 -0.2678
  102MOL   H29636858   4.095   3.455   5.192 -2.2682 -0.3541 -1.7127
  102MOL   H29736859   4.198   3.310   5.175 -0.4115 -0.8474 -1.5484
  102MOL   H29836860   4.153   3.288   4.946 -1.1851 -0.0347  0.0351
  102MOL   H29936861   3.926   3.228   4.958 -0.0699  1.1958 -0.2339
  102MOL   H30036862   3.896   3.340   5.090  0.6640  0.6822  0.9533
  102MOL   H30136863   4.001   3.199   5.265  0.7182 -0.1204 -0.5054
  102MOL   H30236864   3.905   3.108   5.149 -0.6801  0.4509  0.0701
  102MOL   H30336865   4.205   3.106   5.125 -0.9615  2.2426  2.0217
  102MOL   H30436866   4.085   3.040   5.019  2.4793 -1.6091 -0.1762
  102MOL   H30536867   4.187   2.880   5.200  1.4246  2.5232 -1.6993
  102MOL   H30636868   4.006   2.896   5.223 -1.7987  0.8782 -0.7090
  102MOL   H30736869   4.111   2.984   5.319 -1.6027 -1.5552  0.1015
  102MOL   C30836870   4.039   3.481   4.909  0.3791  0.5201  0.1657
  102MOL   C30936871   3.946   3.438   4.789 -0.2626  0.1192 -0.1829
  102MOL   C31036872   4.019   3.347   4.687  0.3179  0.3418 -0.2449
  102MOL   C31136873   4.157   3.387   4.638  0.6326  0.2610  0.2921
  102MOL   C31236874   4.188   3.298   4.517  0.3180  0.2621 -0.0681
  102MOL   C31336875   4.327   3.327   4.461  0.8497 -0.5296  0.6892
  102MOL   H31436876   3.977   3.551   4.964 -0.9887 -0.1731 -0.4681
  102MOL   H31536877   4.126   3.541   4.884 -0.8731  3.5573  2.6925
  102MOL   H31636878   3.859   3.380   4.819  0.2672 -1.7892 -2.2565
  102MOL   H31736879   3.952   3.343   4.602  0.2412 -2.6063 -0.0766
  102MOL   H31836880   4.014   3.249   4.734 -1.8702  0.3680 -0.3786
  102MOL   H31936881   4.231   3.372   4.717  1.7064 -2.4248 -1.1759
  102MOL   H32036882   4.168   3.492   4.612  2.2881 -0.0437 -0.3020
  102MOL   H32136883   4.193   3.197   4.558 -0.0714  0.3906  0.3019
  102MOL   H32236884   4.109   3.317   4.445  1.1084  0.5629 -0.8564
  102MOL   H32336885   4.353   3.252   4.386  1.2326 -1.1466  1.4240
  102MOL   H32436886   4.402   3.309   4.538  1.2170 -2.8561 -0.1761
  102MOL   H32536887   4.342   3.431   4.431 -2.0836  1.0649  4.4637
  102MOL   C32636888   3.902   3.564   4.713 -0.0019 -0.2869  0.3016
  102MOL   C32736889   3.830   3.683   4.797 -0.3641  1.0395  0.1693
  102MOL   C32836890   3.792   3.795   4.695  0.7299  0.4813  0.0895
  102MOL   C32936891   3.802   3.934   4.755 -0.5386  0.5584 -0.3672
  102MOL   C33036892   3.730   4.049   4.676  0.1660  0.7657 -0.1548
  102MOL   C33136893   3.767   4.064   4.527 -0.1575 -0.1676 -0.1633
  102MOL   H33236894   3.832   3.539   4.633 -0.8206  0.5089  0.7687
  102MOL   H33336895   3.989   3.619   4.678  0.1673 -0.2003  0.8534
  102MOL   H33436896   3.900   3.726   4.869 -1.0302 -0.1161  1.5445
  102MOL   H33536897   3.851   3.796   4.603  0.6126 -0.1602  0.0057
  102MOL   H33636898   3.695   3.769   4.651  1.8323 -2.0853 -0.9270
  102MOL   H33736899   3.907   3.961   4.764 -0.4776  0.2179 -0.0537
  102MOL   H33836900   3.766   3.940   4.858  0.0841 -1.5046  0.0026
  102MOL   H33936901   3.623   4.036   4.695  0.4280  1.6575  2.1452
  102MOL   H34036902   3.758   4.141   4.726  0.4931  1.5439 -1.7276
  102MOL   H34136903   3.726   3.976   4.476 -0.7700 -1.0921  1.8543
  102MOL   H34236904   3.876   4.067   4.521 -0.1833  2.9652  0.4721
  102MOL   H34336905   3.732   4.157   4.483 -0.5330 -0.9799 -1.6344
  102MOL   C34436906   3.716   3.630   4.883  0.2244 -0.1455  0.8881
  102MOL   C34536907   3.606   3.549   4.817 -0.0919 -0.5950 -0.1876
  102MOL   C34636908   3.489   3.526   4.919 -0.4773 -0.1502 -0.0431
  102MOL   C34736909   3.509   3.391   4.995  0.0402  0.1592  0.0965
  102MOL   C34836910   3.411   3.379   5.113  0.0464  0.2925 -0.5251
  102MOL   C34936911   3.409   3.234   5.170  0.0391 -0.3619  0.1624
  102MOL   H35036912   3.762   3.567   4.959  0.0474 -0.5370  0.6706
  102MOL   H35136913   3.679   3.712   4.944  1.2470  0.5302  0.6241
  102MOL   H35236914   3.640   3.451   4.782  0.7079  0.3271 -2.0650
  102MOL   H35336915   3.500   3.608   4.990  1.8701 -1.4469  1.1634
  102MOL   H35436916   3.392   3.533   4.870 -0.1297  0.7824 -0.6184
  102MOL   H35536917   3.477   3.315   4.923 -3.1499  2.4025 -0.9465
  102MOL   H35636918   3.611   3.374   5.028  0.8556  2.2166 -1.2459
  102MOL   H35736919   3.433   3.453   5.190  0.1801  2.2221 -2.3471
  102MOL   H35836920   3.310   3.408   5.085 -1.1462 -2.3782  0.9420
  102MOL   H35936921   3.407   3.239   5.279  0.6507  1.7720  0.0913
  102MOL   H36036922   3.325   3.181   5.124 -0.1312  0.3673 -0.3639
  102MOL   H36136923   3.497   3.178   5.138  0.1440 -1.5357  2.4145
  102MOL   H36236924   3.580   3.602   4.726  1.7514  0.9528  0.1692
  103MOL     C136925   2.510   3.456   1.138 -0.2736  0.1208 -0.0303
  103MOL     C236926   2.555   3.598   1.143  0.4056 -0.3024 -0.6972
  103MOL     C336927   2.657   3.624   1.021  0.1055  0.5649  0.3321
  103MOL     C436928   2.800   3.578   1.050  0.0592 -0.2766 -0.4755
  103MOL     C536929   2.882   3.577   0.923 -0.8808 -0.5125 -0.1309
  103MOL     C636930   3.007   3.495   0.939 -0.2178  0.5798  0.6549
  103MOL     H736931   2.584   3.385   1.175 -1.4627 -1.2763 -0.2917
  103MOL     H836932   2.411   3.443   1.182 -0.1540 -0.1059  0.1701
  103MOL     H936933   2.465   3.656   1.122  0.1851 -0.3154  0.1900
  103MOL    H1036934   2.661   3.732   1.003 -1.2166  0.7880  1.2428
  103MOL    H1136935   2.613   3.580   0.932 -0.3279  2.6337 -0.5076
  103MOL    H1236936   2.797   3.481   1.099  0.6830 -0.2595 -0.4071
  103MOL    H1336937   2.853   3.632   1.127  0.3123 -0.4828 -0.5056
  103MOL    H1436938   2.826   3.532   0.842 -0.1903 -3.9180  1.2208
  103MOL    H1536939   2.907   3.677   0.884 -0.2028  0.0330  1.6450
  103MOL    H1636940   3.043   3.502   1.042  0.9574 -0.2038  0.3109
  103MOL    H1736941   3.077   3.529   0.863 -1.1191  1.5387  0.2492
  103MOL    H1836942   2.961   3.400   0.914  0.9164  0.3456 -0.6063
  103MOL    H1936943   2.503   3.427   1.033 -1.0505 -1.8132  0.5541
  103MOL    C2036944   2.599   3.653   1.284 -1.2560 -0.3894  0.0817
  103MOL    C2136945   2.647   3.799   1.296 -0.3875 -0.0718 -0.2895
  103MOL    C2236946   2.538   3.895   1.251 -0.3030  0.3218  0.8853
  103MOL    C2336947   2.403   3.884   1.328 -1.2610 -0.3094  0.7597
  103MOL    C2436948   2.300   3.980   1.274  0.7669 -0.2578 -0.6123
  103MOL    C2536949   2.226   3.943   1.140  0.1473 -0.1709 -0.9010
  103MOL    H2636950   2.680   3.586   1.314  0.6379  1.9827  0.3937
  103MOL    H2736951   2.521   3.630   1.356 -2.9532  1.4126 -1.1278
  103MOL    H2836952   2.721   3.817   1.218 -0.2073  0.5716  0.0210
  103MOL    H2936953   2.542   3.890   1.142  1.9228 -2.4344  1.0391
  103MOL    H3036954   2.583   3.991   1.274 -0.4246  1.1850 -2.2232
  103MOL    H3136955   2.423   3.911   1.432  0.6888 -0.7893  0.5309
  103MOL    H3236956   2.359   3.785   1.318 -0.9472 -0.6552  2.5793
  103MOL    H3336957   2.231   3.997   1.357 -1.3189 -0.2602 -2.2927
  103MOL    H3436958   2.348   4.077   1.262  0.9061 -0.3406 -0.7278
  103MOL    H3536959   2.162   3.856   1.149 -0.5835  0.5582  1.3639
  103MOL    H3636960   2.155   4.025   1.126 -2.6910 -2.3249  0.3278
  103MOL    H3736961   2.292   3.939   1.053 -0.5233 -1.1390 -1.3713
  103MOL    C3836962   2.691   3.825   1.442 -0.6263 -0.0461  0.0952
  103MOL    C3936963   2.838   3.786   1.472 -0.0412  0.5546  0.4258
  103MOL    C4036964   2.948   3.857   1.381  0.5143  0.2118  0.3456
  103MOL    C4136965   3.086   3.798   1.376  0.4229  0.1334 -0.1055
  103MOL    C4236966   3.189   3.868   1.285 -0.2670 -0.0590 -0.2693
  103MOL    C4336967   3.323   3.795   1.264  0.6766 -0.2509  0.4001
  103MOL    H4436968   2.625   3.791   1.522  0.0757  0.9097  1.0981
  103MOL    H4536969   2.683   3.932   1.464 -1.6302  0.0633 -0.7799
  103MOL    H4636970   2.845   3.678   1.455 -0.6459  0.1244  2.7379
  103MOL    H4736971   2.912   3.857   1.278 -0.0285  0.7516  0.5327
  103MOL    H4836972   2.947   3.959   1.419  0.6792  0.3431 -0.0101
  103MOL    H4936973   3.130   3.785   1.475 -0.2397  1.3621  0.3549
  103MOL    H5036974   3.083   3.698   1.334 -2.9352 -0.4695  1.4375
  103MOL    H5136975   3.148   3.882   1.185  2.4279  4.3388 -0.8760
  103MOL    H5236976   3.216   3.966   1.323 -0.9041 -0.0244  0.1038
  103MOL    H5336977   3.375   3.839   1.178  0.4047 -1.7114 -0.5199
  103MOL    H5436978   3.296   3.695   1.230 -0.4501 -0.3475  1.5405
  103MOL    H5536979   3.384   3.779   1.352 -1.0077  1.4519  1.9353
  103MOL    C5636980   2.863   3.803   1.629  0.0988 -0.0217 -0.8111
  103MOL    C5736981   2.797   3.693   1.713 -0.2733  0.3704  0.7342
  103MOL    C5836982   2.750   3.743   1.857  0.2202  0.6375  0.5210
  103MOL    C5936983   2.872   3.785   1.952  0.4592 -0.4312 -0.7752
  103MOL    C6036984   2.828   3.886   2.067  0.8059  0.7831 -0.6465
  103MOL    C6136985   2.953   3.926   2.150 -0.0925  1.1104 -0.4744
  103MOL    H6236986   2.971   3.800   1.648  0.1709  1.0622 -1.0182
  103MOL    H6336987   2.833   3.905   1.656 -0.0956  0.3896 -2.5468
  103MOL    H6436988   2.696   3.680   1.673  0.2836 -1.3193 -0.1638
  103MOL    H6536989   2.686   3.831   1.845 -0.2719  0.1430 -0.6409
  103MOL    H6636990   2.697   3.666   1.913  0.8467  1.1200  1.7921
  103MOL    H6736991   2.952   3.830   1.894  1.3129 -2.2363 -1.0412
  103MOL    H6836992   2.930   3.699   1.987  0.8330 -0.2260 -0.8967
  103MOL    H6936993   2.796   3.977   2.015  0.3103  0.6483 -0.5745
  103MOL    H7036994   2.751   3.848   2.133  0.1817  2.4049 -0.4052
  103MOL    H7136995   3.017   4.010   2.124  0.2330  0.8113 -0.6363
  103MOL    H7236996   2.923   3.942   2.254  2.8844  0.6360  0.5159
  103MOL    H7336997   3.015   3.838   2.168  0.0956  1.5585  1.1700
  103MOL    C7436998   2.885   3.561   1.715  0.5989 -0.2201 -0.2831
  103MOL    C7536999   2.802   3.434   1.755  0.5235 -0.4678 -0.6671
  103MOL    C7637000   2.702   3.402   1.646 -0.1520  0.6108 -0.6030
  103MOL    C7737001   2.551   3.386   1.683  0.7268  0.3407  0.1034
  103MOL    C7837002   2.462   3.370   1.570  0.0724  0.3491  0.4926
  103MOL    C7937003   2.331   3.309   1.611 -0.1244 -0.5104 -0.8931
  103MOL    H8037004   2.935   3.551   1.619  0.6172  0.8767 -0.4001
  103MOL    H8137005   2.973   3.589   1.772 -0.5492  0.6114  1.1311
  103MOL    H8237006   2.739   3.464   1.839 -0.2622 -2.4272 -0.5329
  103MOL    H8337007   2.706   3.466   1.558 -0.5362 -1.9146 -2.5237
  103MOL    H8437008   2.734   3.306   1.606 -0.5598 -0.4657  1.5561
  103MOL    H8537009   2.540   3.300   1.749 -0.6224  0.4850  0.0675
  103MOL    H8637010   2.515   3.469   1.745  0.7024 -0.4007  1.0946
  103MOL    H8737011   2.501   3.294   1.502  0.0128 -0.0591  0.9177
  103MOL    H8837012   2.447   3.464   1.517 -0.9645 -0.2315 -0.2714
  103MOL    H8937013   2.346   3.216   1.667 -3.0619 -0.0838  0.7095
  103MOL    H9037014   2.284   3.369   1.688  2.3347 -0.8052  0.8961
  103MOL    H9137015   2.257   3.308   1.531  0.2352  1.5906 -1.2752
  103MOL    C9237016   2.897   3.318   1.792  0.4578 -0.4882  0.1242
  103MOL    C9337017   2.981   3.333   1.923 -0.2280  0.4698  0.6739
  103MOL    C9437018   2.902   3.352   2.056 -0.0605 -0.0677 -0.2372
  103MOL    C9537019   2.795   3.248   2.083  0.0871 -0.1032 -0.4039
  103MOL    C9637020   2.726   3.274   2.217  0.3713 -0.3071  0.5538
  103MOL    C9737021   2.821   3.242   2.326 -0.5596  0.3249 -0.5579
  103MOL    H9837022   2.846   3.222   1.804  1.4582 -0.8399  1.7619
  103MOL    H9937023   2.952   3.300   1.699 -0.0193  0.8052 -0.4218
  103MOL   H10037024   3.047   3.416   1.898 -1.7511  1.4080 -0.2966
  103MOL   H10137025   2.858   3.452   2.066  0.1789 -0.1971  2.7075
  103MOL   H10237026   2.966   3.348   2.144  1.1275  0.5164 -1.0661
  103MOL   H10337027   2.722   3.254   2.002  0.7090  0.7444 -0.9049
  103MOL   H10437028   2.836   3.147   2.085  0.3431  0.0031 -0.3437
  103MOL   H10537029   2.695   3.378   2.221 -0.8044 -0.5673 -1.0994
  103MOL   H10637030   2.635   3.216   2.231 -1.2064  1.9324 -0.1677
  103MOL   H10737031   2.877   3.334   2.344 -3.2002  1.7269  0.8862
  103MOL   H10837032   2.775   3.222   2.423 -0.0257  2.9295  0.2856
  103MOL   H10937033   2.885   3.159   2.296 -1.8140  0.1460 -2.8487
  103MOL   C11037034   3.071   3.209   1.937  0.1367 -0.6327 -0.1757
  103MOL   C11137035   3.218   3.244   1.958 -0.3434  0.0282  0.0329
  103MOL   C11237036   3.247   3.322   2.086 -0.9974  0.8657  0.5140
  103MOL   C11337037   3.220   3.230   2.206  0.1056 -0.2998  0.0484
  103MOL   C11437038   3.253   3.289   2.344 -0.9306 -0.6783 -0.6897
  103MOL   C11537039   3.320   3.191   2.444  1.0577 -0.3007  0.1263
  103MOL   H11637040   3.036   3.137   2.010 -0.1537 -1.0897 -0.7635
  103MOL   H11737041   3.068   3.169   1.836 -0.3304 -0.7162 -0.1320
  103MOL   H11837042   3.266   3.147   1.971 -1.0309 -0.5842 -1.8792
  103MOL   H11937043   3.192   3.415   2.094 -2.6309 -0.0461  0.0220
  103MOL   H12037044   3.351   3.351   2.100 -0.8075  2.5421 -3.6288
  103MOL   H12137045   3.293   3.149   2.201 -0.0497 -0.3525 -1.7589
  103MOL   H12237046   3.121   3.184   2.203  0.1609 -0.3628 -1.2117
  103MOL   H12337047   3.161   3.307   2.400  0.4716  1.5104  1.0290
  103MOL   H12437048   3.290   3.391   2.332 -5.3086  0.9208 -1.4761
  103MOL   H12537049   3.370   3.243   2.526  1.8681  0.5490 -0.8879
  103MOL   H12637050   3.250   3.111   2.465  0.2564  0.8780  2.1876
  103MOL   H12737051   3.410   3.148   2.399  0.3494 -0.8049 -0.7990
  103MOL   C12837052   3.283   3.295   1.829  1.0588  0.3767 -1.1736
  103MOL   C12937053   3.436   3.293   1.818 -0.0541 -0.6734  0.6532
  103MOL   C13037054   3.496   3.365   1.691 -0.0305 -0.6470 -0.2265
  103MOL   C13137055   3.422   3.498   1.666  0.5011  0.1641 -0.3976
  103MOL   C13237056   3.505   3.580   1.571  0.0897 -0.0592  0.0094
  103MOL   C13337057   3.524   3.527   1.425  0.5155  0.0336 -0.0749
  103MOL   H13437058   3.233   3.388   1.801 -2.0849 -1.2731 -1.1997
  103MOL   H13537059   3.252   3.221   1.756 -1.3886 -0.0597  0.2549
  103MOL   H13637060   3.477   3.347   1.903  1.5638  0.1161 -0.5872
  103MOL   H13737061   3.604   3.373   1.699  0.1219 -0.9811 -1.8068
  103MOL   H13837062   3.501   3.304   1.600  2.3478 -1.8345  0.6658
  103MOL   H13937063   3.409   3.563   1.753  3.0109 -0.8320  0.7618
  103MOL   H14037064   3.328   3.478   1.615 -0.5392  1.2391  1.0851
  103MOL   H14137065   3.448   3.671   1.550  2.5766  0.7671 -3.6540
  103MOL   H14237066   3.602   3.601   1.616  1.7340 -2.2508 -2.4179
  103MOL   H14337067   3.428   3.510   1.377  0.5774  2.5517 -1.1869
  103MOL   H14437068   3.583   3.436   1.430 -1.0492 -1.0553 -0.9344
  103MOL   H14537069   3.580   3.594   1.360 -1.3517  2.2168  0.4754
  103MOL   C14637070   3.521   3.159   1.834  0.3662  0.4479  0.1105
  103MOL   C14737071   3.661   3.174   1.891  0.3391  0.0115 -0.1505
  103MOL   C14837072   3.737   3.051   1.873  0.2786  0.3940  0.5813
  103MOL   C14937073   3.667   2.917   1.914 -0.5316 -0.0131  0.1899
  103MOL   C15037074   3.755   2.797   1.881  0.8827 -0.6390  1.2493
  103MOL   C15137075   3.689   2.667   1.918 -0.2122 -0.0955  0.1001
  103MOL   H15237076   3.465   3.096   1.903 -1.4010  2.2122  0.3198
  103MOL   H15337077   3.523   3.103   1.740 -1.0281  1.3182 -0.4485
  103MOL   H15437078   3.711   3.234   1.815 -0.2638 -0.5960 -1.0426
  103MOL   H15537079   3.824   3.046   1.939 -0.0875 -2.5847  0.9202
  103MOL   H15637080   3.765   3.049   1.768  2.4042  1.9478  1.0616
  103MOL   H15737081   3.640   2.929   2.019 -1.4722 -1.3414  0.1206
  103MOL   H15837082   3.575   2.919   1.855 -1.0957 -1.9796  0.9506
  103MOL   H15937083   3.843   2.818   1.942  0.4386  1.8661  1.1080
  103MOL   H16037084   3.794   2.799   1.779  0.0480 -0.1972  0.9312
  103MOL   H16137085   3.749   2.577   1.909 -0.0543  0.0745 -0.6059
  103MOL   H16237086   3.656   2.668   2.021 -0.5277 -1.3814  0.0200
  103MOL   H16337087   3.606   2.641   1.852 -0.2028  0.7810 -0.2634
  103MOL   C16437088   3.656   3.228   2.033  0.2703  0.4021  0.5189
  103MOL   C16537089   3.792   3.278   2.084 -0.0446  0.0545 -0.2003
  103MOL   C16637090   3.797   3.429   2.069 -0.7400 -0.0474  0.0225
  103MOL   C16737091   3.930   3.493   2.111  0.5953  0.0740 -0.6403
  103MOL   C16837092   3.952   3.640   2.065 -0.5613  0.4544 -0.2106
  103MOL   C16937093   3.837   3.730   2.108  0.0332 -0.2456 -0.6630
  103MOL   H17037094   3.581   3.303   2.060  0.7737  1.0548  0.1171
  103MOL   H17137095   3.608   3.153   2.095 -1.2991  1.8144  1.0543
  103MOL   H17237096   3.873   3.231   2.028  0.2596 -1.6413  1.6016
  103MOL   H17337097   3.734   3.482   2.141 -0.3859  1.9799 -1.1120
  103MOL   H17437098   3.775   3.454   1.965 -0.8848  1.0871  0.3142
  103MOL   H17537099   4.014   3.447   2.058  0.8910  2.2792 -2.1300
  103MOL   H17637100   3.947   3.504   2.218 -0.4947  0.5314 -0.5105
  103MOL   H17737101   3.981   3.649   1.960 -1.9789 -1.5174 -0.7928
  103MOL   H17837102   4.049   3.665   2.109 -0.9272  0.1601  0.7700
  103MOL   H17937103   3.798   3.700   2.205  1.9510  0.1027  0.2339
  103MOL   H18037104   3.759   3.714   2.034 -1.3140 -1.0812  0.8909
  103MOL   H18137105   3.876   3.831   2.117  0.4047 -0.3764 -0.7747
  103MOL   C18237106   3.809   3.232   2.230 -0.0637 -0.3834 -0.1023
  103MOL   C18337107   3.864   3.091   2.244 -0.4721  0.0752  0.6004
  103MOL   C18437108   3.843   3.018   2.379  0.5628  0.5340 -0.9241
  103MOL   C18537109   3.698   2.995   2.431 -0.1210  0.3215 -0.1199
  103MOL   C18637110   3.612   2.945   2.311  0.7801  0.2579  0.8340
  103MOL   C18737111   3.492   2.854   2.353  0.6470 -0.6594 -0.2062
  103MOL   H18837112   3.879   3.299   2.281 -0.6160  0.7282 -0.7792
  103MOL   H18937113   3.709   3.230   2.275 -0.4874 -1.6828 -1.0950
  103MOL   H19037114   3.811   3.028   2.172 -2.1376  1.9051  0.2068
  103MOL   H19137115   3.883   2.917   2.373  2.0980  1.1638 -1.5766
  103MOL   H19237116   3.893   3.066   2.463 -3.5589  2.8040  0.3282
  103MOL   H19337117   3.654   3.086   2.472 -0.4284  0.2365 -0.2580
  103MOL   H19437118   3.707   2.924   2.513  3.9802  0.2837 -0.4829
  103MOL   H19537119   3.678   2.890   2.244 -0.0145  0.8298 -0.4307
  103MOL   H19637120   3.574   3.036   2.266 -1.2431 -1.4287 -1.0402
  103MOL   H19737121   3.448   2.808   2.265  1.1403 -0.8668 -0.3422
  103MOL   H19837122   3.396   2.892   2.392  1.3249  0.2678  0.6050
  103MOL   H19937123   3.526   2.768   2.410  1.1730 -1.1755 -1.3068
  103MOL   C20037124   4.013   3.096   2.206  0.2976  0.2562  0.4266
  103MOL   C20137125   4.070   2.983   2.106  0.5222  0.7010  0.0815
  103MOL   C20237126   4.152   3.048   1.990  0.0365  0.2915 -0.2266
  103MOL   C20337127   4.288   3.109   2.038 -0.7191  0.2380  0.0287
  103MOL   C20437128   4.341   3.217   1.942 -0.2646  0.7588  0.2149
  103MOL   C20537129   4.484   3.250   1.963 -0.0995  0.0977  0.4923
  103MOL   H20637130   4.072   3.095   2.298  0.7438  0.9612  0.1575
  103MOL   H20737131   4.040   3.189   2.155 -0.4769 -0.3903 -1.1982
  103MOL   H20837132   3.985   2.942   2.052  1.6891  2.4478 -3.2191
  103MOL   H20937133   4.095   3.119   1.930  0.0953  0.2271 -0.3594
  103MOL   H21037134   4.173   2.973   1.915  2.4885 -1.1767  1.8307
  103MOL   H21137135   4.359   3.027   2.051  0.2004  1.0311  0.0182
  103MOL   H21237136   4.277   3.152   2.137  1.0968 -1.5126  1.0229
  103MOL   H21337137   4.283   3.308   1.956 -2.9495 -0.6994 -0.9778
  103MOL   H21437138   4.323   3.185   1.840  0.5492 -0.3245  0.3984
  103MOL   H21537139   4.521   3.294   1.870  2.9496 -1.4681  0.8959
  103MOL   H21637140   4.502   3.321   2.044  0.0723 -0.9344  1.3611
  103MOL   H21737141   4.551   3.164   1.969 -1.9781 -1.3895  0.5170
  103MOL   C21837142   4.151   2.877   2.191 -0.2686  0.2435  0.1759
  103MOL   C21937143   4.157   2.730   2.148 -0.5449  1.2225 -0.5024
  103MOL   C22037144   4.019   2.664   2.188  0.1674  0.4323  0.2079
  103MOL   C22137145   3.987   2.519   2.141  0.7186 -0.2741  0.2307
  103MOL   C22237146   3.864   2.460   2.211  0.4223  0.3989  0.1707
  103MOL   C22337147   3.866   2.309   2.218 -0.4345  0.7544 -0.5813
  103MOL   H22437148   4.246   2.917   2.228  0.9411 -0.5762 -1.9372
  103MOL   H22537149   4.107   2.869   2.291 -1.4150 -1.4203 -0.4349
  103MOL   H22637150   4.170   2.737   2.040 -1.7099  3.2265 -0.5432
  103MOL   H22737151   3.938   2.730   2.156  0.6105  1.4064  1.0699
  103MOL   H22837152   4.010   2.659   2.296 -1.3363 -0.7205  0.0435
  103MOL   H22937153   4.066   2.447   2.163  0.6601 -0.9599 -1.7054
  103MOL   H23037154   3.972   2.505   2.034  0.9382  0.2101  0.1334
  103MOL   H23137155   3.854   2.500   2.312 -0.5274  0.3926  0.0856
  103MOL   H23237156   3.773   2.493   2.160  0.8822  0.3136 -0.7081
  103MOL   H23337157   3.855   2.258   2.122 -0.8468  0.0102 -0.1387
  103MOL   H23437158   3.784   2.261   2.272  1.8207 -0.2776  2.0055
  103MOL   H23537159   3.955   2.279   2.273 -1.8717 -0.1842  1.2785
  103MOL   C23637160   4.272   2.648   2.207 -0.3515 -0.0508 -0.1455
  103MOL   C23737161   4.417   2.695   2.156  0.1988  0.2269  0.5809
  103MOL   C23837162   4.469   2.604   2.036 -0.6889  0.1679  0.5493
  103MOL   C23937163   4.606   2.629   1.974 -0.0044  0.6441 -0.3621
  103MOL   C24037164   4.620   2.770   1.912  0.6402  1.0477 -0.5792
  103MOL   C24137165   4.759   2.797   1.853 -0.2797 -0.2192 -0.2503
  103MOL   H24237166   4.254   2.639   2.314  1.8594 -0.0505  0.2429
  103MOL   H24337167   4.263   2.546   2.169  0.1638  0.2157 -0.9973
  103MOL   H24437168   4.419   2.796   2.117  1.0511 -0.0664 -0.1463
  103MOL   H24537169   4.486   2.500   2.063  1.5938 -0.3938 -2.7363
  103MOL   H24637170   4.398   2.605   1.954  0.4012 -0.6342 -0.4290
  103MOL   H24737171   4.619   2.560   1.890  0.8672  2.0355 -1.3940
  103MOL   H24837172   4.688   2.605   2.042  0.1526  0.7553 -0.5129
  103MOL   H24937173   4.536   2.787   1.845  0.4241 -0.6387 -0.7660
  103MOL   H25037174   4.601   2.844   1.989  0.3281  1.0437 -0.6512
  103MOL   H25137175   4.836   2.787   1.929  0.0752 -0.1808 -0.6068
  103MOL   H25237176   4.785   2.731   1.771 -0.2418  0.2015 -0.5722
  103MOL   H25337177   4.760   2.892   1.801 -0.2773  0.1084  0.3388
  103MOL   C25437178   4.520   2.700   2.265  0.3607  0.3171  0.0988
  103MOL   C25537179   4.494   2.785   2.386 -0.4891 -0.4326 -0.2000
  103MOL   C25637180   4.533   2.930   2.360 -0.2419  0.2950 -0.5189
  103MOL   C25737181   4.470   3.037   2.452  0.5756 -0.1865 -0.0438
  103MOL   C25837182   4.560   3.159   2.457 -0.1217  0.0912 -0.3214
  103MOL   C25937183   4.488   3.275   2.527 -0.0188 -0.1220 -0.4841
  103MOL   H26037184   4.621   2.713   2.225 -0.5864  2.2513 -1.7941
  103MOL   H26137185   4.513   2.596   2.297  0.3480  0.5904  0.9878
  103MOL   H26237186   4.387   2.779   2.406 -0.3437 -1.3297  0.3562
  103MOL   H26337187   4.641   2.949   2.365  0.0445 -1.4198  0.5866
  103MOL   H26437188   4.518   2.969   2.260  2.1394 -2.3067 -1.9578
  103MOL   H26537189   4.379   3.080   2.410  1.2775  0.6564 -0.7237
  103MOL   H26637190   4.434   2.995   2.546 -0.0040 -0.5405 -0.4180
  103MOL   H26737191   4.563   3.199   2.356 -2.6318 -0.6716 -0.7371
  103MOL   H26837192   4.664   3.151   2.488  0.1987  2.1905 -0.7694
  103MOL   H26937193   4.391   3.301   2.485  0.1639  0.6188 -0.4472
  103MOL   H27037194   4.544   3.368   2.518  0.7233 -0.5385 -0.1795
  103MOL   H27137195   4.474   3.247   2.631 -1.2427  1.9689 -0.0596
  103MOL   C27237196   4.560   2.730   2.514  0.2177  0.3254  0.2741
  103MOL   C27337197   4.490   2.603   2.574  0.8409 -0.0794  0.1485
  103MOL   C27437198   4.338   2.612   2.597  0.1862 -0.5022  0.4628
  103MOL   C27537199   4.283   2.751   2.658 -0.2952  0.5061  0.7594
  103MOL   C27637200   4.160   2.731   2.752  0.6391 -0.0932 -0.3023
  103MOL   C27737201   4.029   2.703   2.675  0.3369  0.6850 -0.0943
  103MOL   H27837202   4.666   2.715   2.494  0.4757 -0.3362  2.0681
  103MOL   H27937203   4.550   2.803   2.595 -1.5605  0.1915  0.1923
  103MOL   H28037204   4.519   2.519   2.510 -1.5903  0.8861 -2.3558
  103MOL   H28137205   4.317   2.552   2.685  1.5769  0.2602  1.3341
  103MOL   H28237206   4.276   2.565   2.521 -0.1548  0.0169  0.4260
  103MOL   H28337207   4.260   2.814   2.572 -0.1587 -1.9974 -1.1669
  103MOL   H28437208   4.363   2.801   2.712  0.4086  1.1938 -0.8859
  103MOL   H28537209   4.176   2.656   2.828 -3.9595  0.3907  1.2984
  103MOL   H28637210   4.151   2.821   2.813 -0.8546  0.0863 -0.7693
  103MOL   H28737211   3.950   2.662   2.738  0.5342 -0.3408 -0.5016
  103MOL   H28837212   3.984   2.796   2.641 -5.2063 -1.5618  0.5988
  103MOL   H28937213   4.055   2.628   2.600 -0.3742 -0.5402  0.8669
  103MOL   C29037214   4.566   2.561   2.698  0.4447  0.4263 -0.0733
  103MOL   C29137215   4.714   2.511   2.679  0.1359  0.3840  0.5455
  103MOL   C29237216   4.829   2.577   2.773  0.1855  0.0278 -0.5671
  103MOL   C29337217   4.836   2.726   2.758  0.0378  0.4428  1.2175
  103MOL   C29437218   4.922   2.777   2.646 -0.2406 -0.3294 -0.1652
  103MOL   C29537219   4.923   2.927   2.618  0.1257 -0.8771  0.2512
  103MOL   H29637220   4.510   2.487   2.755  0.9581 -0.0141 -0.1293
  103MOL   H29737221   4.569   2.645   2.767 -0.1845  1.2015 -0.9696
  103MOL   H29837222   4.743   2.531   2.575  2.1872  0.5992  1.1391
  103MOL   H29937223   4.925   2.527   2.756  1.1136  1.4930  0.2865
  103MOL   H30037224   4.819   2.546   2.877 -1.0195 -0.6963 -0.8916
  103MOL   H30137225   4.739   2.774   2.755 -0.3901 -0.4878 -0.2701
  103MOL   H30237226   4.883   2.762   2.850  0.0399 -0.1753  1.4624
  103MOL   H30337227   4.907   2.730   2.549 -2.1158 -2.8964  1.3014
  103MOL   H30437228   5.023   2.741   2.666 -0.4852 -2.4639 -2.5236
  103MOL   H30537229   5.002   2.946   2.546  1.7320  1.1260  2.4427
  103MOL   H30637230   4.926   2.986   2.710 -0.7506  0.7969 -0.7572
  103MOL   H30737231   4.831   2.965   2.574 -0.1112 -2.2698 -0.4633
  103MOL   C30837232   4.717   2.353   2.680 -0.7296  0.6519  0.8161
  103MOL   C30937233   4.855   2.290   2.656 -0.1037 -0.0306  0.0210
  103MOL   C31037234   4.933   2.326   2.525 -0.4458  0.0109 -0.2749
  103MOL   C31137235   4.851   2.305   2.396 -0.5960 -0.1319  0.1216
  103MOL   C31237236   4.935   2.301   2.267  0.0663  0.0963 -0.6051
  103MOL   C31337237   5.014   2.174   2.250  0.0647  0.4345 -0.6120
  103MOL   H31437238   4.694   2.325   2.783  1.4621  0.4087  1.2736
  103MOL   H31537239   4.645   2.317   2.607 -0.1376  2.7880 -0.8486
  103MOL   H31637240   4.926   2.307   2.738 -1.4691 -0.0502  1.2203
  103MOL   H31737241   5.023   2.265   2.518 -0.4522 -0.4056  2.7840
  103MOL   H31837242   4.970   2.428   2.520 -0.1961 -0.0826 -0.3611
  103MOL   H31937243   4.791   2.396   2.391 -2.4421 -1.4288 -2.1164
  103MOL   H32037244   4.779   2.223   2.397 -1.4593  0.5913 -1.0068
  103MOL   H32137245   4.863   2.314   2.186  0.4199  1.5180 -0.7040
  103MOL   H32237246   5.003   2.386   2.268  0.6996 -0.4107  0.0767
  103MOL   H32337247   5.108   2.172   2.306  0.7432  0.7248 -1.7311
  103MOL   H32437248   5.049   2.162   2.147  2.5379  1.9974 -0.0129
  103MOL   H32537249   4.958   2.086   2.282  2.1178 -1.2141 -1.3553
  103MOL   C32637250   4.844   2.133   2.654 -0.0501  0.4670  0.6725
  103MOL   C32737251   4.799   2.069   2.790 -0.4752  0.3638 -0.2429
  103MOL   C32837252   4.751   1.921   2.779 -0.3847 -0.2367  0.1262
  103MOL   C32937253   4.633   1.905   2.678 -0.4925  0.3344  0.0248
  103MOL   C33037254   4.585   1.763   2.668  0.2589  0.0860  0.5694
  103MOL   C33137255   4.686   1.681   2.591  0.1883  0.3896 -0.2014
  103MOL   H33237256   4.935   2.083   2.622 -1.2503  0.4167 -2.8729
  103MOL   H33337257   4.777   2.099   2.575 -0.8992  1.4861  0.9399
  103MOL   H33437258   4.711   2.127   2.818 -0.1831  0.0174  1.4360
  103MOL   H33537259   4.833   1.866   2.732 -0.1714  0.8318 -0.7627
  103MOL   H33637260   4.714   1.891   2.877  0.2152  1.5003  0.9016
  103MOL   H33737261   4.639   1.947   2.577 -0.2733  2.8762  1.0692
  103MOL   H33837262   4.547   1.962   2.713 -0.2730  1.1687 -0.7567
  103MOL   H33937263   4.561   1.714   2.762 -3.0799  0.2719 -0.1139
  103MOL   H34037264   4.490   1.773   2.614  0.5611  0.5586  0.1227
  103MOL   H34137265   4.776   1.656   2.648  0.5662 -1.3346 -1.5098
  103MOL   H34237266   4.716   1.732   2.500  1.3774 -1.9651 -1.1870
  103MOL   H34337267   4.655   1.579   2.568  0.9933  0.4528 -1.6291
  103MOL   C34437268   4.916   2.080   2.894 -0.4473 -0.6824 -0.1929
  103MOL   C34537269   4.871   2.047   3.033  0.5016  0.0636  0.2157
  103MOL   C34637270   4.763   2.148   3.094  0.2966 -0.5370 -0.0063
  103MOL   C34737271   4.796   2.300   3.102  0.6663 -0.2886  0.0834
  103MOL   C34837272   4.691   2.407   3.140 -0.8595 -0.9447  0.0968
  103MOL   C34937273   4.753   2.548   3.178 -0.9890  0.7656  0.3143
  103MOL   H35037274   4.995   2.014   2.859  1.3638  0.9345  0.7384
  103MOL   H35137275   4.974   2.172   2.899  1.9968 -2.2267  0.8778
  103MOL   H35237276   4.959   2.057   3.097 -0.4824 -0.0036  1.6054
  103MOL   H35337277   4.671   2.130   3.038  0.2856 -0.6433  0.0451
  103MOL   H35437278   4.745   2.105   3.192 -0.1783  0.3179  0.2863
  103MOL   H35537279   4.882   2.309   3.169  1.2472  1.2081 -0.8406
  103MOL   H35637280   4.838   2.336   3.008  0.8099  0.8819  0.5856
  103MOL   H35737281   4.615   2.430   3.065  0.8339  1.7951 -0.8505
  103MOL   H35837282   4.630   2.365   3.220 -2.3649  1.7618  0.4188
  103MOL   H35937283   4.826   2.533   3.258 -0.4629  3.0133  0.2894
  103MOL   H36037284   4.810   2.591   3.095 -0.4122 -3.0435 -1.3973
  103MOL   H36137285   4.670   2.608   3.216 -2.0948 -2.0658  2.5037
  103MOL   H36237286   4.839   1.945   3.055 -0.1959  0.4173  0.8662
  104MOL     C137287   6.381   6.980   2.078 -0.1734  0.1593  0.4860
  104MOL     C237288   6.250   7.044   2.031  0.2942  0.2756  0.1242
  104MOL     C337289   6.223   6.999   1.885  0.1080 -0.2252  0.0102
  104MOL     C437290   6.175   6.854   1.870  0.2341  0.1512 -0.1917
  104MOL     C537291   6.124   6.815   1.734 -0.1850  0.5429  0.8003
  104MOL     C637292   6.074   6.673   1.739  0.8561  0.0759  0.2959
  104MOL     H737293   6.470   7.017   2.026 -0.4113 -0.9831 -0.7715
  104MOL     H837294   6.417   7.000   2.179  0.5925 -0.8427  0.4192
  104MOL     H937295   6.166   7.003   2.088 -0.7568  0.6207 -1.1402
  104MOL    H1037296   6.314   7.010   1.825  0.6587  3.5392  1.4250
  104MOL    H1137297   6.150   7.068   1.843 -1.6589 -0.7415  2.1576
  104MOL    H1237298   6.086   6.837   1.931 -0.3668  2.5996 -0.3517
  104MOL    H1337299   6.252   6.788   1.911  1.2554  1.1235 -0.5246
  104MOL    H1437300   6.052   6.885   1.692 -0.8950 -0.1262  0.8951
  104MOL    H1537301   6.201   6.818   1.658 -3.5089 -0.8378 -2.7882
  104MOL    H1637302   6.157   6.610   1.772 -0.8034 -1.3293  1.8619
  104MOL    H1737303   6.033   6.632   1.647 -1.1497  0.5978  0.9435
  104MOL    H1837304   5.997   6.665   1.815  0.5623  1.3245  0.1466
  104MOL    H1937305   6.372   6.874   2.054  1.0038  0.7061 -2.6380
  104MOL    C2037306   6.245   7.198   2.041  0.0380 -0.8025 -0.4727
  104MOL    C2137307   6.256   7.263   2.181  0.5570 -0.5156  0.8997
  104MOL    C2237308   6.324   7.409   2.178  0.2690 -0.9297  0.3323
  104MOL    C2337309   6.263   7.529   2.098 -0.1760  0.2616 -0.5630
  104MOL    C2437310   6.302   7.669   2.163 -0.4525  0.3096 -0.4531
  104MOL    C2537311   6.269   7.681   2.313  0.6196 -0.3754 -0.2582
  104MOL    H2637312   6.159   7.246   1.994 -0.8036 -2.2093 -0.3995
  104MOL    H2737313   6.324   7.250   1.987  0.0960 -1.7135 -1.2827
  104MOL    H2837314   6.315   7.195   2.241 -2.7128 -0.9477  3.7686
  104MOL    H2937315   6.426   7.383   2.150  1.0692 -0.1242  2.4014
  104MOL    H3037316   6.332   7.449   2.279 -1.2415 -1.0166  0.5029
  104MOL    H3137317   6.154   7.527   2.107 -0.1460  1.6571  0.2633
  104MOL    H3237318   6.290   7.522   1.993 -0.9947  0.3178 -0.7853
  104MOL    H3337319   6.404   7.708   2.151  0.0140  0.0203  2.2456
  104MOL    H3437320   6.242   0.014   2.109  0.5036  0.7574 -0.9347
  104MOL    H3537321   6.167   7.646   2.330 -0.5034  3.3337  1.0258
  104MOL    H3637322   6.324   7.626   2.390 -0.4246  0.3695  1.0358
  104MOL    H3737323   6.261   0.059   2.339 -0.1050 -0.7416  1.0405
  104MOL    C3837324   6.122   7.270   2.252  0.1151  0.0995 -0.3939
  104MOL    C3937325   6.134   7.278   2.406  0.4645 -0.1174  0.0092
  104MOL    C4037326   6.017   7.370   2.465 -0.6446 -0.4143 -0.1413
  104MOL    C4137327   5.868   7.321   2.469  0.1745 -0.4540 -0.2193
  104MOL    C4237328   5.778   7.423   2.544  0.4788  0.0096  0.4005
  104MOL    C4337329   5.650   7.354   2.594 -0.1018  0.2755 -0.2210
  104MOL    H4437330   6.051   7.198   2.211  1.8836 -1.8183 -0.1387
  104MOL    H4537331   6.077   7.362   2.214 -1.7181  0.4741  2.4924
  104MOL    H4637332   6.234   7.321   2.416  0.5680 -0.6641  1.4331
  104MOL    H4737333   6.042   7.400   2.567 -0.9295 -1.4282  0.2290
  104MOL    H4837334   6.024   7.468   2.417  2.3293 -0.0642  0.8525
  104MOL    H4937335   5.833   7.295   2.369  0.3326  0.4724 -0.5301
  104MOL    H5037336   5.876   7.230   2.527 -0.9181 -0.6688 -0.4007
  104MOL    H5137337   5.831   7.459   2.632 -1.3722 -0.7210  1.8496
  104MOL    H5237338   5.767   7.504   2.473 -0.0620 -1.1675 -0.8815
  104MOL    H5337339   5.581   7.417   2.649 -0.9048  1.0862 -2.1047
  104MOL    H5437340   5.670   7.278   2.669  0.6727 -0.5366 -1.2377
  104MOL    H5537341   5.601   7.305   2.510 -1.4038 -0.9497  1.2258
  104MOL    C5637342   6.139   7.135   2.468  0.1999 -0.5680 -0.4751
  104MOL    C5737343   6.248   7.113   2.577  0.1382  0.1941 -0.1437
  104MOL    C5837344   6.217   7.194   2.704  0.1438 -0.0462 -0.3040
  104MOL    C5937345   6.086   7.156   2.775 -0.1013 -0.1840 -0.1654
  104MOL    C6037346   6.032   7.253   2.885 -0.2692  1.0885 -0.3836
  104MOL    C6137347   5.915   7.195   2.970 -0.0348  0.0590 -0.4242
  104MOL    H6237348   6.044   7.103   2.512  1.3211  0.4951  2.8900
  104MOL    H6337349   6.162   7.060   2.392  1.7999  1.2099 -1.7697
  104MOL    H6437350   6.234   7.008   2.600  2.0637 -0.2649 -1.0015
  104MOL    H6537351   6.294   7.179   2.780  0.3961 -0.5635 -0.6587
  104MOL    H6637352   6.227   7.300   2.682  1.9817  0.3265  2.0767
  104MOL    H6737353   6.103   7.055   2.814 -2.0027 -0.2345  0.6084
  104MOL    H6837354   6.001   7.148   2.708 -0.2848 -1.1383  0.1626
  104MOL    H6937355   6.116   7.285   2.947  1.2959 -1.1686 -1.2818
  104MOL    H7037356   5.996   7.343   2.836  2.7654  3.2165  1.1068
  104MOL    H7137357   5.821   7.198   2.915 -0.5723 -1.4929  0.3912
  104MOL    H7237358   5.941   7.095   3.004  1.6260  0.0801 -1.5423
  104MOL    H7337359   5.904   7.247   3.065  1.8087  1.7532 -1.0905
  104MOL    C7437360   6.398   7.136   2.523 -0.1388 -0.3711  0.9043
  104MOL    C7537361   6.512   7.065   2.592 -0.6182 -0.2849  0.0502
  104MOL    C7637362   6.523   6.910   2.545  0.3120 -0.2833  0.2479
  104MOL    C7737363   6.579   6.875   2.407 -0.1475  0.0607  0.1575
  104MOL    C7837364   6.562   6.727   2.369 -0.8580 -1.1300  1.2898
  104MOL    C7937365   6.625   6.709   2.229 -0.3952  0.4996  0.0844
  104MOL    H8037366   6.412   7.110   2.418 -2.6048  0.7790  0.2573
  104MOL    H8137367   6.424   7.241   2.535  3.8234 -1.1623  0.0828
  104MOL    H8237368   6.486   7.055   2.697  0.0166 -3.0766 -0.0081
  104MOL    H8337369   6.574   6.841   2.613  0.2640 -0.2915  0.2757
  104MOL    H8437370   6.423   6.869   2.560  0.8764 -2.1368 -0.9335
  104MOL    H8537371   6.527   6.931   2.330  0.2511 -1.1064 -0.9890
  104MOL    H8637372   6.684   6.906   2.406  0.3684 -1.6332 -1.0974
  104MOL    H8737373   6.456   6.705   2.377 -1.4432  1.7562  2.1337
  104MOL    H8837374   6.619   6.660   2.434  1.3855 -0.3455  0.2037
  104MOL    H8937375   6.586   6.775   2.151 -0.3924  0.0684 -0.2859
  104MOL    H9037376   6.731   6.733   2.227  0.4223 -2.8477  0.6883
  104MOL    H9137377   6.616   6.613   2.179  0.8414  0.2622  0.3059
  104MOL    C9237378   6.649   7.132   2.580  0.7334  0.3253  0.1866
  104MOL    C9337379   6.681   7.257   2.668 -0.7007  0.1790 -0.5610
  104MOL    C9437380   6.669   7.220   2.822 -0.4498  0.2329 -0.3907
  104MOL    C9537381   6.570   7.312   2.893  0.5022 -0.4180  0.5244
  104MOL    C9637382   6.546   7.270   3.040 -0.1899  0.3691  0.2456
  104MOL    C9737383   6.435   7.356   3.108 -0.2229  0.6661  0.7072
  104MOL    H9837384   6.727   7.057   2.592 -0.1344 -0.6255 -0.0251
  104MOL    H9937385   6.668   7.165   2.478  0.0681 -0.0350 -0.0570
  104MOL   H10037386   6.597   7.324   2.648 -1.0475 -0.2035 -0.3803
  104MOL   H10137387   6.767   7.234   2.867 -1.5021  1.9466  1.4420
  104MOL   H10237388   6.651   7.113   2.838  0.6535  0.5492  3.2829
  104MOL   H10337389   6.606   7.414   2.893  0.5775 -0.4349 -0.9028
  104MOL   H10437390   6.468   7.309   2.855  0.4236 -0.3258  0.7216
  104MOL   H10537391   6.527   7.162   3.043 -1.3463  0.5442 -0.3927
  104MOL   H10637392   6.643   7.287   3.088  0.3995 -2.6806  0.2269
  104MOL   H10737393   6.462   7.461   3.113  0.0161  0.6022  0.7518
  104MOL   H10837394   6.342   7.364   3.051 -1.0598 -0.1853  1.9117
  104MOL   H10937395   6.420   7.326   3.212 -2.4762 -1.9846 -0.3209
  104MOL   C11037396   6.812   7.335   2.634 -0.6786 -0.1817 -0.0311
  104MOL   C11137397   6.834   7.466   2.701 -0.0465 -0.1376  0.6007
  104MOL   C11237398   6.723   7.567   2.663 -0.5156 -0.0472 -0.7390
  104MOL   C11337399   6.709   7.583   2.509  0.9605  0.3047  0.4828
  104MOL   C11437400   6.596   7.675   2.471  0.4113 -0.2528  0.1020
  104MOL   C11537401   6.574   0.073   2.560 -0.2603  0.6470 -0.1748
  104MOL   H11637402   6.885   7.267   2.680  0.5093  1.0318 -0.0770
  104MOL   H11737403   6.831   7.337   2.527  0.5785 -2.4986  0.1124
  104MOL   H11837404   6.824   7.452   2.809 -1.1599  1.9665  0.8034
  104MOL   H11937405   6.734   7.660   2.717  1.5013 -0.9731  0.5070
  104MOL   H12037406   6.630   7.521   2.697 -0.7676  1.4844  0.6630
  104MOL   H12137407   6.695   7.491   2.452 -1.0161  0.2862  0.9535
  104MOL   H12237408   6.799   7.624   2.463  0.2822  1.6072  0.2891
  104MOL   H12337409   6.504   7.616   2.471  0.9263 -1.0741  0.1948
  104MOL   H12437410   6.603   7.713   2.369 -2.6021  0.6435  0.1939
  104MOL   H12537411   6.564   0.053   2.667  3.2433 -1.2304 -0.1092
  104MOL   H12637412   6.656   0.145   2.557 -1.6876  2.2684 -1.3292
  104MOL   H12737413   6.489   0.132   2.527  0.1118  1.9820  1.1731
  104MOL   C12837414   6.972   7.517   2.668  0.0991  0.0286 -0.5657
  104MOL   C12937415   7.074   7.534   2.791 -0.2272 -0.2567 -0.0632
  104MOL   C13037416   7.054   7.674   2.857 -0.3788  0.1360  0.0023
  104MOL   C13137417   7.131   7.688   2.987 -0.5794 -0.1282 -0.2855
  104MOL   C13237418   7.071   0.075   3.066 -0.3705 -0.0966 -0.4394
  104MOL   C13337419   7.146   0.108   3.192  0.3558 -0.2064  0.4777
  104MOL   H13437420   6.959   7.617   2.626  0.1077  0.2267 -0.1006
  104MOL   H13537421   7.022   7.462   2.588  0.2329 -0.6339 -0.0299
  104MOL   H13637422   7.044   7.460   2.866  0.8309  0.6416  1.2707
  104MOL   H13737423   7.081   0.019   2.780 -0.6591 -1.6446 -1.8190
  104MOL   H13837424   6.947   7.691   2.872 -0.9985 -0.0929 -3.6470
  104MOL   H13937425   7.239   7.693   2.972 -0.6230  1.8456 -0.1266
  104MOL   H14037426   7.116   7.598   3.046  3.5742  0.5564  1.9664
  104MOL   H14137427   7.056   0.161   3.001  0.5487  0.2983 -0.1303
  104MOL   H14237428   6.968   0.056   3.096 -0.6964  2.5896  0.2337
  104MOL   H14337429   7.253   0.093   3.179  0.1354  0.8234 -2.9037
  104MOL   H14437430   7.112   0.047   3.276  1.0328 -0.0070  0.9034
  104MOL   H14537431   7.134   0.212   3.222  0.5757 -0.2941  0.8837
  104MOL   C14637432   7.216   7.490   2.756 -0.0515 -0.4804 -0.3259
  104MOL   C14737433   7.312   7.582   2.674  0.0590  0.3060  0.0391
  104MOL   C14837434   7.253   7.628   2.538  0.2238 -0.1902 -0.1977
  104MOL   C14937435   7.323   0.014   2.463 -0.8303 -0.2978  0.0030
  104MOL   C15037436   7.227   0.081   2.365 -0.2041  0.1458  0.4589
  104MOL   C15137437   7.263   0.222   2.342 -0.1964 -0.0509  0.0394
  104MOL   H15237438   7.260   7.475   2.855  1.0983 -2.5160 -1.1250
  104MOL   H15337439   7.202   7.389   2.717  0.5175 -0.9975  0.7997
  104MOL   H15437440   7.324   7.673   2.734 -0.3604  1.1315 -1.0928
  104MOL   H15537441   7.148   7.656   2.550 -0.2781 -2.2543  0.4197
  104MOL   H15637442   7.248   7.543   2.470 -0.1133 -1.4821  1.4108
  104MOL   H15737443   7.369   0.081   2.536 -2.7042  1.6083 -0.5195
  104MOL   H15837444   7.401   7.688   2.408 -0.6088 -2.4314  2.3047
  104MOL   H15937445   7.119   0.068   2.369 -0.5015  1.9421 -0.9518
  104MOL   H16037446   7.254   0.025   2.275 -3.5393 -1.2971  0.3037
  104MOL   H16137447   7.261   0.288   2.428  2.6874  0.4452 -0.2127
  104MOL   H16237448   7.368   0.229   2.312 -0.1411  3.7510  0.8920
  104MOL   H16337449   7.197   0.272   2.271  0.9761 -1.3064 -1.9975
  104MOL   C16437450   7.451   7.519   2.670 -0.4686 -0.9432 -0.1884
  104MOL   C16537451   7.559   7.553   2.780 -0.2211 -0.0154 -0.2074
  104MOL   C16637452   7.657   7.434   2.802  0.1936  0.1828 -0.2317
  104MOL   C16737453   7.596   7.308   2.875  0.0934 -0.3247 -0.2404
  104MOL   C16837454   7.588   7.337   3.028 -0.6093 -0.6082 -0.0689
  104MOL   C16937455   7.721   7.316   3.096  0.4324  0.1279  0.1345
  104MOL   H17037456   7.449   7.410   2.668 -2.5814 -0.9134 -1.0258
  104MOL   H17137457   7.500   7.548   2.578  2.5494 -1.8296  1.0822
  104MOL   H17237458   7.489   7.572   2.861 -0.5248 -1.3315 -0.1394
  104MOL   H17337459   0.013   7.465   2.865  0.8113  1.0623 -1.4555
  104MOL   H17437460   7.694   7.397   2.707  0.5180  2.0078 -0.8330
  104MOL   H17537461   7.656   7.220   2.849 -0.4521 -0.5749 -0.6615
  104MOL   H17637462   7.493   7.299   2.841 -0.1008  1.5426 -0.1687
  104MOL   H17737463   7.513   7.274   3.076  0.7255 -0.9707  1.5503
  104MOL   H17837464   7.546   7.435   3.050 -0.8258 -0.5677 -0.6462
  104MOL   H17937465   7.696   7.325   3.202  1.4851 -2.4300  0.6269
  104MOL   H18037466   0.076   7.371   3.050  1.8736 -2.4057 -0.4047
  104MOL   H18137467   0.030   7.213   3.091  0.0460  0.0265 -0.4785
  104MOL   C18237468   7.631   7.687   2.750  0.3425 -0.3239  0.1858
  104MOL   C18337469   7.673   0.031   2.876  0.2800  0.0330 -0.1439
  104MOL   C18437470   7.563   0.100   2.950 -0.4452  0.3669  0.1593
  104MOL   C18537471   7.478   0.188   2.859 -0.4173  0.2865  0.0845
  104MOL   C18637472   7.381   0.278   2.930 -0.8465 -1.0801  0.2705
  104MOL   C18737473   7.290   0.352   2.833  0.1395  0.2529 -0.2925
  104MOL   H18837474   7.719   7.662   2.691 -0.3253 -1.1090 -0.5046
  104MOL   H18937475   7.568   0.017   2.681  1.0319 -0.9224 -0.9552
  104MOL   H19037476   7.701   7.677   2.943 -1.3930 -0.3577  0.0955
  104MOL   H19137477   7.491   0.029   2.990  1.9899 -1.3943  1.6173
  104MOL   H19237478   7.591   0.152   3.041  2.9032 -0.3739 -0.3718
  104MOL   H19337479   7.403   0.125   2.810  0.7940 -1.0132 -0.1546
  104MOL   H19437480   7.535   0.238   2.781  2.3444 -1.2027  1.0733
  104MOL   H19537481   7.432   0.338   3.005  2.0795 -2.3453 -0.6400
  104MOL   H19637482   7.320   0.208   2.988 -1.0280 -1.2484 -0.1183
  104MOL   H19737483   7.353   0.418   2.774  0.6116 -0.9086 -1.0937
  104MOL   H19837484   7.211   0.405   2.886  0.2291  1.0937 -0.9956
  104MOL   H19937485   7.230   0.284   2.774  1.6735 -1.2856 -0.1282
  104MOL   C20037486   0.068   0.121   2.841  0.2658 -0.9469  0.8035
  104MOL   C20137487   0.149   0.175   2.955  0.2056 -0.0991  0.4098
  104MOL   C20237488   0.228   0.060   3.036  0.4773  0.1796  0.8208
  104MOL   C20337489   0.281   0.099   3.179 -0.0480 -0.5333 -0.3672
  104MOL   C20437490   0.325   7.701   3.254 -0.5980 -0.1990  0.0304
  104MOL   C20537491   0.474   7.681   3.227 -0.1918 -0.0376  0.4478
  104MOL   H20637492   0.037   0.209   2.786 -1.5838 -2.1150 -0.0848
  104MOL   H20737493   0.139   0.073   2.773 -0.3381 -0.5299 -0.1298
  104MOL   H20837494   0.078   0.218   3.025 -0.2605  0.1483 -0.2189
  104MOL   H20937495   0.310   0.028   2.972  0.2261  0.9148  0.1207
  104MOL   H21037496   0.162   7.701   3.045 -0.7701  1.0930  0.5033
  104MOL   H21137497   0.189   0.127   3.230  1.9922  2.1800  1.9920
  104MOL   H21237498   0.352   0.182   3.178  0.1643 -0.6975  0.3780
  104MOL   H21337499   0.264   7.618   3.219 -3.2105  2.8880 -3.1368
  104MOL   H21437500   0.295   7.706   3.358 -0.9838 -1.9049  0.0202
  104MOL   H21537501   0.485   7.657   3.122  0.5545 -1.0345  0.7456
  104MOL   H21637502   0.528   0.044   3.258 -0.8549  1.1925 -1.9180
  104MOL   H21737503   0.521   7.603   3.288  0.1510  0.1332  0.4047
  104MOL   C21837504   0.255   0.276   2.895 -0.3013  0.1965 -0.0991
  104MOL   C21937505   0.230   0.427   2.913  0.0119  0.0159 -0.3518
  104MOL   C22037506   0.234   0.473   3.059 -0.8204 -0.2412 -0.7966
  104MOL   C22137507   0.372   0.505   3.118 -0.5201  1.0240  0.7709
  104MOL   C22237508   0.364   0.555   3.272  0.4495  0.2742 -0.1207
  104MOL   C22337509   0.501   0.616   3.310  0.3350  0.2524 -0.3680
  104MOL   H22437510   0.349   0.256   2.946  0.4464  1.7931 -0.8311
  104MOL   H22537511   0.284   0.256   2.792  2.1964 -1.0848  0.8075
  104MOL   H22637512   0.319   0.474   2.870  1.0415 -1.0748  0.5479
  104MOL   H22737513   0.184   0.397   3.119  1.5647 -1.2786 -0.1071
  104MOL   H22837514   0.165   0.558   3.056 -2.4736 -1.3224  3.5235
  104MOL   H22937515   0.421   0.576   3.052 -0.6040  0.4733  0.1089
  104MOL   H23037516   0.433   0.415   3.112  0.7766  1.9444  0.0508
  104MOL   H23137517   0.295   0.636   3.298  1.8111  0.3900  3.3999
  104MOL   H23237518   0.341   0.472   3.338 -1.0408 -0.4982 -1.5797
  104MOL   H23337519   0.541   0.673   3.226  1.7051 -0.3702 -0.1579
  104MOL   H23437520   0.574   0.538   3.333 -0.6138 -0.8767 -1.0975
  104MOL   H23537521   0.496   0.678   3.399  1.5283  0.3525 -0.3631
  104MOL   C23637522   0.115   0.484   2.832  0.1036  0.0256  0.6556
  104MOL   C23737523   0.116   0.470   2.678 -1.3182 -0.0937  0.0866
  104MOL   C23837524   0.227   0.556   2.619  0.6497 -0.3442  0.2771
  104MOL   C23937525   0.205   0.709   2.632  0.5502  0.1405  0.0335
  104MOL   C24037526   0.332   0.790   2.605  0.6471  0.1892  0.7516
  104MOL   C24137527   0.309   0.945   2.603 -0.2929 -0.7923 -0.1151
  104MOL   H24237528   0.032   0.424   2.871  2.0136 -1.2856  2.8415
  104MOL   H24337529   0.076   0.584   2.854  0.6769  0.2693  0.5728
  104MOL   H24437530   0.140   0.365   2.662 -0.0533  0.3776 -1.1776
  104MOL   H24537531   0.324   0.539   2.666  0.6374  1.8698  1.1707
  104MOL   H24637532   0.252   0.525   2.518  1.8880  1.2895  0.0650
  104MOL   H24737533   0.151   0.730   2.724 -1.4084 -1.9759 -0.5797
  104MOL   H24837534   0.131   0.729   2.554 -1.4105 -2.0005  1.2715
  104MOL   H24937535   0.403   0.753   2.679  2.0221 -1.6192 -1.4240
  104MOL   H25037536   0.379   0.763   2.511 -0.8179  1.2171 -0.2981
  104MOL   H25137537   0.268   0.985   2.695 -0.5728  0.0590 -0.6016
  104MOL   H25237538   0.405   0.994   2.584 -0.7593  0.1899  0.0633
  104MOL   H25337539   0.231   0.970   2.531 -0.2023  1.5454  0.5521
  104MOL   C25437540   7.700   0.498   2.617  0.1381 -0.9442 -0.1795
  104MOL   C25537541   7.687   0.431   2.474  0.6515  0.2706 -0.3196
  104MOL   C25637542   7.558   0.476   2.399  0.4125 -0.3618  0.0713
  104MOL   C25737543   7.556   0.610   2.325  0.6694 -0.2573 -0.0993
  104MOL   C25837544   7.456   0.625   2.204  0.3247  0.5690  0.3579
  104MOL   C25937545   7.310   0.614   2.248 -0.5984  0.2090  0.2947
  104MOL   H26037546   7.671   0.601   2.599  0.0723 -0.4154  2.7029
  104MOL   H26137547   7.629   0.441   2.677  1.7631 -1.8940  0.8845
  104MOL   H26237548   0.040   0.470   2.410 -0.0701  0.5776 -1.0384
  104MOL   H26337549   7.533   0.409   2.317 -1.6184 -0.9376  1.1425
  104MOL   H26437550   7.473   0.464   2.466  0.5140 -1.1793  0.0601
  104MOL   H26537551   7.540   0.694   2.394  0.4961 -0.1029 -0.3262
  104MOL   H26637552   7.660   0.628   2.297  0.9566 -1.1298  0.3848
  104MOL   H26737553   7.482   0.541   2.139  2.3830 -0.9115  3.0016
  104MOL   H26837554   7.468   0.720   2.152  0.5737 -0.0262 -0.6969
  104MOL   H26937555   7.237   0.601   2.169  0.5312 -1.2034 -0.5496
  104MOL   H27037556   7.268   0.696   2.306  2.3344  1.4883  0.7221
  104MOL   H27137557   7.306   0.527   2.314  0.9467 -0.5080 -0.5320
  104MOL   C27237558   7.688   0.274   2.475  0.4989  1.2313 -0.2701
  104MOL   C27337559   0.003   0.209   2.345 -0.0955 -0.2185  0.2226
  104MOL   C27437560   7.688   0.063   2.331  0.6195  1.1016  0.2787
  104MOL   C27537561   7.684   0.003   2.185  0.1479  0.0107  0.5589
  104MOL   C27637562   7.621   7.594   2.167  0.2500  0.0071  0.7216
  104MOL   C27737563   7.699   7.475   2.231  0.1970 -0.1258  0.8748
  104MOL   H27837564   0.033   0.247   2.552  1.2890 -1.4141 -1.8489
  104MOL   H27937565   7.598   0.225   2.512  2.3936  0.2892  3.2715
  104MOL   H28037566   7.680   0.262   2.263 -0.8888  0.0743  0.8854
  104MOL   H28137567   7.585   0.053   2.363  0.7096 -0.0661  0.2200
  104MOL   H28237568   0.028   0.001   2.390  0.0343  1.3930  1.2548
  104MOL   H28337569   0.052   0.011   2.133  0.2193 -0.4442  0.6127
  104MOL   H28437570   7.624   0.076   2.131  0.6748  2.4672  3.1315
  104MOL   H28537571   7.513   7.607   2.181  0.2723  1.9330 -0.6224
  104MOL   H28637572   7.624   7.573   2.060 -2.4520  0.3771  0.5341
  104MOL   H28737573   7.714   7.473   2.339 -1.7294  0.7712  1.1884
  104MOL   H28837574   7.632   7.392   2.207 -0.6647  0.3896  1.4898
  104MOL   H28937575   0.066   7.452   2.180 -0.2733 -1.1789  0.4535
  104MOL   C29037576   0.158   0.224   2.314 -0.6885  0.4593  0.8202
  104MOL   C29137577   0.264   0.212   2.429  0.1548 -0.2357 -0.0563
  104MOL   C29237578   0.263   0.073   2.510  0.2818  0.3782 -0.1922
  104MOL   C29337579   0.296   7.668   2.425 -0.4242  0.4985  0.0531
  104MOL   C29437580   0.256   7.528   2.482 -0.4948  1.3763 -0.0256
  104MOL   C29537581   0.303   7.495   2.622  0.0046 -0.6516 -0.2774
  104MOL   H29637582   0.169   0.323   2.271  2.1840  0.1106  0.6395
  104MOL   H29737583   0.186   0.148   2.241 -0.8857 -0.8024  2.0258
  104MOL   H29837584   0.247   0.299   2.492  0.0172  0.3326 -0.8654
  104MOL   H29937585   0.162   0.049   2.541 -0.4741 -1.5719 -3.9389
  104MOL   H30037586   0.319   0.085   2.603  1.3991  1.0119 -0.9266
  104MOL   H30137587   0.254   7.680   2.325  0.4462  1.0423 -0.2493
  104MOL   H30237588   0.403   7.672   2.407 -0.8393  0.8773 -2.5373
  104MOL   H30337589   0.295   7.447   2.419 -1.3035  0.7723  0.2428
  104MOL   H30437590   0.148   7.517   2.477 -0.3624  0.6751 -1.6371
  104MOL   H30537591   0.396   7.541   2.657 -0.3078 -0.7479  0.7018
  104MOL   H30637592   0.312   7.386   2.631  1.1925 -0.5853 -0.5582
  104MOL   H30737593   0.241   7.526   2.706 -0.3381  0.6225 -1.0000
  104MOL   C30837594   0.405   0.246   2.366  0.2004 -0.4189 -0.1481
  104MOL   C30937595   0.512   0.290   2.463  0.0852 -0.4184  0.5678
  104MOL   C31037596   0.600   0.401   2.415  0.0532 -0.0757 -0.1320
  104MOL   C31137597   0.539   0.541   2.398 -0.9225  0.0039  0.0064
  104MOL   C31237598   0.647   0.645   2.362  0.5104 -0.8422  0.1553
  104MOL   C31337599   0.753   0.681   2.461  0.1733 -0.0699 -0.3188
  104MOL   H31437600   0.449   0.156   2.322  0.9409 -0.2935  0.3269
  104MOL   H31537601   0.399   0.312   2.280 -0.2418  0.9665  0.9216
  104MOL   H31637602   0.461   0.335   2.548 -1.6220 -0.1848 -0.5670
  104MOL   H31737603   0.647   0.365   2.324 -0.5950  0.2397 -0.5969
  104MOL   H31837604   0.678   0.415   2.489 -0.5765  0.3624  0.4591
  104MOL   H31937605   0.490   0.564   2.492  1.5700  0.1784  1.2820
  104MOL   H32037606   0.463   0.526   2.321 -0.6940 -1.7209  0.0908
  104MOL   H32137607   0.694   0.625   2.266 -2.2912 -3.1708 -0.8131
  104MOL   H32237608   0.577   0.727   2.349  0.7418 -0.6423  0.1697
  104MOL   H32337609   0.804   0.772   2.429  0.1743 -0.5966 -1.8862
  104MOL   H32437610   0.831   0.605   2.458  0.9153  0.6777 -0.0728
  104MOL   H32537611   0.718   0.694   2.563 -0.7128  2.8777 -0.9605
  104MOL   C32637612   0.591   0.166   2.521 -0.6131  0.3731 -0.5425
  104MOL   C32737613   0.690   0.191   2.642 -0.0084  0.0133  0.5598
  104MOL   C32837614   0.609   0.256   2.769 -0.0823 -0.2987  0.4337
  104MOL   C32937615   0.687   0.290   2.893  0.1836 -0.4914  0.3586
  104MOL   C33037616   0.800   0.399   2.864  0.2123  0.3836  0.5136
  104MOL   C33137617   0.941   0.352   2.919 -0.8388  0.0074  0.0784
  104MOL   H33237618   0.649   0.125   2.438  2.0259 -0.2943  1.5480
  104MOL   H33337619   0.531   0.080   2.551 -0.4043  0.5532  0.4033
  104MOL   H33437620   0.771   0.259   2.617  0.5701 -1.0039 -0.3121
  104MOL   H33537621   0.548   0.342   2.743 -0.3093 -1.3166 -2.6122
  104MOL   H33637622   0.532   0.184   2.796 -1.2153  0.9397  0.5422
  104MOL   H33737623   0.725   0.197   2.936  1.4355 -0.0108  0.3122
  104MOL   H33837624   0.617   0.331   2.966 -0.4242  2.1954 -1.6510
  104MOL   H33937625   0.825   0.441   2.766  2.6124  0.1057  0.9741
  104MOL   H34037626   0.770   0.490   2.915 -3.3369  0.8856 -2.2741
  104MOL   H34137627   0.938   0.325   3.024 -0.6657 -0.6858 -0.0922
  104MOL   H34237628   1.024   0.422   2.911 -1.2046  0.4713  0.3172
  104MOL   H34337629   0.968   0.259   2.869 -1.1001  0.3749 -0.7577
  104MOL   C34437630   0.766   0.060   2.682 -0.7004 -0.0025 -0.0515
  104MOL   C34537631   0.859   0.010   2.577  0.6729  0.4023 -0.1855
  104MOL   C34637632   0.947   7.618   2.612  0.1148 -0.0805  0.3597
  104MOL   C34737633   1.059   7.647   2.712 -0.7142 -0.0162 -1.3394
  104MOL   C34837634   1.131   7.515   2.740  0.1682  0.1711  0.1613
  104MOL   C34937635   1.227   7.505   2.860  0.4804 -0.3512 -0.7315
  104MOL   H35037636   0.821   0.075   2.775 -1.6465 -0.0229  0.5197
  104MOL   H35137637   0.688   7.712   2.698  0.6530 -1.3095  0.5462
  104MOL   H35237638   0.929   0.089   2.550 -0.0533  0.8255 -0.8531
  104MOL   H35337639   0.892   7.531   2.646 -0.1479 -0.7967 -1.8533
  104MOL   H35437640   0.990   7.590   2.516  1.3924 -0.2980  0.9851
  104MOL   H35537641   1.114   7.719   2.652  1.0160 -0.2963 -0.1324
  104MOL   H35637642   1.021   7.680   2.809  2.2198 -0.1199 -0.0906
  104MOL   H35737643   1.055   7.438   2.753  0.4014  0.0619  0.8981
  104MOL   H35837644   1.173   7.482   2.645 -3.3747 -2.0402 -0.7327
  104MOL   H35937645   1.272   7.407   2.870  1.0089 -0.0832 -0.4496
  104MOL   H36037646   1.305   7.582   2.859 -1.9099  2.1446 -1.8033
  104MOL   H36137647   1.169   7.516   2.952  2.9416 -2.8537  1.2150
  104MOL   H36237648   0.807   7.721   2.482  1.4133  0.5977 -0.6296
  105MOL     C137649   5.392   0.565   6.467 -0.3368 -0.2757  0.1104
  105MOL     C237650   5.402   0.410   6.490  0.6124 -0.2104 -0.1979
  105MOL     C337651   5.390   0.367   6.635  0.3938 -0.2067  0.2189
  105MOL     C437652   5.510   0.406   6.726  0.4749  0.2235  0.0305
  105MOL     C537653   5.507   0.330   6.861 -0.3317 -0.7776  0.4096
  105MOL     C637654   5.395   0.374   6.959  0.4886 -0.1739 -0.0367
  105MOL     H737655   5.357   0.597   6.368  3.1998 -0.1786 -1.1855
  105MOL     H837656   5.335   0.635   6.528 -0.4538 -0.6187  0.3919
  105MOL     H937657   5.312   0.366   6.448  0.3177 -0.2501  0.4727
  105MOL    H1037658   5.374   0.259   6.635 -1.0465 -0.0029 -0.6025
  105MOL    H1137659   5.303   0.410   6.685  1.1939  1.8482 -0.1294
  105MOL    H1237660   5.506   0.515   6.737 -1.0313  0.3809 -1.7919
  105MOL    H1337661   5.606   0.383   6.681  0.7309  1.5659 -0.1345
  105MOL    H1437662   5.492   0.225   6.839  1.4705 -1.2267  1.1976
  105MOL    H1537663   5.602   0.345   6.914 -0.6359 -0.8793  0.9810
  105MOL    H1637664   5.399   0.317   7.052 -0.1209  1.1974  0.8314
  105MOL    H1737665   5.296   0.356   6.919  0.0405 -2.1788  1.8865
  105MOL    H1837666   5.393   0.475   6.998 -0.1258 -0.2773  0.2066
  105MOL    H1937667   5.493   0.606   6.471 -0.3139 -0.4811  2.3604
  105MOL    C2037668   5.535   0.358   6.422 -0.2070 -0.1258 -0.5275
  105MOL    C2137669   5.557   0.210   6.413 -0.0936  0.3567  0.4833
  105MOL    C2237670   5.451   0.127   6.337  0.0785 -0.6225 -0.4237
  105MOL    C2337671   5.408   0.192   6.204  0.5858  0.2717  0.0731
  105MOL    C2437672   5.336   0.094   6.107 -0.0510 -0.0333 -0.4695
  105MOL    C2537673   5.281   0.153   5.973 -0.4278  0.1038 -0.4291
  105MOL    H2637674   5.616   0.402   6.479 -0.5603 -0.2075  0.0477
  105MOL    H2737675   5.540   0.399   6.321 -1.6814 -0.4033 -0.7243
  105MOL    H2837676   5.556   0.174   6.516  0.8884 -3.4266 -0.7646
  105MOL    H2937677   5.364   0.112   6.401 -0.6942 -0.1621 -1.3661
  105MOL    H3037678   5.494   0.027   6.326  1.1915 -0.0144 -1.7799
  105MOL    H3137679   5.506   0.209   6.158  0.4058 -1.8318 -1.1546
  105MOL    H3237680   5.353   0.286   6.206  1.2694  0.6436  2.2109
  105MOL    H3337681   5.406   0.013   6.084 -0.1085 -0.0046 -0.7504
  105MOL    H3437682   5.263   0.036   6.163 -1.2554  0.9361 -1.0115
  105MOL    H3537683   5.193   0.215   5.990  1.9776  3.1405  1.6603
  105MOL    H3637684   5.356   0.209   5.916 -0.1436  1.6651  1.4386
  105MOL    H3737685   5.244   0.075   5.906  2.1855 -2.9680  1.5498
  105MOL    C3837686   5.702   0.174   6.364  0.0247 -0.3509  0.2754
  105MOL    C3937687   5.818   0.209   6.458  0.7555 -0.5045 -0.1789
  105MOL    C4037688   5.818   0.110   6.573 -0.5456 -1.0667 -0.8713
  105MOL    C4137689   5.903   0.168   6.694  0.5438  0.4260  0.1684
  105MOL    C4237690   5.911   0.063   6.820  0.1954 -1.0143  0.4414
  105MOL    C4337691   6.015   0.111   6.926 -0.8937 -0.0926 -0.2664
  105MOL    H4437692   5.721   0.213   6.264  2.2427 -0.1513  0.7428
  105MOL    H4537693   5.712   0.067   6.344 -0.1004 -0.3350  0.1222
  105MOL    H4637694   5.805   0.305   6.508 -1.7451 -2.3396  2.8283
  105MOL    H4737695   5.715   0.097   6.605 -1.2099  1.7613 -1.7080
  105MOL    H4837696   5.842   0.008   6.545 -0.2597 -1.3872  0.5290
  105MOL    H4937697   6.005   0.184   6.661  0.1956 -1.2638 -1.8457
  105MOL    H5037698   5.861   0.264   6.725 -0.7025  0.6314 -2.0722
  105MOL    H5137699   5.813   0.051   6.866 -0.0888 -2.7977 -0.5976
  105MOL    H5237700   5.940   7.689   6.792 -0.5250 -0.7153 -1.4565
  105MOL    H5337701   6.000   0.209   6.971  0.5412  0.4575 -0.9569
  105MOL    H5437702   6.119   0.110   6.892 -0.5187 -0.2637  0.8543
  105MOL    H5537703   6.012   0.047   7.014  0.9542 -1.5008 -1.1664
  105MOL    C5637704   5.954   0.207   6.383  0.4359  0.1458 -0.4084
  105MOL    C5737705   5.977   0.331   6.289 -0.3233  0.1257 -0.4325
  105MOL    C5837706   6.077   0.298   6.176 -0.7267 -0.3353  0.5271
  105MOL    C5937707   6.224   0.277   6.219 -0.4323  0.7346  0.5018
  105MOL    C6037708   6.329   0.249   6.108  0.3707  0.1910  0.2373
  105MOL    C6137709   6.353   0.380   6.023  0.1405 -0.4637 -0.0793
  105MOL    H6237710   6.036   0.201   6.455 -0.4936  0.7107  0.7190
  105MOL    H6337711   5.951   0.119   6.319 -1.1235 -0.1295  0.0344
  105MOL    H6437712   5.878   0.342   6.245 -0.3254  0.7407 -0.2754
  105MOL    H6537713   6.037   0.212   6.123 -0.9458  0.1584 -0.1065
  105MOL    H6637714   6.065   0.379   6.104 -2.5703 -0.0547  1.1369
  105MOL    H6737715   6.222   0.193   6.288 -2.2135 -0.8673 -1.4237
  105MOL    H6837716   6.257   0.369   6.267 -0.7232  1.5744 -0.8747
  105MOL    H6937717   6.424   0.208   6.145 -0.3981 -1.6305  0.2696
  105MOL    H7037718   6.297   0.171   6.039  2.4358  0.0067 -0.5602
  105MOL    H7137719   6.381   0.461   6.091  0.6556 -1.7722  1.3061
  105MOL    H7237720   6.421   0.360   5.941  0.9845  2.4848 -0.1571
  105MOL    H7337721   6.259   0.418   5.983 -0.6383  0.3496  2.3981
  105MOL    C7437722   6.008   0.462   6.365 -0.4616 -0.0773 -0.3000
  105MOL    C7537723   6.032   0.590   6.280 -0.2103 -0.0704  0.3112
  105MOL    C7637724   5.914   0.633   6.191  1.1111  0.0071 -0.2912
  105MOL    C7737725   5.773   0.648   6.268  0.0398  0.2836 -0.1363
  105MOL    C7837726   5.669   0.721   6.190  0.1259  0.1774  0.6202
  105MOL    C7937727   5.607   0.634   6.072  0.4316 -0.0535 -0.0097
  105MOL    H8037728   5.926   0.485   6.433 -2.0300 -2.4959 -1.3342
  105MOL    H8137729   6.093   0.452   6.433  0.1114 -0.5105 -1.0784
  105MOL    H8237730   6.115   0.578   6.211  0.4839  2.0867  0.7461
  105MOL    H8337731   5.942   0.721   6.133 -1.9156  0.7886 -0.6552
  105MOL    H8437732   5.906   0.558   6.113 -0.5126 -0.2417  0.0993
  105MOL    H8537733   5.743   0.546   6.292  0.2323  0.2122 -0.2033
  105MOL    H8637734   5.802   0.698   6.361  2.4547  0.4896 -0.9664
  105MOL    H8737735   5.722   0.800   6.135 -1.7167 -0.3164 -1.9797
  105MOL    H8837736   5.587   0.771   6.241  0.5028 -0.5332  1.9413
  105MOL    H8937737   5.536   0.688   6.009  0.3198 -1.6572 -1.2661
  105MOL    H9037738   5.686   0.616   5.999  1.3932 -2.1182  1.5118
  105MOL    H9137739   5.573   0.535   6.101  3.4586 -1.0164  0.4502
  105MOL    C9237740   6.090   0.718   6.356 -0.3043 -0.0214  0.1853
  105MOL    C9337741   6.226   0.698   6.437 -0.3310  0.0617 -0.2383
  105MOL    C9437742   6.354   0.667   6.355 -0.4046  0.6583  0.1162
  105MOL    C9537743   6.394   0.783   6.265 -0.5888 -0.5242  0.0296
  105MOL    C9637744   6.522   0.756   6.177 -0.4532 -0.0180  0.1531
  105MOL    C9737745   6.566   0.871   6.087 -0.0433  0.4898 -0.4727
  105MOL    H9837746   6.092   0.809   6.296 -3.5248  0.1565  0.2934
  105MOL    H9937747   6.003   0.746   6.416 -0.8821 -0.3775 -0.4860
  105MOL   H10037748   6.225   0.600   6.485  1.1853  0.0143 -0.2856
  105MOL   H10137749   6.327   0.581   6.295 -0.2782  0.6812  0.0288
  105MOL   H10237750   6.424   0.632   6.430 -0.6981  0.5956  0.3644
  105MOL   H10337751   6.314   0.812   6.199 -0.7162  0.8944  0.7983
  105MOL   H10437752   6.407   0.878   6.316  2.4463 -0.1064 -1.4233
  105MOL   H10537753   6.598   0.741   6.254  1.1612 -0.9279 -1.5702
  105MOL   H10637754   6.518   0.657   6.130 -0.5761 -1.0991  2.3751
  105MOL   H10737755   6.490   0.889   6.012 -1.8981  2.2112  1.7594
  105MOL   H10837756   6.565   0.968   6.137 -2.4862 -0.4821  1.4607
  105MOL   H10937757   6.650   0.837   6.026 -0.0248 -0.7059  0.1905
  105MOL   C11037758   6.244   0.805   6.543 -0.1491  0.7034  0.5654
  105MOL   C11137759   6.132   0.833   6.647  0.1252  0.2605 -0.4145
  105MOL   C11237760   6.174   0.933   6.749  0.6058 -0.6733  0.0489
  105MOL   C11337761   6.265   0.885   6.863  0.2095  0.3245  0.1135
  105MOL   C11437762   6.304   0.990   6.957 -0.3481  0.5347 -0.8490
  105MOL   C11537763   6.186   1.052   7.027  0.5084  0.0993  0.0444
  105MOL   H11637764   6.335   0.783   6.599 -0.3815 -6.3433 -1.3691
  105MOL   H11737765   6.270   0.898   6.492 -0.5949  0.9995  0.8665
  105MOL   H11837766   6.045   0.878   6.599 -0.9663 -0.5932  0.7191
  105MOL   H11937767   6.089   0.981   6.796  1.1575  1.5074 -1.1281
  105MOL   H12037768   6.234   1.001   6.689 -1.3794  1.9097  0.9169
  105MOL   H12137769   6.350   0.830   6.822 -0.4419 -0.2200 -0.5182
  105MOL   H12237770   6.207   0.815   6.922 -1.4020  1.3478 -0.2112
  105MOL   H12337771   6.362   1.069   6.909  1.4306 -1.0468 -1.3841
  105MOL   H12437772   6.363   0.947   7.038 -0.0545  1.1230 -0.7483
  105MOL   H12537773   6.106   1.107   6.978  0.1493 -0.2283  0.2592
  105MOL   H12637774   6.125   0.975   7.074  0.9396 -0.1349  0.2220
  105MOL   H12737775   6.225   1.116   7.106 -0.5386  1.7982 -0.7860
  105MOL   C12837776   6.068   0.710   6.709  0.4329 -0.1425  0.4070
  105MOL   C12937777   5.947   0.730   6.803  0.3041  0.2239  0.4139
  105MOL   C13037778   5.917   0.593   6.875 -0.6022  0.7584 -0.1139
  105MOL   C13137779   6.018   0.554   6.985 -0.2947  0.0461  0.0339
  105MOL   C13237780   5.985   0.618   7.120 -0.3494 -0.6024  0.6894
  105MOL   C13337781   6.101   0.606   7.214 -0.4550  0.3141  0.2837
  105MOL   H13437782   6.144   0.663   6.772  0.4272 -1.5068 -0.5678
  105MOL   H13537783   6.048   0.629   6.639 -0.9842 -1.6253  2.4602
  105MOL   H13637784   5.953   0.799   6.887 -3.2213  1.8278 -0.5775
  105MOL   H13737785   5.819   0.592   6.921 -0.1699  0.6141  0.8117
  105MOL   H13837786   5.911   0.512   6.802 -1.7733 -0.6859  1.5431
  105MOL   H13937787   6.116   0.597   6.962 -0.2197 -0.5844 -0.8309
  105MOL   H14037788   6.030   0.447   7.003  2.3228  0.2827 -0.0339
  105MOL   H14137789   5.956   0.721   7.104  0.3073 -0.2272  1.8487
  105MOL   H14237790   5.902   0.562   7.164 -1.6094  0.6899 -0.0146
  105MOL   H14337791   6.128   0.501   7.221 -1.5409  0.1924  3.0287
  105MOL   H14437792   6.075   0.635   7.315  0.5445  0.7132  0.4333
  105MOL   H14537793   6.189   0.665   7.188 -0.3783 -0.5545 -1.5481
  105MOL   C14637794   5.819   0.755   6.711  0.2383 -0.1831  0.5965
  105MOL   C14737795   5.730   0.867   6.770  0.4136  0.0095  0.0988
  105MOL   C14837796   5.595   0.879   6.698  0.2628  0.1607 -0.5031
  105MOL   C14937797   5.602   0.920   6.552 -0.2619 -0.3596 -0.1319
  105MOL   C15037798   5.466   0.959   6.494  0.6633 -0.6162 -0.3049
  105MOL   C15137799   5.418   1.096   6.540  0.0443  0.1725 -0.5907
  105MOL   H15237800   5.845   0.784   6.609 -0.0544 -2.7799 -0.2352
  105MOL   H15337801   5.769   0.660   6.695  0.9176 -0.6624  1.2934
  105MOL   H15437802   5.698   0.840   6.871 -2.5929 -0.9265 -1.0558
  105MOL   H15537803   5.537   0.953   6.754 -0.5784  0.7145 -2.0638
  105MOL   H15637804   5.544   0.785   6.718  1.2136  0.3588  3.1995
  105MOL   H15737805   5.670   1.003   6.538 -1.7489  0.9270  0.1360
  105MOL   H15837806   5.645   0.838   6.494  0.6706 -0.7093  1.0360
  105MOL   H15937807   5.393   0.884   6.524  3.4167 -1.7330  3.9533
  105MOL   H16037808   5.470   0.948   6.385  2.2672 -0.4248 -0.2709
  105MOL   H16137809   5.420   1.099   6.649 -0.5887  1.1320 -0.5958
  105MOL   H16237810   5.484   1.176   6.506 -1.1110  0.5334 -2.0149
  105MOL   H16337811   5.319   1.126   6.509 -0.3686  1.3818  1.7501
  105MOL   C16437812   5.804   1.001   6.781 -0.5613 -0.4774  0.3953
  105MOL   C16537813   5.738   1.129   6.840 -0.0768 -0.7777  1.2207
  105MOL   C16637814   5.648   1.103   6.968 -0.2301 -0.1597 -0.3279
  105MOL   C16737815   5.715   1.028   7.088  0.1847 -0.1282  0.2724
  105MOL   C16837816   5.619   1.000   7.203  0.3076  0.3434  0.6779
  105MOL   C16937817   5.529   0.875   7.186  0.4478 -0.6015  0.7715
  105MOL   H17037818   5.887   0.984   6.850  0.3267  2.1722  0.0430
  105MOL   H17137819   5.854   1.022   6.686  2.9924 -2.4085  1.7516
  105MOL   H17237820   5.671   1.161   6.760  2.0033 -0.4198 -0.4042
  105MOL   H17337821   5.568   1.044   6.923  0.7358 -0.8146 -1.2330
  105MOL   H17437822   5.603   1.198   6.997 -0.6650 -0.4535 -0.0507
  105MOL   H17537823   5.799   1.086   7.125 -0.6313 -0.7088  3.1981
  105MOL   H17637824   5.764   0.938   7.050 -0.4891 -0.3812 -0.0073
  105MOL   H17737825   5.561   1.089   7.224  1.9399  1.5168  0.3580
  105MOL   H17837826   5.685   0.981   7.288 -0.3282 -1.2583  0.8413
  105MOL   H17937827   5.576   0.791   7.235 -0.5538 -1.3822  0.4263
  105MOL   H18037828   5.528   0.848   7.080  0.7139 -0.9017  0.8443
  105MOL   H18137829   5.427   0.897   7.219  0.9723  2.4712  0.4915
  105MOL   C18237830   5.832   1.244   6.869  0.8739  0.2490  0.6929
  105MOL   C18337831   5.940   1.273   6.763 -0.2659 -0.2463 -0.2213
  105MOL   C18437832   6.049   1.374   6.808 -0.0674  0.3034  0.2782
  105MOL   C18537833   5.994   1.513   6.828  0.6291 -0.1132  0.0083
  105MOL   C18637834   6.093   1.595   6.911  0.0256 -0.0304 -0.1319
  105MOL   C18737835   6.035   1.728   6.960 -0.1118 -0.8143  0.4333
  105MOL   H18837836   5.782   1.338   6.891 -1.3772 -0.9097  0.6065
  105MOL   H18937837   5.882   1.233   6.965 -1.1476 -0.0594  1.7306
  105MOL   H19037838   5.998   1.183   6.747  0.5263  0.2386 -0.1289
  105MOL   H19137839   6.092   1.347   6.905 -1.3960  2.0117  1.3682
  105MOL   H19237840   6.136   1.369   6.743 -2.5678  2.4829 -3.3791
  105MOL   H19337841   5.897   1.510   6.878 -0.9422  1.1604 -2.8405
  105MOL   H19437842   5.982   1.565   6.733 -0.7496 -0.3460  0.0478
  105MOL   H19537843   6.192   1.608   6.868 -0.4929  0.4482 -1.2096
  105MOL   H19637844   6.117   1.538   7.001  3.1753  0.3434 -0.6951
  105MOL   H19737845   6.048   1.806   6.884 -0.7176 -0.5659  0.5789
  105MOL   H19837846   6.072   1.759   7.058  0.0010 -2.6197  0.9619
  105MOL   H19937847   5.928   1.724   6.981  0.1483 -0.0005  1.9755
  105MOL   C20037848   5.866   1.320   6.631  0.1839  0.3863  0.1697
  105MOL   C20137849   5.948   1.314   6.498 -0.4153  0.1394  0.7930
  105MOL   C20237850   5.885   1.236   6.380  0.3002  1.0212  0.1188
  105MOL   C20337851   5.742   1.283   6.346  0.0985  0.1327 -0.3126
  105MOL   C20437852   5.672   1.223   6.221  0.7871  0.0547 -0.4577
  105MOL   C20537853   5.547   1.299   6.173 -0.3324  0.6805  0.2638
  105MOL   H20637854   5.802   1.407   6.645  0.8373  1.1191 -1.2845
  105MOL   H20737855   5.795   1.239   6.613  1.8688 -0.8543 -1.0098
  105MOL   H20837856   6.044   1.268   6.517 -2.0415 -3.6471  0.3142
  105MOL   H20937857   5.881   1.128   6.395 -1.5240  1.1596  0.8171
  105MOL   H21037858   5.949   1.240   6.292  0.1866  1.0644  0.0392
  105MOL   H21137859   5.747   1.391   6.332 -1.4195  0.3174  0.4832
  105MOL   H21237860   5.683   1.264   6.436 -0.6593  2.0788 -0.3868
  105MOL   H21337861   5.637   1.120   6.233  1.5750  0.0672  2.0513
  105MOL   H21437862   5.744   1.220   6.139  0.5342 -0.4139 -0.6707
  105MOL   H21537863   5.573   1.393   6.125  1.9189 -0.7167 -1.3258
  105MOL   H21637864   5.512   1.238   6.089  0.3176 -1.5665  1.5902
  105MOL   H21737865   5.468   1.302   6.248  2.0747  1.0500  2.8365
  105MOL   C21837866   5.991   1.458   6.449  0.7583  0.5457  0.1029
  105MOL   C21937867   6.064   1.471   6.312  0.7407  0.0986 -0.3507
  105MOL   C22037868   6.180   1.374   6.300  0.1690 -0.3613  0.1402
  105MOL   C22137869   6.252   1.379   6.164 -0.4514 -0.3940  0.2976
  105MOL   C22237870   6.316   1.234   6.136 -0.2407  0.4376 -0.2897
  105MOL   C22337871   6.398   1.236   6.004  0.2113  0.3876 -0.0521
  105MOL   H22437872   5.900   1.519   6.446  0.3015 -0.0851  0.8732
  105MOL   H22537873   6.047   1.501   6.531  1.6309 -0.4180  0.0143
  105MOL   H22637874   6.003   1.429   6.232 -0.1374 -1.0927  0.9345
  105MOL   H22737875   6.147   1.273   6.323 -1.9927  0.9513  3.0800
  105MOL   H22837876   6.259   1.395   6.373  2.1782 -3.3946 -1.0195
  105MOL   H22937877   6.326   1.459   6.166 -2.2469  1.2957  0.5899
  105MOL   H23037878   6.176   1.399   6.089 -0.3033 -2.9036 -0.5928
  105MOL   H23137879   6.388   1.224   6.218 -0.4193  0.4880 -0.1256
  105MOL   H23237880   6.241   1.156   6.141 -1.0937  1.2977  0.7058
  105MOL   H23337881   6.455   1.147   5.980  0.6468  0.9182 -1.0188
  105MOL   H23437882   6.460   1.326   6.007 -1.2827  1.5093 -1.4725
  105MOL   H23537883   6.327   1.254   5.923 -1.1225  0.4459  1.1193
  105MOL   C23637884   6.117   1.616   6.293 -0.0832  0.1425  0.2588
  105MOL   C23737885   6.009   1.719   6.248  0.3056  0.2080  0.7185
  105MOL   C23837886   5.956   1.704   6.108  0.2671  0.1566  1.2875
  105MOL   C23937887   5.820   1.770   6.079  0.2237 -0.0348 -0.2544
  105MOL   C24037888   5.766   1.718   5.941 -0.2778 -0.0783  0.5713
  105MOL   C24137889   5.646   1.792   5.898 -0.3087  0.0767 -0.5520
  105MOL   H24237890   6.152   1.653   6.389  0.5971  0.3450 -0.0672
  105MOL   H24337891   6.196   1.615   6.218 -1.9315 -1.7495 -1.7356
  105MOL   H24437892   5.925   1.700   6.315 -1.0978 -1.0940 -1.3534
  105MOL   H24537893   6.028   1.735   6.032 -0.8057  1.4044  0.7601
  105MOL   H24637894   5.932   1.598   6.100 -0.2315  0.2892  1.0321
  105MOL   H24737895   5.826   1.879   6.073  0.3244  0.0067  0.6453
  105MOL   H24837896   5.750   1.742   6.157  0.1189  0.1274 -0.2887
  105MOL   H24937897   5.846   1.729   5.868 -2.1374 -0.9140 -1.6498
  105MOL   H25037898   5.758   1.611   5.928  1.0338 -0.2175  0.8476
  105MOL   H25137899   5.620   1.771   5.794  0.4457  2.0656 -1.1594
  105MOL   H25237900   5.560   1.762   5.958  1.5410 -1.1821  1.5697
  105MOL   H25337901   5.671   1.898   5.905 -0.3503  0.1638 -1.6650
  105MOL   C25437902   6.068   1.860   6.264  0.3177  1.1038  0.5126
  105MOL   C25537903   6.075   1.928   6.402 -0.1988  0.1391  0.0110
  105MOL   C25637904   5.944   1.933   6.482  0.1719  0.1918  0.1861
  105MOL   C25737905   5.826   2.003   6.412 -0.2836  0.7950 -0.3946
  105MOL   C25837906   5.691   1.973   6.486  0.2594 -0.2368  0.4710
  105MOL   C25937907   5.626   1.842   6.451 -0.6948  0.2536  0.1505
  105MOL   H26037908   6.005   1.930   6.209 -1.0126 -0.2139  0.3220
  105MOL   H26137909   6.165   1.857   6.215  0.1786 -0.3362  0.3024
  105MOL   H26237910   6.150   1.864   6.449 -0.7320  1.0980  2.2644
  105MOL   H26337911   5.910   1.837   6.519  1.3884 -0.5877 -0.6734
  105MOL   H26437912   5.974   1.976   6.578  1.2967 -1.3164  0.5278
  105MOL   H26537913   5.852   2.109   6.402  0.5845  0.7928  1.6091
  105MOL   H26637914   5.825   1.976   6.306 -2.5838  1.7135 -0.6430
  105MOL   H26737915   5.624   2.056   6.461 -1.6412 -1.8114  0.2856
  105MOL   H26837916   5.699   1.976   6.594  1.2610 -1.9659  0.4587
  105MOL   H26937917   5.589   1.845   6.349  0.6599  0.7691 -0.3463
  105MOL   H27037918   5.546   1.840   6.524  0.6094 -0.0908  1.6018
  105MOL   H27137919   5.695   1.758   6.456 -1.9416 -0.7852 -0.0743
  105MOL   C27237920   6.136   2.071   6.394 -0.1455 -0.1204 -0.2492
  105MOL   C27337921   6.221   2.112   6.519  1.1511  0.1599 -0.3555
  105MOL   C27437922   6.175   2.242   6.580 -0.4580 -0.1038  0.1830
  105MOL   C27537923   6.051   2.236   6.668 -0.5320  0.0671 -0.2558
  105MOL   C27637924   6.063   2.156   6.796  0.0420 -0.3604 -0.0709
  105MOL   C27737925   5.940   2.169   6.884 -0.2285  0.5671  0.4768
  105MOL   H27837926   6.192   2.085   6.301  0.0329 -0.0044 -0.1227
  105MOL   H27937927   6.059   2.147   6.384  1.2482  1.1999 -1.1504
  105MOL   H28037928   6.196   2.031   6.588  0.7115 -0.9714 -1.8284
  105MOL   H28137929   6.165   2.316   6.501 -0.6209 -1.1104 -0.7412
  105MOL   H28237930   6.260   2.274   6.641  0.0151 -1.2550  0.1299
  105MOL   H28337931   5.965   2.208   6.607 -1.7545  1.6430  0.7031
  105MOL   H28437932   6.016   2.332   6.705  0.7514 -0.2981  1.9797
  105MOL   H28537933   6.076   2.050   6.776 -2.3769 -0.4176 -1.5665
  105MOL   H28637934   6.148   2.194   6.852 -0.8255  1.3027  0.1556
  105MOL   H28737935   5.908   2.270   6.912 -0.3089  0.3017  1.3833
  105MOL   H28837936   5.856   2.115   6.842 -0.1572  0.0496  0.9863
  105MOL   H28937937   5.970   2.123   6.979 -0.2893 -0.6737 -0.0968
  105MOL   C29037938   6.371   2.104   6.481  0.1708 -0.4571  0.3562
  105MOL   C29137939   6.467   2.080   6.597  0.1511  0.0834  0.4061
  105MOL   C29237940   6.548   1.951   6.592 -0.0826  0.8037 -0.6997
  105MOL   C29337941   6.470   1.824   6.604 -0.0390  0.2262 -0.0396
  105MOL   C29437942   6.555   1.695   6.618 -0.4124 -0.5507 -0.0274
  105MOL   C29537943   6.462   1.577   6.605 -0.8573  0.4611  0.1028
  105MOL   H29637944   6.399   2.189   6.418  0.6329 -0.2391  0.8536
  105MOL   H29737945   6.373   2.020   6.412  1.5757  0.8315 -1.1915
  105MOL   H29837946   6.405   2.076   6.686  1.7902  1.9996  1.6876
  105MOL   H29937947   6.629   1.956   6.665  0.3652 -2.2460 -0.9331
  105MOL   H30037948   6.597   1.947   6.495  1.0052 -0.6158 -0.1029
  105MOL   H30137949   6.410   1.839   6.694  0.3999 -3.2570  0.8865
  105MOL   H30237950   6.393   1.825   6.527  0.1791 -0.5870 -0.2678
  105MOL   H30337951   6.598   1.698   6.718 -1.9734  0.0359  0.6370
  105MOL   H30437952   6.627   1.690   6.536 -1.3633 -1.8794 -0.8113
  105MOL   H30537953   6.402   1.582   6.514  0.7380  1.8823 -0.9215
  105MOL   H30637954   6.383   1.564   6.678 -1.6365 -1.6795 -1.0663
  105MOL   H30737955   6.517   1.483   6.603 -2.6011 -0.5702 -0.9539
  105MOL   C30837956   6.562   2.199   6.610 -0.5210  0.3543  0.0427
  105MOL   C30937957   6.625   2.222   6.748 -0.1362  0.4459 -0.6226
  105MOL   C31037958   6.510   2.276   6.847 -0.1734  0.2982  0.6675
  105MOL   C31137959   6.446   2.415   6.833 -0.1939  0.1286 -0.2366
  105MOL   C31237960   6.336   2.431   6.943  0.0200  0.1662 -0.3397
  105MOL   C31337961   6.390   2.475   7.075  0.1766 -0.1567 -0.7729
  105MOL   H31437962   6.647   2.184   6.543 -1.7142 -1.1015 -1.1942
  105MOL   H31537963   6.508   2.287   6.577 -0.7328  1.1796  2.4580
  105MOL   H31637964   6.669   2.131   6.788  0.0669 -0.3384 -2.5429
  105MOL   H31737965   6.559   2.277   6.944  1.1827  1.2522 -0.0043
  105MOL   H31837966   6.430   2.202   6.849 -1.1699  1.3962  2.2798
  105MOL   H31937967   6.402   2.431   6.734  0.5630 -1.2698 -0.8160
  105MOL   H32037968   6.519   2.496   6.835  0.8687 -0.8247 -0.0369
  105MOL   H32137969   6.257   2.501   6.917 -0.1377 -0.5085 -1.7720
  105MOL   H32237970   6.287   2.335   6.958  0.2887  0.1592  0.5117
  105MOL   H32337971   6.468   2.409   7.113  0.3174  0.6146  0.2950
  105MOL   H32437972   6.308   2.474   7.147  0.6960 -3.1065 -0.1774
  105MOL   H32537973   6.422   2.579   7.074  3.2092 -0.9555  2.6021
  105MOL   C32637974   6.742   2.325   6.732  0.0577 -0.1393 -0.2000
  105MOL   C32737975   6.869   2.257   6.680  0.0086  0.4156  0.5109
  105MOL   C32837976   6.952   2.347   6.591 -0.3384 -0.6473 -0.3705
  105MOL   C32937977   6.886   2.355   6.448  0.5979 -0.3761  0.4622
  105MOL   C33037978   6.949   2.460   6.364 -0.3781 -0.1914 -0.6236
  105MOL   C33137979   6.856   2.530   6.266 -0.2406  0.3023  0.0888
  105MOL   H33237980   6.770   2.360   6.831 -1.2614  0.0373  0.1169
  105MOL   H33337981   6.723   2.416   6.675  1.1299  1.1744  1.5003
  105MOL   H33437982   6.843   2.176   6.613  0.3107 -0.5135  1.5143
  105MOL   H33537983   6.964   2.437   6.653 -3.0238 -0.4088 -0.1459
  105MOL   H33637984   7.047   2.294   6.592 -0.2679 -0.5119  0.7054
  105MOL   H33737985   6.785   2.393   6.464 -0.2494 -2.8855  1.2900
  105MOL   H33837986   6.882   2.255   6.405  1.2473 -0.5971  0.8970
  105MOL   H33937987   6.985   2.534   6.436 -2.7342 -0.5395  0.9891
  105MOL   H34037988   7.036   2.410   6.323 -0.0462  0.6343 -0.9355
  105MOL   H34137989   6.782   2.586   6.323  1.4086  2.8004 -0.1370
  105MOL   H34237990   6.802   2.475   6.189  2.7208 -0.1163 -1.7468
  105MOL   H34337991   6.927   2.595   6.216 -2.1757  1.4371 -1.2387
  105MOL   C34437992   6.950   2.208   6.793 -0.5557 -0.1034 -0.0126
  105MOL   C34537993   7.029   2.078   6.756  0.3857  0.9527 -0.1835
  105MOL   C34637994   7.139   2.047   6.861  0.0369 -0.1349  0.3779
  105MOL   C34737995   7.243   1.941   6.823  0.1912  1.0475  0.1854
  105MOL   C34837996   7.316   1.865   6.930 -0.3083  0.4086  0.2676
  105MOL   C34937997   7.414   1.943   7.014 -0.1217 -0.9694  0.3498
  105MOL   H35037998   7.017   2.285   6.830 -1.3407  0.4039  0.3683
  105MOL   H35137999   6.891   2.204   6.885  1.0594 -1.2315  1.0055
  105MOL   H35238000   7.073   2.099   6.658 -0.7281 -0.4110 -1.0012
  105MOL   H35338001   7.201   2.135   6.874  0.7828 -1.0011  2.9566
  105MOL   H35438002   7.092   2.023   6.957 -0.5165 -2.1907 -0.3803
  105MOL   H35538003   7.197   1.862   6.764  2.4558 -0.2045  0.0538
  105MOL   H35638004   7.314   1.969   6.745 -2.7490 -0.2786 -3.1219
  105MOL   H35738005   7.244   1.822   7.000  2.8639 -1.5477  2.4705
  105MOL   H35838006   7.375   1.778   6.902  0.0016  1.2375 -1.7997
  105MOL   H35938007   7.444   1.882   7.099 -2.1912 -1.3307  0.8719
  105MOL   H36038008   7.504   1.967   6.958  0.8908  1.3120  2.8479
  105MOL   H36138009   7.366   2.034   7.050 -0.8172 -0.7696 -1.0524
  105MOL   H36238010   6.955   2.000   6.734  0.2296  1.3087 -0.9611
  106MOL     C138011   1.387   0.036   7.031  0.0186  0.7529 -0.0976
  106MOL     C238012   1.239   0.066   7.000 -0.0429  1.0206  0.6575
  106MOL     C338013   1.220   0.214   6.954  0.0569 -0.4183 -0.3003
  106MOL     C438014   1.304   0.264   6.838 -0.1026  0.0206 -0.3631
  106MOL     C538015   1.253   0.390   6.768  0.0467  0.5833 -0.6406
  106MOL     C638016   1.305   0.400   6.633  0.0498 -0.5437  0.4981
  106MOL     H738017   1.402   7.655   7.039  2.1411  0.9726 -0.6939
  106MOL     H838018   1.460   0.073   6.958 -0.6862  1.8009 -0.2781
  106MOL     H938019   1.207   0.000   6.919  0.0730  0.1563  1.3046
  106MOL    H1038020   1.246   0.285   7.033  0.5566  0.6258 -1.3796
  106MOL    H1138021   1.118   0.236   6.921  0.5532  1.7952 -0.4294
  106MOL    H1238022   1.300   0.184   6.763  1.4081 -1.5593  1.1832
  106MOL    H1338023   1.406   0.265   6.876  0.0879 -1.0480 -0.8205
  106MOL    H1438024   1.144   0.385   6.759  0.1485  1.7503 -2.9554
  106MOL    H1538025   1.272   0.481   6.824  2.4670  0.0475 -0.5519
  106MOL    H1638026   1.302   0.313   6.567  1.0524 -0.7269  0.6935
  106MOL    H1738027   1.410   0.423   6.647  0.0737 -0.0804 -0.3665
  106MOL    H1838028   1.247   0.484   6.594 -1.8429 -0.7018  2.8436
  106MOL    H1938029   1.417   0.077   7.127 -1.2546  1.9765 -0.2243
  106MOL    C2038030   1.150   0.027   7.123  0.8571 -0.1217 -0.7312
  106MOL    C2138031   0.997   0.028   7.104 -0.3442 -0.0782  0.3386
  106MOL    C2238032   0.955   7.635   7.011 -0.2419  0.0868 -0.1402
  106MOL    C2338033   0.809   7.586   7.026 -0.2788  0.0233 -0.3163
  106MOL    C2438034   0.765   7.491   6.921  0.7857  0.5794  0.6418
  106MOL    C2538035   0.635   7.414   6.955  0.4993 -0.0976  0.0615
  106MOL    H2638036   1.171   0.107   7.195 -0.6817  0.5691 -1.0511
  106MOL    H2738037   1.188   7.673   7.185 -0.7155 -0.4085 -0.1201
  106MOL    H2838038   0.965   0.122   7.059 -0.7273 -0.2124  0.3304
  106MOL    H2938039   1.016   7.550   7.042 -1.2770  0.4331  3.0804
  106MOL    H3038040   0.970   7.662   6.907 -1.2846  0.0237 -0.3154
  106MOL    H3138041   0.737   7.668   7.017 -1.3048 -0.9909 -1.5236
  106MOL    H3238042   0.786   7.552   7.127 -2.5301 -1.5217 -1.2771
  106MOL    H3338043   0.767   7.549   6.829 -0.2818  0.1139  0.3088
  106MOL    H3438044   0.832   7.410   6.892  0.3115  0.5475 -0.4023
  106MOL    H3538045   0.605   7.370   6.860 -1.4053  0.5782  0.3272
  106MOL    H3638046   0.665   7.337   7.026  0.2358 -1.8751 -1.7119
  106MOL    H3738047   0.548   7.468   6.991  1.8861  3.0773 -1.1228
  106MOL    C3838048   0.923   0.043   7.241  0.2762  0.0659 -0.1939
  106MOL    C3938049   0.947   0.173   7.329 -0.1490 -0.1951  1.2240
  106MOL    C4038050   0.911   0.306   7.252  0.4695  0.0808  0.0208
  106MOL    C4138051   0.768   0.315   7.204 -0.0388 -0.4485  0.2036
  106MOL    C4238052   0.750   0.432   7.108 -0.0280  0.2531 -0.0399
  106MOL    C4338053   0.610   0.489   7.092  0.0775 -0.0501 -0.2360
  106MOL    H4438054   0.950   7.680   7.297  0.3492 -1.6008 -2.8222
  106MOL    H4538055   0.815   0.031   7.237  0.2525 -0.6498  2.0543
  106MOL    H4638056   1.054   0.181   7.347  0.2003 -0.4504 -0.6046
  106MOL    H4738057   0.943   0.386   7.319  1.1387  0.3302 -0.5957
  106MOL    H4838058   0.975   0.310   7.164  0.4126  1.9560  0.0586
  106MOL    H4938059   0.735   0.222   7.158 -1.0246 -0.0960  0.1933
  106MOL    H5038060   0.707   0.326   7.294  1.1610  0.1152  0.9597
  106MOL    H5138061   0.823   0.510   7.133 -0.0620 -0.1249  1.2625
  106MOL    H5238062   0.786   0.393   7.013 -0.1729 -2.1336  0.8618
  106MOL    H5338063   0.544   0.412   7.052 -0.2828  1.4865 -2.7193
  106MOL    H5438064   0.612   0.560   7.009 -2.6426 -0.3500 -0.6047
  106MOL    H5538065   0.576   0.549   7.176  2.3229  1.1073 -0.1193
  106MOL    C5638066   0.885   0.153   7.466  0.4396 -0.5166 -0.2792
  106MOL    C5738067   0.899   0.268   7.578 -0.1512  0.6175  0.5382
  106MOL    C5838068   1.045   0.304   7.608 -0.2120 -0.3438 -0.1464
  106MOL    C5938069   1.129   0.202   7.682 -0.0574  0.6496 -0.5073
  106MOL    C6038070   1.258   0.266   0.007 -0.3962 -0.1474 -0.2041
  106MOL    C6138071   1.360   0.169   0.070  0.5983  0.1672 -0.1675
  106MOL    H6238072   0.780   0.134   7.446 -0.1146  0.7044  1.3609
  106MOL    H6338073   0.927   0.060   7.504  1.1347 -0.3597 -0.6517
  106MOL    H6438074   0.865   0.358   7.526 -1.1012 -0.6365 -1.0221
  106MOL    H6538075   1.109   0.327   7.523  1.6268  1.2300  1.6247
  106MOL    H6638076   1.031   0.388   7.676 -2.3241 -1.1839  0.5027
  106MOL    H6738077   1.141   0.112   7.621 -0.7417  0.4612 -0.3726
  106MOL    H6838078   1.073   0.159   0.038  0.4325 -1.2804 -1.1488
  106MOL    H6938079   1.316   0.298   7.648 -0.0558  1.9511  0.7711
  106MOL    H7038080   1.237   0.356   0.066 -0.1231 -0.8255  0.9537
  106MOL    H7138081   1.320   0.144   0.168 -1.8864 -0.6244 -1.3317
  106MOL    H7238082   1.375   0.075   0.016  2.2956  0.9450 -1.1159
  106MOL    H7338083   1.455   0.222   0.080 -0.1845  1.7351 -0.8620
  106MOL    C7438084   0.813   0.247   7.705 -0.3514 -0.0588  0.0233
  106MOL    C7538085   0.663   0.259   7.676 -0.2940 -0.5638  0.5147
  106MOL    C7638086   0.579   0.196   0.064  0.2060 -0.3173 -0.1879
  106MOL    C7738087   0.567   0.045   0.052 -0.1123  0.1656  0.5258
  106MOL    C7838088   0.499   7.695   0.174  0.0008 -0.4806 -0.2403
  106MOL    C7938089   0.477   7.550   0.148 -0.3414 -0.4441 -0.8037
  106MOL    H8038090   0.836   0.148   0.017 -1.4297 -0.2626  0.1593
  106MOL    H8138091   0.850   0.317   0.052  1.3284 -0.4372 -0.4342
  106MOL    H8238092   0.632   0.214   7.582 -0.5702  3.0439 -1.2062
  106MOL    H8338093   0.621   0.224   0.161 -0.5560  1.5389 -0.3692
  106MOL    H8438094   0.477   0.232   0.076  0.2966  0.2049 -0.9596
  106MOL    H8538095   0.508   0.034   7.687 -0.6273  3.1542  0.4563
  106MOL    H8638096   0.666   0.003   0.037  0.5107  1.5749  0.6180
  106MOL    H8738097   0.405   0.011   0.208  0.7989 -0.0642  1.5267
  106MOL    H8838098   0.562   7.693   0.263 -0.5488 -0.3136  0.1553
  106MOL    H8938099   0.415   7.508   0.227  4.6886  0.4701  3.9186
  106MOL    H9038100   0.434   7.545   0.048 -0.1029  0.5563 -0.9657
  106MOL    H9138101   0.572   7.498   0.157 -0.4355 -0.0753  3.1520
  106MOL    C9238102   0.638   0.409   7.672  0.0657  0.1952  0.8073
  106MOL    C9338103   0.546   0.460   7.557  0.4364 -0.3173 -0.5165
  106MOL    C9438104   0.413   0.386   7.555 -0.1840  0.4932 -0.2348
  106MOL    C9538105   0.325   0.400   7.428  0.4950  0.5369  0.0357
  106MOL    C9638106   0.331   0.262   7.347 -0.0855  0.0992 -0.0810
  106MOL    C9738107   0.238   0.251   7.225  0.6482 -0.8467 -0.3971
  106MOL    H9838108   0.587   0.454   0.030  0.5102  0.1060  1.1210
  106MOL    H9938109   0.735   0.457   7.678 -0.0412  0.5345 -0.1254
  106MOL   H10038110   0.595   0.437   7.463  1.0928 -3.0011  0.4237
  106MOL   H10138111   0.354   0.430   7.636 -1.4885 -0.0292 -0.8910
  106MOL   H10238112   0.418   0.285   7.594 -0.1968  1.1610  1.5626
  106MOL   H10338113   0.221   0.413   7.458  0.2325 -0.0576 -0.5955
  106MOL   H10438114   0.352   0.487   7.369  0.3432 -0.1835 -1.1250
  106MOL   H10538115   0.432   0.248   7.308 -0.1831 -1.3737  0.1748
  106MOL   H10638116   0.297   0.184   7.415 -0.8272 -1.4266 -2.1709
  106MOL   H10738117   0.133   0.250   7.251  1.1305 -1.3318  1.6288
  106MOL   H10838118   0.256   0.319   7.141 -0.9630  0.0523 -0.0313
  106MOL   H10938119   0.260   0.154   7.180  0.3699 -0.4851 -1.3244
  106MOL   C11038120   0.522   0.613   7.553 -0.4642 -0.5805  0.7674
  106MOL   C11138121   0.639   0.703   7.566 -0.5638  0.3808 -0.7038
  106MOL   C11238122   0.605   0.849   7.580  0.9418  0.6184 -0.1546
  106MOL   C11338123   0.493   0.887   7.682 -0.7874 -0.0299 -0.0957
  106MOL   C11438124   0.507   0.834   0.100 -0.4365 -0.2074  0.2044
  106MOL   C11538125   0.393   0.886   0.192  0.4214 -0.9305  0.0413
  106MOL   H11638126   0.476   0.630   7.456 -1.6196  1.6489  1.6586
  106MOL   H11738127   0.450   0.619   7.635 -1.8223 -0.2721 -0.4323
  106MOL   H11838128   0.690   0.678   7.659 -1.6818  3.1130  0.7027
  106MOL   H11938129   0.582   0.898   7.485 -0.7649  2.5555  1.2260
  106MOL   H12038130   0.695   0.907   7.602  0.1796  1.0524  1.9014
  106MOL   H12138131   0.393   0.856   7.651 -0.9245  0.0859  0.2315
  106MOL   H12238132   0.499   0.996   7.687 -3.4229  0.1561  0.0747
  106MOL   H12338133   0.603   0.882   0.121  0.3569 -0.8329 -1.8465
  106MOL   H12438134   0.528   0.727   0.105 -1.1718 -0.4276 -1.1287
  106MOL   H12538135   0.299   0.841   0.159 -0.4656  1.3871 -0.7018
  106MOL   H12638136   0.409   0.850   0.294 -0.5086 -1.1823  0.1095
  106MOL   H12738137   0.380   0.994   0.188  1.4586 -0.8385 -1.3075
  106MOL   C12838138   0.745   0.688   7.455 -0.6510  0.5750 -0.7930
  106MOL   C12938139   0.892   0.729   7.484  0.3884  0.4024  0.4459
  106MOL   C13038140   0.956   0.722   7.338 -1.1891 -0.8223  0.3608
  106MOL   C13138141   0.963   0.856   7.269  0.1604  0.0928  0.0927
  106MOL   C13238142   1.043   0.863   7.136 -0.1717  0.5271  0.2188
  106MOL   C13338143   0.979   0.791   7.011 -0.0841 -0.6363 -0.0002
  106MOL   H13438144   0.702   0.745   7.372  0.0829  0.4963 -1.2324
  106MOL   H13538145   0.754   0.582   7.434 -1.7908  1.0101 -3.8068
  106MOL   H13638146   0.903   0.834   7.513 -0.9607  0.8180 -0.4933
  106MOL   H13738147   1.054   0.676   7.334  0.1038  1.8224  0.4289
  106MOL   H13838148   0.895   0.665   7.268 -0.0514 -0.4094 -0.9801
  106MOL   H13938149   1.001   0.939   7.329 -1.7573  2.0999 -1.3502
  106MOL   H14038150   0.862   0.874   7.230  0.7571  0.1494 -1.4853
  106MOL   H14138151   1.041   0.971   7.120 -0.0138  0.2787 -1.5598
  106MOL   H14238152   1.145   0.825   7.137 -0.7800 -1.1258  0.2537
  106MOL   H14338153   0.870   0.791   7.014 -0.0777  1.7171  1.4536
  106MOL   H14438154   1.017   0.689   7.003  1.0632 -0.3889  1.9392
  106MOL   H14538155   1.010   0.828   6.913 -1.6297 -3.2249 -1.5279
  106MOL   C14638156   0.974   0.648   7.587  0.9410 -0.2178 -0.2712
  106MOL   C14738157   1.098   0.724   7.640 -0.6261 -0.4668 -0.2495
  106MOL   C14838158   1.230   0.647   7.608 -0.1382  0.0205 -0.1520
  106MOL   C14938159   1.352   0.746   7.614  0.0682 -0.1992 -0.1522
  106MOL   C15038160   1.481   0.663   7.636  0.6048  0.1411 -0.2285
  106MOL   C15138161   1.616   0.740   7.608  0.7408  0.3281 -0.0888
  106MOL   H15238162   0.915   0.618   7.674  0.7481  3.3953  0.9266
  106MOL   H15338163   1.005   0.557   7.536 -1.6820 -0.3564 -1.7022
  106MOL   H15438164   1.114   0.820   7.590  2.6792 -0.7760  0.1264
  106MOL   H15538165   1.212   0.596   7.514  0.5719 -1.1738  0.3447
  106MOL   H15638166   1.248   0.565   7.677  0.0062  0.8891  0.8621
  106MOL   H15738167   1.351   0.802   7.520 -3.3277 -2.4345 -1.5601
  106MOL   H15838168   1.351   0.825   7.688  2.3546 -0.5440  0.2956
  106MOL   H15938169   1.470   0.575   7.573  1.2301  0.1395 -0.3300
  106MOL   H16038170   1.486   0.628   0.012 -1.5169  0.0485 -0.1234
  106MOL   H16138171   1.638   0.830   7.665 -1.2050  2.0776 -2.0327
  106MOL   H16238172   1.702   0.675   7.624 -1.1008 -1.5823  2.5808
  106MOL   H16338173   1.617   0.772   7.504  0.1651 -0.2825 -0.2894
  106MOL   C16438174   1.090   0.745   0.065  0.1890  0.3620  0.3189
  106MOL   C16538175   0.983   0.851   0.114 -0.0731 -0.5917 -0.7952
  106MOL   C16638176   0.928   0.833   0.259  0.0680 -0.4865 -0.2287
  106MOL   C16738177   0.841   0.710   0.277 -0.3103  0.0569 -0.0516
  106MOL   C16838178   0.756   0.723   0.402 -0.0558 -0.0301 -0.5502
  106MOL   C16938179   0.662   0.595   0.418  0.0391  1.1363 -0.4133
  106MOL   H17038180   1.064   0.648   0.107 -2.3776  0.9427  0.1898
  106MOL   H17138181   1.187   0.782   0.097  0.9756 -0.9253 -0.5622
  106MOL   H17238182   0.901   0.832   0.046 -0.9275  0.1640  0.0141
  106MOL   H17338183   0.866   0.918   0.284  2.2642  0.8261  0.9172
  106MOL   H17438184   1.016   0.827   0.324  0.7672 -0.1550 -1.1348
  106MOL   H17538185   0.897   0.616   0.279 -3.7431 -2.0899  0.1288
  106MOL   H17638186   0.776   0.694   0.190 -0.8955 -4.0546  1.0115
  106MOL   H17738187   0.698   0.814   0.387 -1.7858 -0.6820  1.7808
  106MOL   H17838188   0.812   0.753   0.491 -0.8072  1.1075 -0.4438
  106MOL   H17938189   0.606   0.591   0.512 -0.2633  0.2548 -0.6189
  106MOL   H18038190   0.717   0.501   0.410 -3.6031 -1.0529 -0.9365
  106MOL   H18138191   0.589   0.590   0.337 -1.0401 -0.6604  0.6125
  106MOL   C18238192   1.027   0.996   0.098 -0.0422 -0.2098  0.4279
  106MOL   C18338193   0.923   1.101   0.059  0.2134  0.2610 -0.2447
  106MOL   C18438194   0.917   1.123   7.635 -0.2533 -0.2348 -0.1076
  106MOL   C18538195   1.037   1.202   7.574  0.0361 -0.2699  0.6212
  106MOL   C18638196   1.024   1.250   7.428 -0.0807 -0.0900  0.0245
  106MOL   C18738197   0.907   1.345   7.410 -1.0071  0.5061  0.7367
  106MOL   H18838198   1.092   1.020   0.183  1.2932 -0.5128 -0.4975
  106MOL   H18938199   1.098   0.997   0.015  1.8510  3.4238  1.9610
  106MOL   H19038200   0.827   1.051   0.072  0.2602  0.5192  1.1870
  106MOL   H19138201   0.891   1.031   7.582  0.4252 -1.0598  0.9707
  106MOL   H19238202   0.825   1.180   7.624 -0.0456  0.2007  0.3924
  106MOL   H19338203   1.129   1.146   7.593 -0.1321 -1.1865 -1.1236
  106MOL   H19438204   1.049   1.294   7.632  1.4485  0.1578 -0.3257
  106MOL   H19538205   1.028   1.173   7.350 -0.7587  1.4323 -1.5578
  106MOL   H19638206   1.116   1.307   7.423 -1.5340  2.3682  0.7855
  106MOL   H19738207   0.933   1.450   7.419  0.8353  0.0902  0.4339
  106MOL   H19838208   0.825   1.322   7.478 -0.9849  0.2499  0.6785
  106MOL   H19938209   0.859   1.333   7.313  1.1083 -2.7036 -0.0043
  106MOL   C20038210   0.930   1.229   0.145 -0.2710 -0.4737  0.0791
  106MOL   C20138211   0.824   1.340   0.117 -0.0060  0.1683  0.0626
  106MOL   C20238212   0.685   1.288   0.168 -0.6052  0.0222  0.8080
  106MOL   C20338213   0.576   1.383   0.111 -0.3777  0.5933  0.7910
  106MOL   C20438214   0.442   1.346   0.157  0.1847  0.0859  0.2284
  106MOL   C20538215   0.323   1.411   0.079  0.7574  0.1636  0.2133
  106MOL   H20638216   1.030   1.269   0.125  0.4527 -1.2608  2.0595
  106MOL   H20738217   0.924   1.201   0.250  0.6663 -1.4099 -0.1113
  106MOL   H20838218   0.820   1.352   0.009 -1.3225  1.0048  0.1940
  106MOL   H20938219   0.678   1.284   0.277  0.4298 -0.1742  0.8771
  106MOL   H21038220   0.661   1.184   0.149 -1.1692  0.2984 -0.0250
  106MOL   H21138221   0.584   1.404   0.004 -1.5960  1.8513  0.9332
  106MOL   H21238222   0.578   1.484   0.152  2.1612  0.9384 -0.1112
  106MOL   H21338223   0.434   1.360   0.264 -0.8816  1.4934 -0.0174
  106MOL   H21438224   0.437   1.238   0.137 -1.1122  0.2006 -0.1025
  106MOL   H21538225   0.240   1.389   0.145  1.2545  1.5534  1.3191
  106MOL   H21638226   0.320   1.518   0.063  0.0519 -0.0544 -1.1874
  106MOL   H21738227   0.300   1.365   7.710 -0.9817  0.9198  0.2657
  106MOL   C21838228   0.870   1.471   0.194 -0.8731  0.7064 -0.1356
  106MOL   C21938229   0.998   1.549   0.150 -0.3887 -0.8829 -0.2216
  106MOL   C22038230   1.042   1.655   0.264 -0.0729  0.1905  0.6121
  106MOL   C22138231   1.125   1.600   0.387  0.1699 -0.0117  0.9610
  106MOL   C22238232   1.215   1.708   0.464  0.0282  0.3797 -0.0824
  106MOL   C22338233   1.348   1.733   0.388  0.0604 -0.5658 -0.2987
  106MOL   H22438234   0.789   1.544   0.191 -1.3500  0.2100  0.4866
  106MOL   H22538235   0.873   1.449   0.301  0.8927 -0.5682 -0.4151
  106MOL   H22638236   1.073   1.471   0.137 -0.8014 -0.9031 -2.9528
  106MOL   H22738237   0.959   1.714   0.303  0.0166 -0.9800  2.6306
  106MOL   H22838238   1.094   1.736   0.214  0.8018  0.3183  1.7221
  106MOL   H22938239   1.191   1.521   0.350 -0.9211  0.6751 -2.5895
  106MOL   H23038240   1.053   1.555   0.455  0.0213 -0.0793  0.7593
  106MOL   H23138241   1.164   1.803   0.481 -0.5709 -0.1649  1.1947
  106MOL   H23238242   1.242   1.670   0.563  0.7598 -0.1873 -0.4916
  106MOL   H23338243   1.400   1.822   0.425 -1.6799 -0.1752  1.2796
  106MOL   H23438244   1.333   1.726   0.281  0.5168  0.6772 -0.4555
  106MOL   H23538245   1.421   1.652   0.396 -0.1773 -1.1175 -3.1761
  106MOL   C23638246   0.966   1.616   0.021 -0.0117  0.1376  0.6867
  106MOL   C23738247   1.081   1.698   7.676  0.6822 -0.1929 -0.0772
  106MOL   C23838248   1.019   1.771   7.548 -0.6285  0.0689  0.1937
  106MOL   C23938249   0.955   1.911   7.573  0.2236  0.0576  0.4523
  106MOL   C24038250   0.940   2.003   7.449  0.4002 -0.4489 -0.0350
  106MOL   C24138251   0.829   1.976   7.350  0.0955 -0.3191 -1.1776
  106MOL   H24238252   0.931   1.546   7.672  1.4028  2.7418 -2.4874
  106MOL   H24338253   0.878   1.677   0.034  0.2374  1.1271 -1.8876
  106MOL   H24438254   1.111   1.775   0.020 -2.6774 -0.4512  1.7529
  106MOL   H24538255   1.099   1.787   7.476 -0.2967 -0.3923  0.4585
  106MOL   H24638256   0.964   1.697   7.490  0.9415 -2.7234  2.1769
  106MOL   H24738257   1.020   1.957   7.647  1.1007  2.0737 -1.5547
  106MOL   H24838258   0.862   1.893   7.628  0.9765 -0.1148  1.6769
  106MOL   H24938259   0.935   2.111   7.464  2.5207 -0.3400 -0.0336
  106MOL   H25038260   1.036   1.995   7.398  0.0446 -1.6286 -0.5274
  106MOL   H25138261   0.814   1.871   7.326 -1.0443  0.0560 -2.1936
  106MOL   H25238262   0.732   2.010   7.386  0.3748 -2.1595  1.4554
  106MOL   H25338263   0.858   2.023   7.256 -0.1157 -0.4391 -1.3019
  106MOL   C25438264   1.196   1.615   7.627 -0.8069  1.0992  0.3809
  106MOL   C25538265   1.323   1.696   7.581 -0.0792 -0.2043  0.1679
  106MOL   C25638266   1.413   1.604   7.498 -0.2928 -0.5067 -0.0892
  106MOL   C25738267   1.354   1.558   7.366  0.4696 -0.2191  0.1782
  106MOL   C25838268   1.449   1.506   7.268  0.4018  0.2947  0.0762
  106MOL   C25938269   1.382   1.427   7.158  0.5424 -0.8252 -0.8187
  106MOL   H26038270   1.158   1.554   7.545  2.1584 -0.8558  0.3737
  106MOL   H26138271   1.225   1.540   7.701  1.2596  1.9962  0.5127
  106MOL   H26238272   1.291   1.769   7.507  0.0488 -1.8479 -1.5182
  106MOL   H26338273   1.509   1.648   7.470 -0.5123  0.0442  0.0061
  106MOL   H26438274   1.425   1.515   7.558  0.2262 -1.6418 -1.8244
  106MOL   H26538275   1.273   1.485   7.374 -0.8024  1.1820  0.2677
  106MOL   H26638276   1.299   1.635   7.313 -1.1485 -1.5811 -0.1573
  106MOL   H26738277   1.516   1.438   7.320 -1.6936 -0.4325  1.8744
  106MOL   H26838278   1.514   1.587   7.236  2.9832 -1.4884  0.7015
  106MOL   H26938279   1.297   1.479   7.114  0.1626 -0.5820  0.1794
  106MOL   H27038280   1.332   1.339   7.199  1.2194 -1.8519 -2.1721
  106MOL   H27138281   1.452   1.380   7.089 -0.4154 -0.5349 -1.9890
  106MOL   C27238282   1.396   1.764   7.698  0.0714 -0.3970  0.1972
  106MOL   C27338283   1.515   1.856   7.664 -0.2455  0.2936  1.0654
  106MOL   C27438284   1.573   1.907   0.072 -0.7431 -0.4208 -0.7334
  106MOL   C27538285   1.490   2.006   0.160  0.8416 -0.2072  0.3774
  106MOL   C27638286   1.560   2.026   0.299  0.0543 -0.3401 -0.0285
  106MOL   C27738287   1.679   2.115   0.298 -0.4683 -0.0398  0.6544
  106MOL   H27838288   1.333   1.825   0.035  2.4653  0.5881  1.6955
  106MOL   H27938289   1.431   1.693   0.046 -0.9573  1.2910  2.3387
  106MOL   H28038290   1.594   1.798   7.617  0.5071  2.2049 -0.0518
  106MOL   H28138291   1.664   1.959   0.044 -0.0945 -1.1243  0.0345
  106MOL   H28238292   1.618   1.826   0.130 -2.4476 -1.2165 -0.4909
  106MOL   H28338293   1.385   1.978   0.167  0.6710  0.5078  0.7770
  106MOL   H28438294   1.478   2.103   0.111 -0.3009 -0.2356  0.5828
  106MOL   H28538295   1.498   2.087   0.364 -0.7469 -2.0026  0.8079
  106MOL   H28638296   1.573   1.930   0.350  0.8611 -0.1454  0.1340
  106MOL   H28738297   1.762   2.058   0.258 -1.9807 -1.8730  0.0808
  106MOL   H28838298   1.665   2.211   0.247  0.9991  1.3723  2.8245
  106MOL   H28938299   1.719   2.142   0.395  1.1438 -0.4494  0.1098
  106MOL   C29038300   1.467   1.973   7.570 -0.1031  0.1883  0.2504
  106MOL   C29138301   1.568   2.068   7.507  0.8760 -0.2240 -0.0864
  106MOL   C29238302   1.697   2.007   7.445  0.2159  0.5317 -0.0153
  106MOL   C29338303   1.677   1.928   7.318 -0.2463  0.1479  0.0849
  106MOL   C29438304   1.814   1.884   7.263 -0.1523 -1.0538  0.6405
  106MOL   C29538305   1.793   1.780   7.152  0.4164 -0.4243  0.3198
  106MOL   H29638306   1.389   2.027   7.623  0.9779  0.7880  1.2485
  106MOL   H29738307   1.416   1.918   7.490  0.1269 -0.1470  0.3304
  106MOL   H29838308   1.597   2.121   7.598 -0.5128 -1.5801  1.1813
  106MOL   H29938309   1.753   1.947   7.516  0.0866 -1.2787 -1.3926
  106MOL   H30038310   1.764   2.088   7.419 -1.0158  1.4712 -0.3026
  106MOL   H30138311   1.624   1.835   7.333  1.7806 -1.0547  0.0517
  106MOL   H30238312   1.618   1.976   7.240  0.0218  0.6350  0.1788
  106MOL   H30338313   1.875   1.848   7.346 -1.0428 -0.9289  1.3608
  106MOL   H30438314   1.858   1.976   7.224  0.3685 -1.6489 -0.1872
  106MOL   H30538315   1.716   1.795   7.077 -0.3642 -0.6273  1.0616
  106MOL   H30638316   1.768   1.690   7.209  1.7723  0.2404  2.0215
  106MOL   H30738317   1.887   1.757   7.102  0.8270  0.1314  0.8313
  106MOL   C30838318   1.493   2.174   7.425  0.2163 -0.2070  0.8709
  106MOL   C30938319   1.578   2.283   7.352 -0.5973 -0.2853 -0.3156
  106MOL   C31038320   1.669   2.365   7.447  0.0739 -0.1101  0.6411
  106MOL   C31138321   1.598   2.452   7.550 -0.5926 -0.4625  0.3141
  106MOL   C31238322   1.704   2.534   7.629  0.1523 -0.3485 -0.0945
  106MOL   C31338323   1.661   2.654   7.718 -0.5374  0.6571  0.3267
  106MOL   H31438324   1.445   2.113   7.350  0.2177  0.5053  0.2855
  106MOL   H31538325   1.405   2.206   7.481  0.0624 -2.4095  1.9440
  106MOL   H31638326   1.641   2.225   7.284 -0.6979 -0.0096 -0.6460
  106MOL   H31738327   1.733   2.430   7.388 -1.3741  0.9734  0.2540
  106MOL   H31838328   1.740   2.298   7.496 -1.6347 -0.1249  3.2216
  106MOL   H31938329   1.539   2.401   7.625 -0.6870  1.1972  1.4051
  106MOL   H32038330   1.551   2.525   7.484  1.3450 -0.6737 -1.3606
  106MOL   H32138331   1.753   2.474   7.706 -0.6240 -0.2342  0.4947
  106MOL   H32238332   1.776   2.580   7.562 -0.3110  0.8457  0.2104
  106MOL   H32338333   1.590   2.630   0.070 -0.1840 -0.8434  0.2152
  106MOL   H32438334   1.609   2.729   7.658  0.9898  1.6577  0.2047
  106MOL   H32538335   1.742   2.710   0.038 -0.7223  0.3033  1.0644
  106MOL   C32638336   1.493   2.383   7.267  0.3390 -0.1208 -0.3185
  106MOL   C32738337   1.422   2.338   7.139 -0.9537 -0.4961  0.1136
  106MOL   C32838338   1.501   2.234   7.051  0.1506 -0.5338 -0.4085
  106MOL   C32938339   1.631   2.294   6.992 -0.2676  0.3791 -0.2835
  106MOL   C33038340   1.702   2.190   6.910 -0.3006 -0.9636  0.1756
  106MOL   C33138341   1.846   2.227   6.865  0.2508 -0.0094  0.7667
  106MOL   H33238342   1.550   2.475   7.256 -1.3897  1.0509  0.3734
  106MOL   H33338343   1.411   2.408   7.334 -0.3682  0.8928 -1.5387
  106MOL   H33438344   1.416   2.428   7.078 -2.2491 -0.7580 -0.1600
  106MOL   H33538345   1.513   2.139   7.102  0.2509 -0.1695  0.2548
  106MOL   H33638346   1.437   2.214   6.965 -0.2934  0.7662 -0.3939
  106MOL   H33738347   1.698   2.317   7.075  0.0546 -3.4168  0.6059
  106MOL   H33838348   1.614   2.386   6.938  0.1352  1.2333  1.0187
  106MOL   H33938349   1.709   2.094   6.962  1.1165  0.0386  1.9027
  106MOL   H34038350   1.649   2.174   6.816  0.8941 -2.3334 -0.3003
  106MOL   H34138351   1.842   2.330   6.830 -0.7563 -0.7046 -1.2415
  106MOL   H34238352   1.885   2.168   6.782 -2.1309  1.0305 -1.1333
  106MOL   H34338353   1.915   2.212   6.948  1.5017 -1.8650 -0.5677
  106MOL   C34438354   1.281   2.287   7.167 -0.2834  0.8030 -0.6518
  106MOL   C34538355   1.167   2.376   7.219  0.1771 -0.5843  0.2176
  106MOL   C34638356   1.043   2.294   7.234 -0.1451  0.5085 -0.1312
  106MOL   C34738357   0.909   2.376   7.267 -0.4636 -0.4314 -0.1433
  106MOL   C34838358   0.923   2.460   7.394  0.3540  0.2917 -0.1853
  106MOL   C34938359   0.934   2.377   7.521  0.6885  0.0130  0.3945
  106MOL   H35038360   1.253   2.241   7.072  0.2470  1.4939 -1.1485
  106MOL   H35138361   1.278   2.200   7.232 -1.1262  0.7765 -0.7167
  106MOL   H35238362   1.153   2.462   7.153  1.6135 -1.7904 -1.6880
  106MOL   H35338363   1.033   2.237   7.142 -0.0181  0.9211 -0.4025
  106MOL   H35438364   1.055   2.215   7.308 -0.3737  1.7713  1.2794
  106MOL   H35538365   0.892   2.456   7.194 -0.9570  1.0229  1.5145
  106MOL   H35638366   0.817   2.319   7.259 -1.0974  0.0826  2.9194
  106MOL   H35738367   0.997   2.539   7.382 -0.5561  1.0554 -0.7562
  106MOL   H35838368   0.832   2.520   7.397  0.4818  0.5867 -2.1378
  106MOL   H35938369   1.016   2.307   7.507  1.1292  0.6095 -0.0555
  106MOL   H36038370   0.969   2.428   7.611 -1.0887 -0.3276  1.3091
  106MOL   H36138371   0.847   2.317   7.548  0.4669  0.9782  1.9142
  106MOL   H36238372   1.186   2.421   7.317  1.5790 -0.4925 -0.0958
  107MOL     C138373   3.430   0.676   7.533  0.2860 -0.3408 -0.3472
  107MOL     C238374   3.536   0.785   7.506 -0.2110 -0.2465 -0.5289
  107MOL     C338375   3.678   0.733   7.474 -0.1412 -0.0434  0.0840
  107MOL     C438376   3.684   0.638   7.355 -0.7155  0.6864  0.0459
  107MOL     C538377   3.662   0.700   7.219  0.4619  0.5016  0.0445
  107MOL     C638378   3.670   0.593   7.107  0.0347  0.4042  0.6833
  107MOL     H738379   3.340   0.723   7.572  0.9072  0.5790 -0.0079
  107MOL     H838380   3.410   0.619   7.442  2.1235 -2.5972  0.6042
  107MOL     H938381   3.500   0.832   7.415 -0.4852  0.2287 -0.1818
  107MOL    H1038382   3.737   0.699   7.559 -0.6258  1.4525  1.0496
  107MOL    H1138383   3.741   0.817   7.446 -1.2010  1.3323  1.6654
  107MOL    H1238384   3.626   0.546   7.368  3.6115 -2.2247 -0.1898
  107MOL    H1338385   3.787   0.603   7.350 -1.5155 -2.0105  1.1732
  107MOL    H1438386   3.565   0.748   7.205 -1.1599 -1.8034  2.8104
  107MOL    H1538387   3.732   0.781   7.200 -1.1054  1.7219 -0.6498
  107MOL    H1638388   3.757   0.529   7.122 -0.0322  0.2964  0.6086
  107MOL    H1738389   3.669   0.638   7.008  1.3718 -1.3876 -0.1747
  107MOL    H1838390   3.582   0.529   7.108  0.6208 -0.5148 -2.7160
  107MOL    H1938391   3.462   0.599   7.604 -0.6898 -0.3534  0.0892
  107MOL    C2038392   3.539   0.896   7.614 -0.0443  0.2768 -0.0888
  107MOL    C2138393   3.429   1.013   7.586  0.2608  0.0110  0.1172
  107MOL    C2238394   3.408   1.082   7.724  0.1156  0.3357 -0.6682
  107MOL    C2338395   3.330   0.992   0.100 -0.1337  0.0854  0.1432
  107MOL    C2438396   3.200   0.927   0.044  0.1789  0.8630 -0.1416
  107MOL    C2538397   3.123   0.864   0.157  0.3489 -0.0857 -0.2531
  107MOL    H2638398   3.639   0.938   7.605 -0.1709  1.1496  2.1406
  107MOL    H2738399   3.527   0.856   7.715 -1.3875  0.1243 -0.2930
  107MOL    H2838400   3.342   0.960   7.547 -0.4460  0.6419  0.8171
  107MOL    H2938401   3.356   1.178   7.715 -0.5081  0.3492  2.4869
  107MOL    H3038402   3.506   1.100   0.040 -0.7781 -0.3918  1.7339
  107MOL    H3138403   3.312   1.053   0.189 -0.8649  2.4620 -1.5980
  107MOL    H3238404   3.387   0.909   0.143 -1.7346 -1.7498 -1.2058
  107MOL    H3338405   3.132   1.000   7.726 -2.7356 -1.7324 -0.1098
  107MOL    H3438406   3.234   0.852   7.699  1.2512  2.2173 -1.0621
  107MOL    H3538407   3.048   0.798   0.114  0.7585 -0.5324 -0.2887
  107MOL    H3638408   3.195   0.814   0.220 -0.4385  2.1581  2.5281
  107MOL    H3738409   3.082   0.951   0.208  0.5927  1.0276 -1.8993
  107MOL    C3838410   3.471   1.117   7.483  0.0776 -0.6991  0.2948
  107MOL    C3938411   3.351   1.203   7.440  0.1037  0.7266  0.3654
  107MOL    C4038412   3.388   1.347   7.403 -0.7454  0.5710  0.1639
  107MOL    C4138413   3.409   1.437   7.521  0.4948 -0.2475  0.4920
  107MOL    C4238414   3.448   1.584   7.490  0.3683  0.3487  0.2268
  107MOL    C4338415   3.463   1.678   7.616  0.5841 -0.4135  0.0346
  107MOL    H4438416   3.530   1.094   7.394 -2.5137 -0.0950 -1.6621
  107MOL    H4538417   3.533   1.190   7.533  0.7278 -2.5769  2.3221
  107MOL    H4638418   3.277   1.206   7.520  0.6274  2.4417  0.8104
  107MOL    H4738419   3.473   1.343   7.335  0.2201  0.6356  1.3589
  107MOL    H4838420   3.305   1.393   7.348 -2.3889 -0.8829  1.3758
  107MOL    H4938421   3.316   1.447   7.576 -0.6243  2.3843 -1.7508
  107MOL    H5038422   3.480   1.412   7.600 -1.7452  1.8302  3.2883
  107MOL    H5138423   3.542   1.578   7.435  0.6968  4.0356  0.2225
  107MOL    H5238424   3.369   1.628   7.429 -0.0505 -0.0788  0.4613
  107MOL    H5338425   3.544   1.749   7.601  3.5825 -3.4437  1.2374
  107MOL    H5438426   3.507   1.616   7.694  1.2894 -2.2171 -1.7803
  107MOL    H5538427   3.367   1.714   7.653  0.2531  0.7337 -1.8766
  107MOL    C5638428   3.287   1.126   7.324  0.3327  0.6534  0.2239
  107MOL    C5738429   3.129   1.128   7.317  0.4215 -0.1438 -0.2528
  107MOL    C5838430   3.057   0.986   7.303 -0.0719  0.0204 -0.3924
  107MOL    C5938431   3.072   0.907   7.436  1.1131 -0.3775  0.2229
  107MOL    C6038432   3.005   0.769   7.416 -0.5782 -0.2631 -0.5012
  107MOL    C6138433   3.015   0.686   7.548 -0.4867  0.2223 -0.1145
  107MOL    H6238434   3.332   1.156   7.229 -0.9388 -1.0048 -0.9302
  107MOL    H6338435   3.315   1.021   7.334  0.6900  0.8196  1.0114
  107MOL    H6438436   3.096   1.183   7.405  2.7482 -2.8446  2.4206
  107MOL    H6538437   2.950   0.997   7.284 -0.0783 -1.0163 -0.9638
  107MOL    H6638438   3.105   0.936   7.219  1.4456  0.5673  0.1315
  107MOL    H6738439   3.020   0.963   7.514  0.9014  0.2328 -0.3475
  107MOL    H6838440   3.178   0.897   7.460  1.4135 -3.3934 -2.1395
  107MOL    H6938441   2.900   0.778   7.389 -0.4414 -0.6045 -1.1408
  107MOL    H7038442   3.045   0.710   7.334 -0.5656 -1.9685  0.7021
  107MOL    H7138443   2.973   0.588   7.523  1.1409 -0.5936  0.2646
  107MOL    H7238444   3.117   0.674   7.585 -0.1596  1.3634 -0.6305
  107MOL    H7338445   2.955   0.716   7.634  1.4870 -0.1805  1.4393
  107MOL    C7438446   3.077   1.218   7.200 -0.0272  0.2191  0.4543
  107MOL    C7538447   2.923   1.260   7.215 -0.4015 -0.1045  0.4937
  107MOL    C7638448   2.911   1.414   7.241  0.1460  0.0427  0.7805
  107MOL    C7738449   2.973   1.449   7.379  0.4132 -0.4302  0.0672
  107MOL    C7838450   2.969   1.600   7.417  0.2973  0.8911 -0.7561
  107MOL    C7938451   3.025   1.632   7.554 -0.5073 -0.2939  0.6931
  107MOL    H8038452   3.129   1.314   7.206  1.0269 -0.0670 -3.0820
  107MOL    H8138453   3.103   1.183   7.100 -1.7139  0.3541 -0.0625
  107MOL    H8238454   2.889   1.219   7.310 -0.3876 -0.8293  0.1820
  107MOL    H8338455   2.948   1.477   7.160 -2.6373  1.1994  0.3205
  107MOL    H8438456   2.807   1.448   7.244 -0.0988 -0.6675  0.5296
  107MOL    H8538457   2.918   1.394   7.456  0.5414 -2.1165 -1.0153
  107MOL    H8638458   3.070   1.402   7.396  0.5419  0.1753  1.0790
  107MOL    H8738459   2.865   1.632   7.425  0.6077  1.6397  0.6463
  107MOL    H8838460   3.022   1.654   7.338 -0.7508 -0.0752 -2.1305
  107MOL    H8938461   3.007   1.736   7.581  0.1114  0.2795 -1.0176
  107MOL    H9038462   2.974   1.573   7.630  1.9963 -2.1497  1.0201
  107MOL    H9138463   3.131   1.606   7.556 -0.2588  0.4754 -1.4157
  107MOL    C9238464   2.828   1.215   7.107  0.1489 -0.3678  0.0478
  107MOL    C9338465   2.691   1.197   7.162 -0.3583 -0.0044 -1.2594
  107MOL    C9438466   2.593   1.249   7.061  0.6511 -0.8663  0.0429
  107MOL    C9538467   2.598   1.183   6.919 -0.1730  0.0223 -1.0450
  107MOL    C9638468   2.466   1.182   6.847  0.4459 -0.1361 -0.3534
  107MOL    C9738469   2.487   1.127   6.707 -0.1837 -0.3323 -0.4766
  107MOL    H9838470   2.839   1.294   7.033 -2.9108 -0.2503 -0.3108
  107MOL    H9938471   2.858   1.125   7.054 -2.8775 -0.8110 -0.9917
  107MOL   H10038472   2.694   1.271   7.243  1.9679 -1.6373  0.2045
  107MOL   H10138473   2.615   1.355   7.047 -0.0517 -0.4527  1.8781
  107MOL   H10238474   2.492   1.227   7.094 -0.1863  0.7352 -1.4473
  107MOL   H10338475   2.674   1.238   6.862  1.4303 -0.8188  0.2477
  107MOL   H10438476   2.630   1.079   6.913 -0.3641 -0.1621  0.8275
  107MOL   H10538477   2.396   1.111   6.894 -1.9379  1.1328 -1.8760
  107MOL   H10638478   2.418   1.279   6.839  0.4854 -0.0347  0.5500
  107MOL   H10738479   2.521   1.023   6.714  1.0401  0.1172  0.4290
  107MOL   H10838480   2.397   1.136   6.646 -1.5480 -0.1373  1.5165
  107MOL   H10938481   2.567   1.176   6.651 -1.2838  2.3031  0.1728
  107MOL   C11038482   2.666   1.053   7.222 -0.0398  0.5598  0.0864
  107MOL   C11138483   2.551   1.046   7.328 -0.2336  0.7258  0.3991
  107MOL   C11238484   2.582   1.125   7.464 -0.2713  0.6038  0.4384
  107MOL   C11338485   2.703   1.075   7.541  0.8092  0.2230 -0.3630
  107MOL   C11438486   2.715   1.167   7.660 -0.4902  0.5741  0.1935
  107MOL   C11538487   2.807   1.111   0.038  0.6353  0.0501  0.0225
  107MOL   H11638488   2.641   0.985   7.141 -0.1983 -0.0277  0.6247
  107MOL   H11738489   2.755   1.008   7.266 -1.2694 -2.7874 -0.7174
  107MOL   H11838490   2.461   1.097   7.295 -0.3892 -0.1500 -0.5479
  107MOL   H11938491   2.490   1.119   7.522 -0.7721 -1.8350 -0.5668
  107MOL   H12038492   2.587   1.230   7.434  1.4170  0.2036 -0.7533
  107MOL   H12138493   2.801   1.081   7.493  0.9838 -3.2234 -0.6128
  107MOL   H12238494   2.705   0.970   7.573 -0.2107  0.5233  0.7129
  107MOL   H12338495   2.616   1.181   7.705 -0.7172 -0.1926 -0.0633
  107MOL   H12438496   2.738   1.264   7.617  0.5683  0.0067 -0.5322
  107MOL   H12538497   2.823   1.187   0.115 -4.4921  1.0861  0.2374
  107MOL   H12638498   2.776   1.021   0.090 -2.0406  0.8451 -0.1161
  107MOL   H12738499   2.909   1.103   0.001  1.5879  2.3161  2.0040
  107MOL   C12838500   2.504   0.901   7.347 -0.3985 -0.1267  0.2536
  107MOL   C12938501   2.362   0.883   7.407 -0.6928  0.6252 -0.1349
  107MOL   C13038502   2.342   0.738   7.437 -0.0881  0.1291 -0.2466
  107MOL   C13138503   2.214   0.687   7.502  0.0031 -0.4177  0.1175
  107MOL   C13238504   2.197   0.533   7.502 -0.9339  0.2132  0.1748
  107MOL   C13338505   2.077   0.491   7.579 -0.4051  0.3626 -0.1023
  107MOL   H13438506   2.585   0.876   7.415  0.3242  0.4298 -0.3944
  107MOL   H13538507   2.527   0.843   7.258  1.1459 -0.2387  0.7274
  107MOL   H13638508   2.366   0.938   7.501 -0.2240  1.6620 -0.7617
  107MOL   H13738509   2.350   0.686   7.341  3.2879  1.3441 -0.6911
  107MOL   H13838510   2.424   0.693   7.493 -1.9126 -1.8005  0.9486
  107MOL   H13938511   2.129   0.741   7.459  0.8953  0.2047 -0.8848
  107MOL   H14038512   2.213   0.704   7.610  0.2796  2.1390 -0.2545
  107MOL   H14138513   2.190   0.502   7.397 -0.2849 -0.0662  0.2145
  107MOL   H14238514   2.291   0.495   7.541 -0.0948 -0.5848 -2.4868
  107MOL   H14338515   2.107   0.469   7.681 -1.5273 -1.5674 -0.1517
  107MOL   H14438516   2.039   0.404   7.525  1.1264 -0.3650 -0.0255
  107MOL   H14538517   1.984   0.548   7.582 -0.2897  0.4877  1.7474
  107MOL   C14638518   2.263   0.950   7.310 -0.3551 -0.0591 -0.8143
  107MOL   C14738519   2.174   1.067   7.357 -0.5760  0.3644 -0.2684
  107MOL   C14838520   2.061   1.016   7.452  0.2655  0.8138  0.1659
  107MOL   C14938521   1.984   1.119   7.540  0.0533  0.2755  0.2641
  107MOL   C15038522   1.907   1.051   7.655 -0.0391 -0.3860 -0.6136
  107MOL   C15138523   1.846   1.159   0.018 -0.2069  0.1346 -0.2176
  107MOL   H15238524   2.315   0.981   7.219  1.0987  0.9623  0.3446
  107MOL   H15338525   2.192   0.876   7.273  0.4563 -2.0445  1.4648
  107MOL   H15438526   2.233   1.140   7.414 -0.7309  1.1944 -1.1536
  107MOL   H15538527   2.102   0.944   7.523  1.3598  1.0986 -0.1620
  107MOL   H15638528   1.992   0.949   7.400 -0.6784  1.4972  0.5180
  107MOL   H15738529   2.056   1.183   7.591 -0.8600  2.0919 -0.6443
  107MOL   H15838530   1.927   1.179   7.469  1.4311 -0.3213 -1.3786
  107MOL   H15938531   1.976   0.992   7.714  1.6626  0.0788 -2.0795
  107MOL   H16038532   1.829   0.980   7.626 -0.2437  0.1903 -1.5086
  107MOL   H16138533   1.931   1.223   0.041  0.4156 -0.2439 -1.4141
  107MOL   H16238534   1.775   1.223   7.693  0.9731  1.2194 -0.5112
  107MOL   H16338535   1.807   1.117   0.111 -1.7081  0.2460 -0.7912
  107MOL   C16438536   2.125   1.133   7.231 -0.5726 -0.0842  0.2487
  107MOL   C16538537   2.013   1.237   7.239 -0.4832  0.1245 -0.3239
  107MOL   C16638538   2.055   1.366   7.323  0.4916  0.1805  0.1642
  107MOL   C16738539   1.937   1.458   7.371 -0.2080  0.9001  0.6625
  107MOL   C16838540   1.965   1.508   7.504  0.5619 -0.5638 -0.5335
  107MOL   C16938541   1.852   1.573   7.590  0.0405 -0.2702  0.4937
  107MOL   H17038542   2.208   1.184   7.182 -0.6481  0.1051  0.3162
  107MOL   H17138543   2.096   1.046   7.172 -1.5420  0.4586 -0.0829
  107MOL   H17238544   1.920   1.189   7.272  1.0232 -1.4666  1.7843
  107MOL   H17338545   2.137   1.413   7.268  0.5276  3.1551  2.6193
  107MOL   H17438546   2.110   1.320   7.405 -1.5232  0.5985  1.7971
  107MOL   H17538547   1.851   1.391   7.372 -0.1019  0.7214 -0.7652
  107MOL   H17638548   1.930   1.535   7.294  1.2501  1.1566  0.7821
  107MOL   H17738549   2.030   1.591   7.476 -2.2120  0.9799 -2.6429
  107MOL   H17838550   2.009   1.423   7.556  2.0257  0.7544  0.4487
  107MOL   H17938551   1.787   1.637   7.530 -0.7864 -1.7250 -0.1784
  107MOL   H18038552   1.889   1.620   7.681  2.4824  1.0724 -1.1374
  107MOL   H18138553   1.788   1.490   7.620 -1.0674 -0.3417 -1.9006
  107MOL   C18238554   1.977   1.288   7.099  0.0061  0.9768  0.1297
  107MOL   C18338555   1.941   1.185   6.993  0.2733  0.6031  0.8699
  107MOL   C18438556   1.913   1.256   6.854  0.6430  0.4864 -0.2442
  107MOL   C18538557   1.772   1.331   6.860  0.0595 -0.4603  0.3488
  107MOL   C18638558   1.747   1.402   6.733 -0.0730 -0.6284  0.9511
  107MOL   C18738559   1.608   1.471   6.719  0.0498  0.0557  0.1862
  107MOL   H18838560   1.896   1.361   7.096 -0.1209  0.8707  0.8271
  107MOL   H18938561   2.065   1.340   7.063  0.5513 -0.0430 -0.0156
  107MOL   H19038562   2.026   1.119   6.978 -0.4564 -0.2853  0.6010
  107MOL   H19138563   1.991   1.326   6.825 -0.3654  0.7323 -2.4742
  107MOL   H19238564   1.901   1.181   6.775  0.9551  1.0308 -0.8208
  107MOL   H19338565   1.767   1.405   6.939  0.5364  0.6374 -0.6228
  107MOL   H19438566   1.688   1.263   6.873  0.0306 -0.3204  0.9065
  107MOL   H19538567   1.753   1.317   6.665  0.4073  0.4738 -0.4113
  107MOL   H19638568   1.825   1.474   6.710 -0.5321 -0.4814 -0.2060
  107MOL   H19738569   1.616   1.563   6.777  1.2971 -0.3332  0.6401
  107MOL   H19838570   1.527   1.410   6.758 -0.8851  1.9176  1.2290
  107MOL   H19938571   1.580   1.503   6.619  3.1985  0.1667 -0.7058
  107MOL   C20038572   1.822   1.090   7.027 -0.5469 -0.1517 -0.1361
  107MOL   C20138573   1.781   0.979   6.925  0.3027  0.2469  0.2536
  107MOL   C20238574   1.896   0.888   6.876 -0.1055 -0.8186  0.0145
  107MOL   C20338575   1.982   0.821   6.986  0.4585 -0.1494 -0.6459
  107MOL   C20438576   2.072   0.714   6.921 -0.1162  0.2800  0.3674
  107MOL   C20538577   2.177   0.667   7.024  0.2087 -0.1441  1.2545
  107MOL   H20638578   1.735   1.145   7.062 -0.0142  0.1805  0.6732
  107MOL   H20738579   1.866   1.039   7.113  2.5046  0.7100 -1.1313
  107MOL   H20838580   1.737   1.026   6.836 -2.2877  1.2950  2.0237
  107MOL   H20938581   1.960   0.937   6.803 -0.6143  0.1529  0.2144
  107MOL   H21038582   1.863   0.796   6.827  0.2750 -0.7599 -0.3580
  107MOL   H21138583   1.920   0.772   7.061  0.8319 -0.8922 -0.8156
  107MOL   H21238584   2.047   0.892   7.037  0.1737 -0.5641  0.2915
  107MOL   H21338585   2.136   0.760   6.846 -0.4587 -1.6539 -1.1555
  107MOL   H21438586   2.017   0.634   6.872  0.1238  0.1908  0.2446
  107MOL   H21538587   2.234   0.586   6.979 -1.8282 -0.8235 -0.1714
  107MOL   H21638588   2.252   0.740   7.055  2.1465 -1.8805  0.7198
  107MOL   H21738589   2.132   0.630   7.116 -1.1463 -1.4648  0.0868
  107MOL   C21838590   1.668   0.899   6.985  0.5769 -0.0762 -0.0474
  107MOL   C21938591   1.522   0.950   6.983  0.0585  0.3128  0.3914
  107MOL   C22038592   1.445   0.896   7.108 -0.2258  0.2126 -0.0026
  107MOL   C22138593   1.417   0.743   7.109  0.0434 -0.0712  0.2707
  107MOL   C22238594   1.390   0.684   7.245  0.6802  0.5156  0.7400
  107MOL   C22338595   1.363   0.534   7.233 -0.2879 -0.0999 -0.1364
  107MOL   H22438596   1.666   0.801   6.937 -0.7235  0.0232 -0.1955
  107MOL   H22538597   1.682   0.868   7.088 -0.6568 -2.3996 -0.5382
  107MOL   H22638598   1.530   1.059   6.981 -0.0677  0.3111 -0.4693
  107MOL   H22738599   1.350   0.949   7.121 -0.3464 -0.1899  0.7843
  107MOL   H22838600   1.495   0.936   7.196 -1.4935  3.3386 -0.6237
  107MOL   H22938601   1.497   0.682   7.066 -1.3012 -2.2535  0.7951
  107MOL   H23038602   1.332   0.717   7.046  0.9893  1.5147 -1.7169
  107MOL   H23138603   1.476   0.700   7.310  2.3678  0.0605 -1.3163
  107MOL   H23238604   1.311   0.739   7.294 -0.3889  0.4981 -0.9362
  107MOL   H23338605   1.439   0.478   7.180 -0.1475 -1.1545  1.1423
  107MOL   H23438606   1.275   0.520   7.170  0.2252 -0.2052 -0.8251
  107MOL   H23538607   1.346   0.491   7.332  0.4753 -2.1993 -0.8864
  107MOL   C23638608   1.452   0.910   6.848  0.2922 -0.1791  0.6347
  107MOL   C23738609   1.314   0.977   6.824  0.9637  0.7061 -0.1543
  107MOL   C23838610   1.234   0.889   6.724  0.1651 -0.3908 -0.2571
  107MOL   C23938611   1.282   0.896   6.573  0.2709  0.7308 -1.2089
  107MOL   C24038612   1.169   0.853   6.483  0.3161 -0.3093  0.4353
  107MOL   C24138613   1.140   0.703   6.474  0.0205  0.1779 -0.2680
  107MOL   H24238614   1.519   0.924   6.764 -0.7629 -0.4172 -0.2591
  107MOL   H24338615   1.463   0.802   6.857 -0.7385 -0.3899 -0.4670
  107MOL   H24438616   1.255   0.972   6.916  1.8926 -1.2272  0.3726
  107MOL   H24538617   1.238   0.785   6.756 -2.1112 -0.5896 -0.5247
  107MOL   H24638618   1.134   0.931   6.737  1.3827  2.9917 -1.1711
  107MOL   H24738619   1.372   0.834   6.563  0.7221  1.1296  0.1892
  107MOL   H24838620   1.307   0.999   6.547 -2.4629  1.7525  0.0247
  107MOL   H24938621   1.081   0.900   6.527 -0.3821 -0.2130 -1.0281
  107MOL   H25038622   1.180   0.883   6.379  2.7254  0.3948  0.8746
  107MOL   H25138623   1.120   0.650   6.568 -0.5420 -0.3326 -0.6692
  107MOL   H25238624   1.053   0.688   6.410 -0.6385 -1.7139  1.0137
  107MOL   H25338625   1.225   0.654   6.427 -0.0620 -0.2163 -0.0122
  107MOL   C25438626   1.333   1.127   6.785 -0.0374 -0.2355  0.4526
  107MOL   C25538627   1.210   1.218   6.766 -0.1504  0.4769 -0.2753
  107MOL   C25638628   1.237   1.330   6.665  0.1323  0.5832 -0.2593
  107MOL   C25738629   1.222   1.295   6.520  0.2705  0.0466  0.4306
  107MOL   C25838630   1.087   1.324   6.454  0.0787 -0.7096 -0.3094
  107MOL   C25938631   1.078   1.273   6.311  0.2848 -0.2186 -0.1084
  107MOL   H26038632   1.391   1.133   6.693 -1.5614  0.2635 -0.5094
  107MOL   H26138633   1.400   1.176   6.855 -0.9588 -0.3181  1.4146
  107MOL   H26238634   1.126   1.160   6.729  2.2354 -1.7549 -2.3124
  107MOL   H26338635   1.189   1.426   6.682  0.4791  1.4599 -3.7725
  107MOL   H26438636   1.341   1.362   6.671  0.9851 -2.1167 -0.0105
  107MOL   H26538637   1.290   1.359   6.464  1.2936 -2.0043 -0.7317
  107MOL   H26638638   1.269   1.201   6.492  1.1077  0.2534  1.0900
  107MOL   H26738639   1.074   1.432   6.444 -2.3334 -1.1474 -2.2681
  107MOL   H26838640   1.000   1.282   6.503 -0.4892  0.8719  0.0791
  107MOL   H26938641   1.055   1.167   6.322 -2.0673 -0.2134 -4.0408
  107MOL   H27038642   1.175   1.276   6.260  1.2271 -1.7134  1.5408
  107MOL   H27138643   1.001   1.324   6.253 -0.5601 -1.0043  0.3045
  107MOL   C27238644   1.169   1.275   6.907 -1.2986  0.4758  1.1244
  107MOL   C27338645   1.019   1.311   6.919  0.2852 -0.4772 -0.4495
  107MOL   C27438646   0.995   1.425   7.021  0.0656  1.0220 -0.3556
  107MOL   C27538647   1.045   1.564   6.984  0.1042 -1.1471  0.1159
  107MOL   C27638648   1.042   1.662   7.114  0.5190  0.1976 -0.0346
  107MOL   C27738649   1.087   1.814   7.087 -1.2101 -0.1095 -0.0153
  107MOL   H27838650   1.183   1.208   6.992 -0.7476 -1.6673 -0.5855
  107MOL   H27938651   1.238   1.353   6.940  0.7242 -0.9188  0.2686
  107MOL   H28038652   0.988   1.344   6.820  0.2882  0.4972 -0.1298
  107MOL   H28138653   1.044   1.409   7.117 -1.6416 -1.6052  0.1390
  107MOL   H28238654   0.888   1.443   7.036  0.1107  0.3229  0.8026
  107MOL   H28338655   0.980   1.605   6.907 -0.5336  0.2797  1.3717
  107MOL   H28438656   1.145   1.560   6.943  0.0570 -0.5113 -0.0651
  107MOL   H28538657   0.943   1.657   7.159  0.2132 -0.4806 -0.7618
  107MOL   H28638658   1.113   1.623   7.188  0.5684 -0.4666 -0.4263
  107MOL   H28738659   1.073   1.855   6.987  1.7609  0.8841 -0.0681
  107MOL   H28838660   1.035   1.883   7.153  3.9171  2.2107  1.8332
  107MOL   H28938661   1.195   1.818   7.100 -1.1793  2.0755 -0.8073
  107MOL   C29038662   0.943   1.181   6.959  0.1338  0.6095 -0.8157
  107MOL   C29138663   0.792   1.176   6.928  0.1288  0.1398 -0.0642
  107MOL   C29238664   0.772   1.156   6.783  1.1177 -0.5211 -0.4575
  107MOL   C29338665   0.833   1.036   6.720  0.4298 -0.5579  0.2381
  107MOL   C29438666   0.723   0.942   6.670  0.0271 -0.3097 -0.3629
  107MOL   C29538667   0.772   0.826   6.593  0.3515  0.5122  0.1995
  107MOL   H29638668   0.954   1.175   7.068  2.3907  0.4798 -1.0103
  107MOL   H29738669   0.999   1.094   6.923  0.0395  0.1660  0.0783
  107MOL   H29838670   0.739   1.256   6.980  1.3052 -1.2274  3.3688
  107MOL   H29938671   0.812   1.243   6.730 -1.2706  1.1936  0.4636
  107MOL   H30038672   0.664   1.151   6.767  0.5917 -2.1444  3.0906
  107MOL   H30138673   0.880   1.068   6.627 -2.0161  1.2993 -0.4184
  107MOL   H30238674   0.901   0.986   6.788  0.4684  1.4743  1.7238
  107MOL   H30338675   0.638   0.988   6.620 -2.4999 -2.1506  2.0928
  107MOL   H30438676   0.677   0.900   6.760 -0.6954  0.4400 -0.3693
  107MOL   H30538677   0.803   0.737   6.649  2.9279  1.6000  0.5630
  107MOL   H30638678   0.852   0.862   6.528 -1.0386  0.5911 -1.5170
  107MOL   H30738679   0.691   0.803   6.524  0.3018  1.8927 -0.2130
  107MOL   C30838680   0.730   1.052   7.004 -0.1974  0.1584 -0.0807
  107MOL   C30938681   0.575   1.048   7.018  0.0244  0.1068  0.1834
  107MOL   C31038682   0.514   1.148   7.122  0.0136  0.3994  0.9375
  107MOL   C31138683   0.574   1.134   7.263  0.3984 -0.1528  0.0133
  107MOL   C31238684   0.475   1.185   7.366 -0.9391 -0.2776 -0.2723
  107MOL   C31338685   0.537   1.227   7.498  0.2870 -0.4826  1.0697
  107MOL   H31438686   0.758   0.958   6.956 -1.5573  0.1629 -0.9044
  107MOL   H31538687   0.770   1.054   7.105  0.4726  0.3230 -0.3505
  107MOL   H31638688   0.531   1.074   6.922 -2.4584 -2.6327  0.4944
  107MOL   H31738689   0.405   1.145   7.126 -0.0285  0.8786  0.2837
  107MOL   H31838690   0.533   1.248   7.084 -2.2860  0.3788 -0.3345
  107MOL   H31938691   0.664   1.195   7.269 -0.3559  1.4862 -4.0037
  107MOL   H32038692   0.598   1.031   7.291  0.0088  0.1399  1.4645
  107MOL   H32138693   0.421   1.270   7.324 -1.8579 -0.8313 -0.2240
  107MOL   H32238694   0.410   1.101   7.391  0.2820 -1.0796  0.2343
  107MOL   H32338695   0.614   1.158   7.531  1.7502 -0.5119 -2.2604
  107MOL   H32438696   0.462   1.235   7.578 -0.7742 -1.0429  0.1400
  107MOL   H32538697   0.586   1.325   7.505  0.3751 -0.5517  1.4760
  107MOL   C32638698   0.521   0.900   7.046 -0.4433  0.0742  0.1971
  107MOL   C32738699   0.377   0.864   7.001  0.0587  0.2466  0.7750
  107MOL   C32838700   0.360   0.831   6.846  0.5965  0.0717 -0.3628
  107MOL   C32938701   0.409   0.694   6.798 -0.4043  0.2302  0.3502
  107MOL   C33038702   0.381   0.659   6.640 -1.0085 -0.2677  0.3358
  107MOL   C33138703   0.497   0.577   6.582  0.4313 -0.7171  0.1413
  107MOL   H33238704   0.536   0.884   7.153 -1.1361  1.3557  0.5020
  107MOL   H33338705   0.586   0.828   6.997 -2.0496 -0.4662 -1.1929
  107MOL   H33438706   0.317   0.951   7.028 -0.8981 -0.8214  2.1884
  107MOL   H33538707   0.257   0.848   6.813  0.4404  0.7596  0.4453
  107MOL   H33638708   0.421   0.906   6.795  0.4194 -0.2991 -1.1157
  107MOL   H33738709   0.367   0.616   6.862  0.6350  1.5191  2.6680
  107MOL   H33838710   0.515   0.682   6.818 -0.5102  0.2284  0.9205
  107MOL   H33938711   0.279   0.622   6.628 -1.2145 -0.3485  2.2337
  107MOL   H34038712   0.386   0.759   6.598  2.3252 -0.6667 -0.3510
  107MOL   H34138713   0.509   0.487   6.643 -0.4017 -1.6731 -1.0787
  107MOL   H34238714   0.582   0.644   6.585 -0.4711  0.4298  0.7185
  107MOL   H34338715   0.486   0.542   6.480  0.0518 -2.4951  0.7657
  107MOL   C34438716   0.318   0.752   7.094 -0.2167  0.9646 -0.2026
  107MOL   C34538717   0.166   0.729   7.088  0.0762  0.7420 -0.5031
  107MOL   C34638718   0.113   0.630   7.193 -0.4687 -0.1363 -0.3317
  107MOL   C34738719   7.692   0.630   7.196  0.2202  0.0943  0.4534
  107MOL   C34838720   7.628   0.517   7.277 -0.2276  0.0150 -0.1921
  107MOL   C34938721   7.472   0.523   7.264 -0.1114 -0.0758  0.4899
  107MOL   H35038722   0.376   0.661   7.079  0.2656  0.5976  3.4072
  107MOL   H35138723   0.345   0.777   7.197  0.2601  2.1696 -0.6134
  107MOL   H35238724   0.141   0.695   6.988 -0.2335  0.8619 -0.4696
  107MOL   H35338725   0.141   0.526   7.174 -2.5961 -0.9208  0.6888
  107MOL   H35438726   0.167   0.644   7.287  1.2673 -1.1610 -1.1456
  107MOL   H35538727   7.659   0.726   7.237 -2.9855 -0.0352 -1.5971
  107MOL   H35638728   7.656   0.624   7.094  1.9726  0.3218 -0.1903
  107MOL   H35738729   7.670   0.419   7.254 -0.6247 -0.5755  1.4747
  107MOL   H35838730   7.661   0.522   7.381 -1.9525  0.5288  0.3575
  107MOL   H35938731   7.424   0.476   7.178 -0.4159 -1.3779  1.3492
  107MOL   H36038732   7.439   0.452   7.340 -0.6672 -1.9094 -1.4245
  107MOL   H36138733   7.428   0.621   7.282  3.2506  1.7358 -0.6894
  107MOL   H36238734   0.113   0.823   7.107 -2.8252 -1.0898  0.8539
  108MOL     C138735   0.893   6.520   0.805 -0.5166  0.3900 -0.1375
  108MOL     C238736   0.926   6.556   0.943 -0.7771 -0.5954 -0.3157
  108MOL     C338737   1.027   6.465   0.999 -0.4030  0.0360 -0.0195
  108MOL     C438738   0.979   6.315   1.010 -0.2342 -0.1027 -0.2464
  108MOL     C538739   1.090   6.227   1.078 -0.3873  0.0529  0.3342
  108MOL     C638740   1.102   6.249   1.231  0.8291 -0.2631 -0.1304
  108MOL     H738741   0.828   6.599   0.767  0.5703  1.9453  1.1721
  108MOL     H838742   0.981   6.512   0.742 -0.1180 -0.2771  0.5028
  108MOL     H938743   0.980   6.649   0.930  0.1845 -1.2061 -0.8005
  108MOL    H1038744   1.056   6.510   1.094  0.2680  1.1609 -0.7449
  108MOL    H1138745   1.116   6.470   0.936 -0.1166  1.2564  0.4686
  108MOL    H1238746   0.965   6.289   0.905 -4.5902 -1.4449  0.5901
  108MOL    H1338747   0.880   6.291   1.047  0.0183 -1.1695 -0.2447
  108MOL    H1438748   1.068   6.120   1.084  0.5762 -0.2849 -1.7637
  108MOL    H1538749   1.189   6.243   1.037  0.2115  0.8088  2.0326
  108MOL    H1638750   1.020   6.227   1.299  0.9593  1.0055  0.4540
  108MOL    H1738751   1.120   6.355   1.247  3.1994 -0.5653 -0.5632
  108MOL    H1838752   1.193   6.198   1.259  0.8534  0.1643  0.5710
  108MOL    H1938753   0.827   6.438   0.779  0.3641 -0.5084  0.4342
  108MOL    C2038754   0.797   6.569   1.026 -0.1742 -0.6243  0.3433
  108MOL    C2138755   0.818   6.585   1.178 -0.1247  0.4695  0.2296
  108MOL    C2238756   0.894   6.719   1.206 -0.1093  0.1946  0.2849
  108MOL    C2338757   0.951   6.731   1.346  0.7530  0.0538  0.3866
  108MOL    C2438758   1.085   6.664   1.354 -0.3284 -0.0051  0.4046
  108MOL    C2538759   1.141   6.664   1.498 -0.4987 -0.2811 -0.3983
  108MOL    H2638760   0.735   6.480   1.017  1.0849 -1.5438  0.6674
  108MOL    H2738761   0.736   6.651   0.987  0.6056 -0.6093 -0.8379
  108MOL    H2838762   0.872   6.499   1.220 -1.4198  0.3795  1.7794
  108MOL    H2938763   0.822   6.798   1.183  2.4192  2.1191 -1.2380
  108MOL    H3038764   0.977   6.736   1.138  0.3321  0.0898  0.7917
  108MOL    H3138765   0.895   6.683   1.426  2.9095  0.1049  1.9876
  108MOL    H3238766   0.961   6.836   1.373  1.9678  0.0080  0.1422
  108MOL    H3338767   1.071   6.560   1.323  0.2228 -0.0648  0.3442
  108MOL    H3438768   1.159   6.699   1.282  0.3867 -0.7359  0.7686
  108MOL    H3538769   1.143   6.764   1.541  2.1255  0.0822 -1.2681
  108MOL    H3638770   1.077   6.614   1.571 -1.0754  0.5138 -0.3493
  108MOL    H3738771   1.239   6.617   1.509  0.6262  1.0656 -3.9744
  108MOL    C3838772   0.677   6.592   1.243  0.6828 -0.5429 -0.2308
  108MOL    C3938773   0.629   6.451   1.274  0.2633 -0.1286 -0.4012
  108MOL    C4038774   0.698   6.396   1.402  0.9290 -0.5113  0.4072
  108MOL    C4138775   0.687   6.249   1.414 -0.2886 -0.7477  0.0883
  108MOL    C4238776   0.757   6.191   1.534  0.0135 -0.0406  0.0479
  108MOL    C4338777   0.716   6.242   1.674 -0.4934  0.7404 -0.1321
  108MOL    H4438778   0.617   6.661   1.183 -1.1166 -2.4251 -0.6540
  108MOL    H4538779   0.685   6.648   1.336 -0.7275  1.3518 -1.2015
  108MOL    H4638780   0.644   6.384   1.190  0.2662 -0.1894 -0.3527
  108MOL    H4738781   0.801   6.432   1.406 -0.3291  3.1981  3.2204
  108MOL    H4838782   0.648   6.443   1.487  0.7301 -0.6985  0.3936
  108MOL    H4938783   0.581   6.225   1.410 -0.5079  0.1393  0.3959
  108MOL    H5038784   0.728   6.213   1.320 -1.7157 -1.8841 -0.1173
  108MOL    H5138785   0.721   6.088   1.530 -0.5833  0.2383 -2.1002
  108MOL    H5238786   0.865   6.185   1.524 -0.1638 -1.5042 -1.1002
  108MOL    H5338787   0.766   6.185   1.752 -0.5527 -2.0839 -2.0854
  108MOL    H5438788   0.610   6.241   1.699  0.1622  0.1805  2.7395
  108MOL    H5538789   0.754   6.341   1.696  3.6753 -0.2499 -2.3308
  108MOL    C5638790   0.475   6.463   1.304 -0.0049  0.0186 -0.5528
  108MOL    C5738791   0.399   6.490   1.173  0.4198 -0.3962 -0.1751
  108MOL    C5838792   0.284   6.590   1.199  0.3593  0.7033 -0.0084
  108MOL    C5938793   0.318   6.738   1.182 -0.6137  1.1253 -0.4104
  108MOL    C6038794   0.208   6.840   1.234 -1.0079  0.2835  0.2163
  108MOL    C6138795   0.081   6.837   1.154  0.3819 -0.0432  0.2992
  108MOL    H6238796   0.417   6.378   1.342 -0.6924  1.3953  1.6063
  108MOL    H6338797   0.462   6.535   1.385 -1.4545  0.5014 -1.2001
  108MOL    H6438798   0.464   6.541   1.102 -0.8282 -2.2133 -2.6856
  108MOL    H6538799   0.201   6.580   1.129 -0.6827 -0.4565  1.3612
  108MOL    H6638800   0.246   6.574   1.300 -0.1377  1.4489 -0.0756
  108MOL    H6738801   0.340   6.761   1.077 -0.1890  2.1828 -0.1028
  108MOL    H6838802   0.408   6.753   1.241  1.3801 -0.8603 -2.8318
  108MOL    H6938803   0.191   6.817   1.339 -1.2550 -1.1496 -0.1271
  108MOL    H7038804   0.252   6.940   1.239  0.3493 -0.3087  0.3688
  108MOL    H7138805   0.005   6.910   1.182  0.3048 -0.2781  0.7141
  108MOL    H7238806   0.084   6.827   1.046  0.3118 -0.2245  0.3142
  108MOL    H7338807   0.035   6.743   1.182 -0.5959  0.6765  1.1643
  108MOL    C7438808   0.355   6.351   1.112  0.4395  0.5196 -0.0484
  108MOL    C7538809   0.346   6.361   0.958  0.6723  0.1670  0.1323
  108MOL    C7638810   0.490   6.338   0.895 -0.0161  0.2705  0.1391
  108MOL    C7738811   0.536   6.193   0.884  0.0244 -0.6741 -0.1086
  108MOL    C7838812   0.666   6.177   0.809  0.6670  1.3857  0.1631
  108MOL    C7938813   0.678   6.042   0.732  0.2650 -0.6865 -0.8216
  108MOL    H8038814   0.432   6.277   1.133  1.2777  1.0372 -1.2092
  108MOL    H8138815   0.260   6.313   1.150 -0.6534  0.2568 -2.9076
  108MOL    H8238816   0.318   6.464   0.933 -0.0917 -0.1367 -0.2804
  108MOL    H8338817   0.496   6.382   0.796 -0.3817 -0.3295 -0.1570
  108MOL    H8438818   0.570   6.384   0.953  0.4466  0.4072 -0.6065
  108MOL    H8538819   0.554   6.150   0.983 -0.1315 -0.2189  0.1188
  108MOL    H8638820   0.460   6.134   0.833 -1.2118  1.0937 -0.3622
  108MOL    H8738821   0.745   6.191   0.883  0.9636  1.5368 -0.1826
  108MOL    H8838822   0.681   6.250   0.729 -0.7018 -0.6524 -2.0162
  108MOL    H8938823   0.777   6.012   0.698  0.8087 -0.2025  0.2945
  108MOL    H9038824   0.657   5.954   0.794  0.5660 -0.7554 -0.8129
  108MOL    H9138825   0.621   6.038   0.640 -1.5273  0.3481  0.2242
  108MOL    C9238826   0.232   6.275   0.907  0.2583 -0.4385  0.1860
  108MOL    C9338827   0.086   6.327   0.931  0.0623  0.3939  0.5497
  108MOL    C9438828   0.054   6.437   0.825  0.1700 -0.7410  0.0370
  108MOL    C9538829   7.662   6.528   0.866  0.1924  0.3044 -0.4940
  108MOL    C9638830   7.520   6.461   0.863 -0.2444 -0.5147  0.9367
  108MOL    C9738831   7.410   6.565   0.879  1.1951  0.0677 -0.1885
  108MOL    H9838832   0.255   6.276   0.800 -0.1340 -0.7043  0.0995
  108MOL    H9938833   0.243   6.174   0.946 -0.3783 -0.3489  0.6068
  108MOL   H10038834   0.086   6.377   1.028  0.9585 -1.8040  1.7153
  108MOL   H10138835   0.034   6.395   0.726  0.5793 -0.6543 -0.0801
  108MOL   H10238836   0.140   6.500   0.805 -1.1087  0.4656 -1.8436
  108MOL   H10338837   7.690   6.564   0.964 -0.5357  0.2952 -0.2823
  108MOL   H10438838   7.659   6.622   0.811 -1.9594  1.3295  1.3097
  108MOL   H10538839   7.499   6.404   0.773 -1.3256  0.2586  0.6885
  108MOL   H10638840   7.489   6.391   0.941 -1.0936 -1.4690 -0.2468
  108MOL   H10738841   7.317   6.508   0.868  2.4221 -2.1171  0.4779
  108MOL   H10838842   7.413   6.612   0.977  0.7978 -0.3597  0.0316
  108MOL   H10938843   7.412   6.655   0.817 -0.2414  0.2672  0.0269
  108MOL   C11038844   7.722   6.202   0.923  0.1375  0.2095 -0.9997
  108MOL   C11138845   7.704   6.115   1.049  0.2358  0.2567  0.4439
  108MOL   C11238846   7.585   6.017   1.023  0.2538 -0.3840 -0.1675
  108MOL   C11338847   7.604   5.916   0.900  0.2801  0.3602 -0.5166
  108MOL   C11438848   7.487   5.823   0.892 -0.5521  0.1187  0.6228
  108MOL   C11538849   7.490   5.714   0.999 -0.7956  0.6155  0.2355
  108MOL   H11638850   7.621   6.228   0.893 -0.1269 -0.5540 -0.7761
  108MOL   H11738851   0.021   6.139   0.838 -1.4697 -0.6554 -0.8717
  108MOL   H11838852   0.072   6.063   1.063  0.1733 -0.0721 -0.3054
  108MOL   H11938853   7.491   6.072   1.012  1.0590  1.0248 -0.1794
  108MOL   H12038854   7.556   5.956   1.108 -0.2346 -1.5834 -1.1714
  108MOL   H12138855   7.687   5.846   0.905 -1.5648 -1.9542 -1.3108
  108MOL   H12238856   7.623   5.965   0.805  1.5239 -2.1049 -1.6031
  108MOL   H12338857   7.472   5.784   0.791  0.0799 -0.8597  0.9057
  108MOL   H12438858   7.400   5.886   0.913 -0.6212 -0.2735  1.5446
  108MOL   H12538859   7.551   5.628   0.972 -1.3674 -0.1332  1.2951
  108MOL   H12638860   7.535   5.754   1.090 -0.7199  0.1103  0.4199
  108MOL   H12738861   7.398   5.657   1.015 -1.0146  0.7890 -0.4163
  108MOL   C12838862   7.677   6.203   1.177 -0.4536  0.1461  0.5520
  108MOL   C12938863   7.644   6.120   1.308  0.1881  0.3199  0.1087
  108MOL   C13038864   7.496   6.152   1.356  0.0558  0.3710 -0.2383
  108MOL   C13138865   7.450   6.067   1.482  0.3226  0.5429 -0.9818
  108MOL   C13238866   7.299   6.084   1.523  0.4086  0.2530 -0.2007
  108MOL   C13338867   7.257   6.226   1.543  0.3097 -0.3859 -0.0552
  108MOL   H13438868   7.597   6.271   1.146 -1.4077 -0.8772  0.7217
  108MOL   H13538869   0.027   6.278   1.192 -0.9673  0.6078  0.9338
  108MOL   H13638870   7.654   6.014   1.283  2.4409  1.2581 -3.3004
  108MOL   H13738871   7.479   6.256   1.383  1.2513  0.8512 -1.3023
  108MOL   H13838872   7.428   6.120   1.278 -0.0100 -1.3738  0.5007
  108MOL   H13938873   7.504   6.103   1.569  0.3984  0.4678 -0.9982
  108MOL   H14038874   7.478   5.962   1.471  1.1355  0.5045  1.1900
  108MOL   H14138875   7.234   6.060   1.440  0.9551  0.2293 -0.6248
  108MOL   H14238876   7.276   6.026   1.612 -0.4189  0.9866  0.0738
  108MOL   H14338877   7.323   6.273   1.617 -0.5928 -0.5858  0.8899
  108MOL   H14438878   7.160   6.233   1.593  0.3110 -1.0054  0.0424
  108MOL   H14538879   7.252   6.285   1.451  1.0322 -1.2359 -0.6469
  108MOL   C14638880   0.016   6.154   1.421 -0.4420 -0.0974 -0.0137
  108MOL   C14738881   0.169   6.134   1.390  0.0390 -0.3116 -0.0169
  108MOL   C14838882   0.201   6.002   1.325  0.6729  0.4631 -0.2955
  108MOL   C14938883   0.341   5.990   1.271 -0.2518  0.4972  0.6007
  108MOL   C15038884   0.384   5.860   1.213 -0.2008 -0.0696 -0.4476
  108MOL   C15138885   0.358   5.847   1.057 -0.2000  0.0007  0.5608
  108MOL   H15238886   0.002   6.261   1.439 -1.5888 -0.0268 -1.2828
  108MOL   H15338887   7.718   6.105   1.515 -0.1287 -2.6557 -1.2346
  108MOL   H15438888   0.187   6.225   1.333 -1.3303  0.4782  0.7954
  108MOL   H15538889   0.127   5.978   1.249 -1.8916 -1.6365  2.7772
  108MOL   H15638890   0.177   5.923   1.395  1.5523  1.0403  0.6698
  108MOL   H15738891   0.362   6.079   1.211 -1.8948  0.3139 -0.2599
  108MOL   H15838892   0.408   6.007   1.356 -1.0147 -0.1755  1.3498
  108MOL   H15938893   0.339   5.770   1.254  0.8606 -0.5033 -0.2534
  108MOL   H16038894   0.490   5.852   1.234 -0.6356 -3.5722  0.5969
  108MOL   H16138895   0.254   5.819   1.040  0.2062 -2.6615  2.1354
  108MOL   H16238896   0.389   5.929   0.993  0.0167 -1.6490 -1.4686
  108MOL   H16338897   0.407   5.757   1.020  1.3864  0.3946  1.6531
  108MOL   C16438898   0.254   6.151   1.516 -0.2361 -0.1228 -0.4509
  108MOL   C16538899   0.219   6.264   1.619  0.1131  0.5546  0.5631
  108MOL   C16638900   0.294   6.219   1.756 -0.0319  0.1774 -0.1815
  108MOL   C16738901   0.242   6.089   1.812  0.1861  1.0458 -0.3520
  108MOL   C16838902   0.248   6.083   1.964  0.6933 -0.5682 -0.8744
  108MOL   C16938903   0.227   5.940   2.007 -0.1657 -0.1601  0.4915
  108MOL   H17038904   0.244   6.057   1.571 -1.3684 -0.5992 -1.4558
  108MOL   H17138905   0.361   6.151   1.493  0.2771  0.6634  1.7079
  108MOL   H17238906   0.112   6.254   1.640  0.3794 -1.5668  0.9590
  108MOL   H17338907   0.268   6.295   1.829  0.4465 -0.6033  0.8237
  108MOL   H17438908   0.403   6.221   1.755  0.0102  1.7269  2.6275
  108MOL   H17538909   0.306   6.005   1.783 -1.0860  0.0687 -0.3786
  108MOL   H17638910   0.141   6.065   1.779  0.1944  2.0236 -1.1374
  108MOL   H17738911   0.173   6.139   2.019  2.0626  2.2445 -1.7992
  108MOL   H17838912   0.352   6.107   1.989 -0.0589 -0.6772  2.6780
  108MOL   H17938913   0.135   5.931   2.065  0.3285 -0.1331  1.2908
  108MOL   H18038914   0.319   5.914   2.060 -0.6331 -2.6535  0.1427
  108MOL   H18138915   0.211   5.870   1.925  0.6010 -0.6635  0.7569
  108MOL   C18238916   0.261   6.402   1.573  0.6182 -0.5679  0.6452
  108MOL   C18338917   0.187   6.527   1.645 -0.5012  0.3559  0.7835
  108MOL   C18438918   0.043   6.535   1.611 -0.6124  0.7047  0.0981
  108MOL   C18538919   0.002   6.559   1.466  0.8263 -0.4688  0.0987
  108MOL   C18638920   7.576   6.569   1.454 -0.3843 -0.6310  0.2287
  108MOL   C18738921   7.540   6.568   1.302  0.6536  0.7550  0.3173
  108MOL   H18838922   0.368   6.418   1.584  0.5736 -0.7111  1.3483
  108MOL   H18938923   0.241   6.404   1.466  0.2821 -1.1971  0.6883
  108MOL   H19038924   0.197   6.524   1.754  0.2823  2.0730  0.7766
  108MOL   H19138925   7.726   6.437   1.628 -0.0217  0.7418  1.9909
  108MOL   H19238926   0.008   6.614   1.678  1.1526  1.5630  0.0290
  108MOL   H19338927   0.024   6.480   1.395 -1.1265 -0.0733 -0.9838
  108MOL   H19438928   0.041   6.653   1.428  0.2956 -0.9757 -1.7513
  108MOL   H19538929   7.547   6.656   1.512  0.2443 -1.1093  1.2801
  108MOL   H19638930   7.536   6.482   1.506 -1.2694 -1.4157 -1.6735
  108MOL   H19738931   7.576   6.483   1.245 -2.1792 -0.5367  0.3603
  108MOL   H19838932   7.591   6.649   1.249 -3.5392  2.0344 -1.9432
  108MOL   H19938933   7.432   6.576   1.292  0.6895 -0.0938 -0.7776
  108MOL   C20038934   0.267   6.655   1.599  0.1982  0.1878 -0.5832
  108MOL   C20138935   0.387   6.696   1.683  0.1277 -0.7689 -0.5550
  108MOL   C20238936   0.463   6.799   1.604 -0.1161 -0.3298  0.3295
  108MOL   C20338937   0.586   6.855   1.674  0.2648 -0.0125  0.1500
  108MOL   C20438938   0.694   6.923   1.588  0.0417 -0.0580 -0.3094
  108MOL   C20538939   0.807   6.986   1.666  0.3304 -0.1167 -0.4247
  108MOL   H20638940   0.205   6.744   1.594  0.4484  0.4053  0.0879
  108MOL   H20738941   0.307   6.638   1.499  2.8066 -2.0873  0.7812
  108MOL   H20838942   0.450   6.607   1.689 -1.6531 -2.1683 -1.8405
  108MOL   H20938943   0.399   6.883   1.576  1.1518  1.2994  2.2071
  108MOL   H21038944   0.488   6.754   1.508  2.3664 -0.5984  1.0889
  108MOL   H21138945   0.640   6.771   1.718 -2.3422 -1.1752  1.1910
  108MOL   H21238946   0.556   6.919   1.758  0.3595 -0.3786  0.4618
  108MOL   H21338947   0.652   7.008   1.536 -0.6846  0.2077  0.7025
  108MOL   H21438948   0.721   6.857   1.505 -2.3530  0.3318 -1.4316
  108MOL   H21538949   0.895   7.020   1.610 -0.5874  2.8230 -0.1413
  108MOL   H21638950   0.782   7.079   1.716  2.8944  1.1991 -1.4699
  108MOL   H21738951   0.843   6.918   1.744  1.6417  0.8312 -0.1741
  108MOL   C21838952   0.335   6.750   1.814  0.0937  0.1887 -0.0413
  108MOL   C21938953   0.414   6.701   1.945  0.5504  1.0969  0.3102
  108MOL   C22038954   0.396   6.548   1.975 -0.5442 -0.4421  0.1266
  108MOL   C22138955   0.482   6.490   2.084 -0.5612 -0.4420 -0.0715
  108MOL   C22238956   0.463   6.335   2.099  0.3125  0.3433 -0.3484
  108MOL   C22338957   0.518   6.271   2.226  0.3056 -0.1950 -0.1025
  108MOL   H22438958   0.328   6.858   1.802 -1.4079  0.0641 -0.3925
  108MOL   H22538959   0.228   6.735   1.822 -0.2325  2.8565  0.8398
  108MOL   H22638960   0.519   6.718   1.919  0.6236  0.6596  0.3100
  108MOL   H22738961   0.424   6.491   1.886  0.9193  1.7651 -0.8788
  108MOL   H22838962   0.290   6.528   1.986 -1.1812  1.7718 -1.6323
  108MOL   H22938963   0.456   6.532   2.181  0.7542  0.1380  0.0476
  108MOL   H23038964   0.585   6.525   2.077 -0.4987 -0.3818  1.0768
  108MOL   H23138965   0.364   6.290   2.094  0.9440 -1.2125  0.9883
  108MOL   H23238966   0.513   6.284   2.017 -0.5029 -0.3535 -0.4195
  108MOL   H23338967   0.534   6.166   2.203  2.2090 -0.0464  0.4914
  108MOL   H23438968   0.444   6.267   2.306 -1.8553 -1.1390 -2.0703
  108MOL   H23538969   0.614   6.313   2.257  0.0212 -0.1544  0.7315
  108MOL   C23638970   0.380   6.792   2.065 -0.1979  0.0047  0.5882
  108MOL   C23738971   0.450   6.933   2.058  0.6003  0.6134  0.6472
  108MOL   C23838972   0.599   6.916   2.085 -0.2998 -0.2763 -0.0163
  108MOL   C23938973   0.677   7.051   2.063  0.0651  0.4192 -0.4349
  108MOL   C24038974   0.822   7.037   2.026 -0.1642  0.0388  0.6016
  108MOL   C24138975   0.878   7.175   1.990  0.1874 -0.3572  0.5307
  108MOL   H24238976   0.273   6.809   2.060 -0.6834 -2.7302  0.7302
  108MOL   H24338977   0.405   6.753   2.164  2.1680  0.7744  0.3236
  108MOL   H24438978   0.445   6.978   1.959 -0.7233  1.4568  1.0913
  108MOL   H24538979   0.621   6.885   2.188  3.4924  0.5102 -0.5077
  108MOL   H24638980   0.652   6.848   2.018  0.3686  0.5140 -0.2914
  108MOL   H24738981   0.671   7.114   2.152  3.6780 -0.5489  0.5755
  108MOL   H24838982   0.625   7.112   1.990 -1.6260  2.0999  2.0641
  108MOL   H24938983   0.873   6.988   2.109  0.7235 -0.0462  0.0143
  108MOL   H25038984   0.837   6.975   1.938  1.5127  1.1300  0.0901
  108MOL   H25138985   0.834   7.221   1.902 -0.1221 -2.0870 -0.2527
  108MOL   H25238986   0.859   7.237   2.077 -0.2069 -0.7549  0.7310
  108MOL   H25338987   0.986   7.171   1.977  0.3592  0.2183  1.7617
  108MOL   C25438988   0.371   7.028   2.155 -0.3081 -0.1907 -0.4902
  108MOL   C25538989   0.226   7.059   2.135 -0.1739  0.0439  0.5116
  108MOL   C25638990   0.187   7.115   1.999 -0.3055  0.4744  0.5399
  108MOL   C25738991   0.254   7.253   1.974  0.0894 -0.7408 -0.5326
  108MOL   C25838992   0.211   7.318   1.839  0.2443 -0.8666 -0.3008
  108MOL   C25938993   0.218   7.466   1.841  0.3695  0.1852  0.2762
  108MOL   H26038994   0.422   7.121   2.183 -1.8967  0.1437  1.3979
  108MOL   H26138995   0.379   6.973   2.248 -2.6268 -0.1887 -0.2494
  108MOL   H26238996   0.160   6.972   2.136 -0.8800  0.5862  1.1714
  108MOL   H26338997   0.230   7.050   1.924 -0.6241  0.4138  0.4059
  108MOL   H26438998   0.078   7.123   1.993 -0.2284  0.5432 -0.8918
  108MOL   H26538999   0.220   7.311   2.060  1.4562  1.4798 -1.4677
  108MOL   H26639000   0.361   7.236   1.985  0.4818  1.9978  0.2699
  108MOL   H26739001   0.117   7.281   1.797  0.3036  0.0506 -1.2625
  108MOL   H26839002   0.277   7.284   1.759 -1.2923 -2.4560 -0.9309
  108MOL   H26939003   0.221   7.490   1.734 -1.9478  1.3739  0.4505
  108MOL   H27039004   0.316   7.491   1.882  1.5361 -2.9344 -0.4945
  108MOL   H27139005   0.138   7.529   1.880  0.6541  0.0893  1.0137
  108MOL   C27239006   0.160   7.152   2.245 -0.0296 -0.1504 -0.0950
  108MOL   C27339007   0.113   7.088   2.384 -0.3778 -0.1632 -0.3687
  108MOL   C27439008   0.238   7.081   2.483 -0.0134 -0.4415  1.2504
  108MOL   C27539009   0.191   7.079   2.626  0.5854  0.1985  0.4359
  108MOL   C27639010   0.309   7.088   2.721  0.2671 -0.0932 -0.3643
  108MOL   C27739011   0.273   7.094   2.859  0.5121 -0.4177 -0.0155
  108MOL   H27839012   0.227   7.236   2.261 -0.7767  0.4411 -0.0226
  108MOL   H27939013   0.070   7.200   2.207  0.6432 -0.4934 -2.2077
  108MOL   H28039014   0.055   7.170   2.426  0.9812  0.2046  0.8648
  108MOL   H28139015   0.291   7.176   2.475 -0.7168 -0.1341  0.1627
  108MOL   H28239016   0.294   6.989   2.466 -1.6831 -1.2410 -0.0723
  108MOL   H28339017   0.134   6.990   2.654 -0.3616  0.3840 -0.8508
  108MOL   H28439018   0.116   7.156   2.644  0.0980  0.1718 -1.4152
  108MOL   H28539019   0.357   6.991   2.713 -0.7604 -0.6297 -0.1093
  108MOL   H28639020   0.371   7.172   2.688  0.3973  1.3305  3.2825
  108MOL   H28739021   0.195   7.021   2.878  0.9289 -1.3540 -1.7927
  108MOL   H28839022   0.355   7.073   2.926  1.9936  0.0305 -1.6379
  108MOL   H28939023   0.226   7.190   2.882  0.0539 -0.6398 -0.0196
  108MOL   C29039024   0.045   6.951   2.369 -0.4712 -0.0213  0.2517
  108MOL   C29139025   7.629   6.954   2.310  0.4078  0.0854 -0.1863
  108MOL   C29239026   7.588   6.811   2.258  0.6772 -0.1831  0.2215
  108MOL   C29339027   7.570   6.709   2.373 -0.8355 -0.3596 -0.0398
  108MOL   C29439028   7.481   6.584   2.341  0.5459 -0.1747 -0.2496
  108MOL   C29539029   7.463   6.511   2.473  0.2317 -0.5014 -0.4798
  108MOL   H29639030   0.033   6.913   2.470 -2.9766 -1.1536 -0.4238
  108MOL   H29739031   0.107   6.884   2.310 -0.0768  1.1653 -0.7196
  108MOL   H29839032   7.655   7.006   2.218  1.3640 -0.8078 -0.4382
  108MOL   H29939033   7.648   6.760   2.183  1.9828  1.0385  0.4138
  108MOL   H30039034   7.495   6.813   2.202 -0.0113 -2.4737  1.2314
  108MOL   H30139035   7.670   6.672   2.396  0.0290 -0.0349 -3.0490
  108MOL   H30239036   7.531   6.769   2.456 -0.5242  0.2231 -0.3121
  108MOL   H30339037   7.538   6.527   2.268 -1.0741 -0.1702 -1.5647
  108MOL   H30439038   7.380   6.613   2.311  0.4968 -1.2201 -1.1256
  108MOL   H30539039   7.441   6.404   2.463 -1.4159 -0.3131  0.8380
  108MOL   H30639040   7.397   6.560   2.544 -0.6435 -1.5073 -0.5915
  108MOL   H30739041   7.556   6.526   2.527 -1.7254  2.9598  2.1349
  108MOL   C30839042   7.520   7.026   2.390 -0.6520 -0.0332 -0.0458
  108MOL   C30939043   7.430   7.129   2.311  0.1267  0.1594 -0.5721
  108MOL   C31039044   7.313   7.181   2.397  0.2188 -0.4988  0.4298
  108MOL   C31139045   7.199   7.076   2.424  0.3232 -0.4681  0.3963
  108MOL   C31239046   7.099   7.118   2.528  0.1860  0.4664  0.6827
  108MOL   C31339047   7.013   7.003   2.575 -0.8389  0.5749  0.0252
  108MOL   H31439048   7.460   6.963   2.455  1.1270 -0.3531  1.2953
  108MOL   H31539049   7.571   7.098   2.453  0.3146 -1.4361  0.7890
  108MOL   H31639050   7.492   7.213   2.278 -1.6413  1.5083 -0.5139
  108MOL   H31739051   7.276   7.274   2.353  1.0120 -1.2733 -1.9598
  108MOL   H31839052   7.354   7.219   2.491  2.1615  0.4579 -0.7654
  108MOL   H31939053   7.247   6.985   2.462 -1.0615 -1.5068 -0.2975
  108MOL   H32039054   7.146   7.057   2.330 -0.6426  0.0130  0.8458
  108MOL   H32139055   7.148   7.164   2.614  1.2990 -1.8242  1.3068
  108MOL   H32239056   7.033   7.193   2.483 -1.0061 -1.3912 -0.7143
  108MOL   H32339057   6.938   7.022   2.652  0.4950  0.4193  1.3934
  108MOL   H32439058   7.078   6.922   2.606  1.7675  2.4142 -0.4763
  108MOL   H32539059   6.952   6.961   2.495  0.6751 -1.8321  0.0949
  108MOL   C32639060   7.371   7.075   2.178  0.7963  0.1606 -0.0892
  108MOL   C32739061   7.274   7.168   2.094 -0.1778  0.0411 -0.2830
  108MOL   C32839062   7.357   7.280   2.023  0.1343  0.5126  0.0284
  108MOL   C32939063   7.266   7.389   1.944 -0.2500  0.1655  0.6928
  108MOL   C33039064   7.336   7.523   1.925 -0.3462 -0.0176  0.6357
  108MOL   C33139065   7.252   7.622   1.839  0.1024  0.1325  0.4656
  108MOL   H33239066   7.318   6.984   2.206  0.3416 -0.1696 -1.9431
  108MOL   H33339067   7.450   7.053   2.108 -0.5656  0.9539 -1.9216
  108MOL   H33439068   7.210   7.219   2.166 -0.9940 -1.6759  0.2165
  108MOL   H33539069   7.418   7.342   2.089 -0.5205  0.9014  0.2786
  108MOL   H33639070   7.428   7.235   1.954 -0.0939  0.9215 -0.4684
  108MOL   H33739071   7.183   7.407   2.012 -0.8234  1.5477 -0.3595
  108MOL   H33839072   7.228   7.346   1.851  0.3955  0.0330  0.4819
  108MOL   H33939073   7.359   7.573   2.019  0.1494 -0.2144  0.6210
  108MOL   H34039074   7.432   7.508   1.875  0.2428  0.3284  1.6312
  108MOL   H34139075   7.200   7.567   1.761 -0.4821  0.6858  0.4566
  108MOL   H34239076   7.309   7.708   1.804 -0.4811  0.0867 -0.6330
  108MOL   H34339077   7.167   7.654   1.900 -2.0610  0.9030 -2.8338
  108MOL   C34439078   7.190   7.096   1.986  0.1106 -0.2455  0.0690
  108MOL   C34539079   7.100   6.982   2.038  0.9841  0.2183 -0.1524
  108MOL   C34639080   7.030   6.905   1.931 -0.1692  0.2155  1.0018
  108MOL   C34739081   6.923   6.988   1.849 -0.8087  0.4313  0.4113
  108MOL   C34839082   6.821   6.910   1.760 -0.5735  0.0902 -0.4069
  108MOL   C34939083   6.734   7.007   1.691  0.5000 -0.4879 -0.1804
  108MOL   H35039084   7.117   7.165   1.944  0.7564  1.2780  1.4152
  108MOL   H35139085   7.251   7.052   1.906  0.1895  0.2779 -0.1635
  108MOL   H35239086   7.029   7.020   2.112  3.2090  1.5806  1.3377
  108MOL   H35339087   7.092   6.838   1.872 -0.6850  0.4385  0.1968
  108MOL   H35439088   6.973   6.831   1.987  1.0275 -0.5280  1.2505
  108MOL   H35539089   6.867   7.054   1.916  0.7513  2.4726 -0.2384
  108MOL   H35639090   6.979   7.057   1.786 -2.0400 -0.2647 -1.5018
  108MOL   H35739091   6.871   6.845   1.688  1.3606  0.6329  0.4117
  108MOL   H35839092   6.759   6.845   1.821  0.4482 -0.7440 -0.2284
  108MOL   H35939093   6.800   7.074   1.636 -1.4686 -1.4130 -3.8236
  108MOL   H36039094   6.668   6.950   1.625  0.8180 -1.2482  0.1504
  108MOL   H36139095   6.659   7.059   1.752 -0.5471  0.4442 -2.2133
  108MOL   H36239096   7.158   6.910   2.096  3.4111  1.5471 -0.8661
  109MOL     C139097   0.365   0.002   1.486  0.0018 -0.2926  0.1334
  109MOL     C239098   0.310   0.096   1.591  0.2353  0.6657 -0.3239
  109MOL     C339099   0.289   0.239   1.535  0.4313  0.4507  0.1065
  109MOL     C439100   0.419   0.329   1.531 -0.1490  0.2960  0.0377
  109MOL     C539101   0.394   0.477   1.522  0.0793 -0.4561  0.0870
  109MOL     C639102   0.303   0.506   1.393  0.4521  0.6237 -0.0850
  109MOL     H739103   0.468   0.018   1.454 -0.2694 -1.8389 -1.6228
  109MOL     H839104   0.382   7.629   1.526  1.5160 -0.1023 -0.0282
  109MOL     H939105   0.213   0.051   1.614  1.0932 -1.1450 -0.1713
  109MOL    H1039106   0.220   0.292   1.601  0.5537  1.2267 -0.3820
  109MOL    H1139107   0.247   0.244   1.434  0.0899  0.4225  0.2484
  109MOL    H1239108   0.486   0.295   1.453  0.6420 -1.0299  1.2523
  109MOL    H1339109   0.481   0.310   1.619  1.3654  0.9038 -0.8923
  109MOL    H1439110   0.346   0.513   1.613 -0.1766 -0.6759  0.0412
  109MOL    H1539111   0.491   0.525   1.525 -0.1777  0.1194 -0.7207
  109MOL    H1639112   0.351   0.466   1.304  2.1008  2.1887  0.0761
  109MOL    H1739113   0.280   0.609   1.366  0.1606  1.2238  2.3354
  109MOL    H1839114   0.203   0.461   1.396  0.8399 -0.1733  0.9903
  109MOL    H1939115   0.300   7.721   1.399  0.7590 -2.7244 -0.2452
  109MOL    C2039116   0.393   0.077   1.727 -0.5588  0.4894 -0.5057
  109MOL    C2139117   0.341   0.161   1.842  0.2888 -0.2672 -0.4838
  109MOL    C2239118   0.187   0.139   1.867  0.2649 -0.3654 -0.1637
  109MOL    C2339119   0.126   0.257   1.943  0.4567  0.4488 -0.0012
  109MOL    C2439120   0.110   0.379   1.860  0.6952  0.5392 -0.1878
  109MOL    C2539121   0.064   0.493   1.945 -0.1768 -0.5195 -0.4352
  109MOL    H2639122   0.499   0.088   1.707 -0.3155 -0.5104  0.2249
  109MOL    H2739123   0.377   7.703   1.764 -2.9316  0.8928 -0.3008
  109MOL    H2839124   0.362   0.265   1.819 -0.5572  0.3617  1.4890
  109MOL    H2939125   0.162   0.056   1.933 -0.3554  0.0963  0.1964
  109MOL    H3039126   0.131   0.111   1.777 -3.3415 -0.1391  1.8851
  109MOL    H3139127   0.185   0.286   2.030 -0.3640  0.9793  0.3815
  109MOL    H3239128   0.032   0.220   1.983  1.0571 -0.2273  0.8159
  109MOL    H3339129   0.204   0.414   1.818  1.2257  0.7480  1.1266
  109MOL    H3439130   0.033   0.349   1.789 -0.1306  1.6409  0.2189
  109MOL    H3539131   7.707   0.474   2.011  0.5668  1.7776  1.2351
  109MOL    H3639132   0.135   0.537   2.015 -0.3447  1.0459 -1.2265
  109MOL    H3739133   0.026   0.572   1.880  1.8904  0.4214 -0.5414
  109MOL    C3839134   0.426   0.115   1.966  0.8377 -0.1091 -0.2956
  109MOL    C3939135   0.568   0.176   1.975  0.3476 -0.2367  0.0703
  109MOL    C4039136   0.585   0.329   1.988 -0.1423  0.1413  0.0906
  109MOL    C4139137   0.731   0.373   1.957 -0.3691 -0.3491  0.0718
  109MOL    C4239138   0.751   0.526   1.952  0.4410  0.1162 -0.2076
  109MOL    C4339139   0.900   0.562   1.972  0.1016  0.3743  0.1419
  109MOL    H4439140   0.428   0.006   1.974 -0.0396 -0.1334 -0.3795
  109MOL    H4539141   0.384   0.141   2.063  2.0867 -0.4339  0.3434
  109MOL    H4639142   0.619   0.154   1.881 -0.8546 -1.5385 -0.3121
  109MOL    H4739143   0.532   0.382   1.910  1.0169 -0.0976 -0.8682
  109MOL    H4839144   0.546   0.368   2.083 -0.4258  0.9039 -0.3325
  109MOL    H4939145   0.797   0.346   2.039  1.5139  1.5485 -0.7601
  109MOL    H5039146   0.769   0.318   1.872  0.8197 -1.1551  1.1177
  109MOL    H5139147   0.713   0.566   1.858 -0.3653 -1.0629 -0.3914
  109MOL    H5239148   0.689   0.579   2.025 -1.2405  0.6989 -2.0006
  109MOL    H5339149   0.931   0.582   2.075 -1.7389  0.7316  0.6422
  109MOL    H5439150   0.922   0.645   1.905  0.6690  0.5587  0.5492
  109MOL    H5539151   0.964   0.480   1.938  2.0275  0.4538  3.3186
  109MOL    C5639152   0.650   0.112   2.081 -0.1640  0.3835  0.6632
  109MOL    C5739153   0.724   7.708   2.028 -0.7469 -0.4337 -0.1769
  109MOL    C5839154   0.764   7.627   2.149 -0.5767 -0.3185  0.3351
  109MOL    C5939155   0.642   7.550   2.205  0.2651 -0.6427 -0.6657
  109MOL    C6039156   0.669   7.482   2.334  0.5123  0.1667 -0.3825
  109MOL    C6139157   0.567   7.368   2.357 -0.5139 -0.1721  0.6825
  109MOL    H6239158   0.729   0.172   2.126  1.8839 -1.8004  0.0943
  109MOL    H6339159   0.591   0.089   2.170 -0.5438  0.9624  0.5637
  109MOL    H6439160   0.655   7.652   1.965 -0.2167 -1.3072  0.0184
  109MOL    H6539161   0.829   7.548   2.112 -1.9480 -0.8346 -1.0096
  109MOL    H6639162   0.826   7.681   2.221 -0.3520  1.2377 -0.9820
  109MOL    H6739163   0.611   7.484   2.124 -0.4908 -1.3821  0.2135
  109MOL    H6839164   0.560   7.618   2.231  1.3324  0.5556 -0.3710
  109MOL    H6939165   0.773   7.448   2.329  0.0570 -1.1232 -1.2302
  109MOL    H7039166   0.657   7.557   2.412 -3.5732 -0.4265 -0.3710
  109MOL    H7139167   0.465   7.392   2.327  0.2774  0.2952 -1.7368
  109MOL    H7239168   0.605   7.282   2.301  1.4045  1.6998 -0.9576
  109MOL    H7339169   0.562   7.318   2.454 -2.0536 -1.1114  0.1504
  109MOL    C7439170   0.852   0.010   1.941  0.0183  0.2588 -0.2792
  109MOL    C7539171   0.939   7.623   1.869  0.2699  0.6649  0.8318
  109MOL    C7639172   0.899   7.584   1.723  0.0163  0.2854 -0.0633
  109MOL    C7739173   0.757   7.564   1.696 -0.5353 -0.8037  0.0851
  109MOL    C7839174   0.695   7.442   1.763 -0.1702  0.3210  0.1757
  109MOL    C7939175   0.559   7.407   1.690  0.3518 -0.1984 -0.1037
  109MOL    H8039176   0.827   0.065   1.850  0.1150 -0.0877 -0.5172
  109MOL    H8139177   0.931   0.061   1.995  0.8029 -1.3339  0.1209
  109MOL    H8239178   0.926   7.526   1.918 -2.2311  0.0494 -0.9582
  109MOL    H8339179   0.927   7.661   1.651 -0.3918 -1.9617 -2.6600
  109MOL    H8439180   0.949   7.499   1.679 -1.8721 -0.9415  0.1149
  109MOL    H8539181   0.704   7.657   1.716  0.4664  0.0826 -1.2365
  109MOL    H8639182   0.756   7.554   1.587 -2.0852  2.0289 -0.2000
  109MOL    H8739183   0.679   7.469   1.867 -1.3383  0.0961  0.0672
  109MOL    H8839184   0.773   7.366   1.754  0.5688  0.8654  1.8231
  109MOL    H8939185   0.575   7.374   1.587 -1.2555 -0.2610 -0.3397
  109MOL    H9039186   0.500   7.330   1.739 -0.2251 -0.7564 -1.6304
  109MOL    H9139187   0.500   7.499   1.684 -2.5067 -2.0039 -0.7468
  109MOL    C9239188   1.093   7.656   1.873 -0.1956 -0.2936 -0.1099
  109MOL    C9339189   1.196   7.582   1.789 -0.1858 -0.4664 -0.9220
  109MOL    C9439190   1.333   7.657   1.780  0.1966  0.1306 -0.3375
  109MOL    C9539191   1.409   7.663   1.918 -0.2749  0.3130  0.6270
  109MOL    C9639192   1.533   0.021   1.917 -0.6010 -0.1981  0.3007
  109MOL    C9739193   1.640   7.697   1.831 -0.2833 -0.6917  0.1611
  109MOL    H9839194   1.101   0.033   1.843 -2.4411 -0.7645 -2.4791
  109MOL    H9939195   1.125   7.640   1.976  0.9260 -0.7337 -0.5133
  109MOL   H10039196   1.165   7.574   1.685  2.9761 -0.9942 -1.8820
  109MOL   H10139197   1.327   0.031   1.741 -1.5327 -0.1512 -0.8377
  109MOL   H10239198   1.392   7.610   1.701  1.4891 -0.6322  1.0715
  109MOL   H10339199   1.339   7.713   1.985 -1.0575  0.4605 -0.2981
  109MOL   H10439200   1.413   7.566   1.970 -0.7465  1.0824  2.1315
  109MOL   H10539201   1.507   0.127   1.907 -0.3634 -0.2504 -0.8481
  109MOL   H10639202   1.569   0.032   2.020 -1.1594  3.4220  0.1646
  109MOL   H10739203   1.633   7.588   1.820 -1.1058 -0.5596 -0.7106
  109MOL   H10839204   1.630   0.008   1.729  0.2327  0.1479  0.4237
  109MOL   H10939205   1.737   7.726   1.870 -0.9744 -0.0112  1.3809
  109MOL   C11039206   1.195   7.436   1.835  0.4563 -0.4566  0.1901
  109MOL   C11139207   1.271   7.340   1.745 -0.0018 -1.2577  0.4576
  109MOL   C11239208   1.187   7.306   1.621 -0.6155 -0.1115  0.2002
  109MOL   C11339209   1.268   7.224   1.524 -0.1640  1.0276  0.3981
  109MOL   C11439210   1.175   7.172   1.408  1.1402 -0.3505  0.7729
  109MOL   C11539211   1.235   7.083   1.298  0.1498 -0.0798  0.1478
  109MOL   H11639212   1.237   7.421   1.934  0.7687 -0.0881  0.1111
  109MOL   H11739213   1.094   7.395   1.837  0.1496  0.3356  0.9770
  109MOL   H11839214   1.367   7.377   1.707 -1.1223 -0.7636 -2.0003
  109MOL   H11939215   1.153   7.388   1.559 -1.7572 -0.4479  0.3682
  109MOL   H12039216   1.096   7.252   1.648 -0.6351  0.6443  1.6689
  109MOL   H12139217   1.323   7.144   1.574 -0.1817 -1.5870 -3.5371
  109MOL   H12239218   1.337   7.294   1.476  0.1767 -0.2125 -0.9447
  109MOL   H12339219   1.133   7.257   1.355  1.6670 -0.2375  0.5391
  109MOL   H12439220   1.086   7.126   1.452  0.4030 -0.5963 -0.9325
  109MOL   H12539221   1.288   6.998   1.341 -1.2840 -0.2573  1.6345
  109MOL   H12639222   1.155   7.051   1.231  0.0435  1.5006 -0.4906
  109MOL   H12739223   1.315   7.124   1.237 -0.4026 -1.1965 -1.3601
  109MOL   C12839224   1.315   7.221   1.826 -0.1860 -0.4078  0.9448
  109MOL   C12939225   1.449   7.239   1.909  0.0516 -0.0014  0.6582
  109MOL   C13039226   1.572   7.193   1.824  0.0842 -0.7838  0.4775
  109MOL   C13139227   1.703   7.271   1.846 -0.0923 -0.1602 -0.3657
  109MOL   C13239228   1.783   7.298   1.722 -0.0128  0.3492  1.1124
  109MOL   C13339229   1.921   7.349   1.753 -0.4864 -0.6063  0.3720
  109MOL   H13439230   1.336   7.131   1.767  1.7625  0.8174 -0.2883
  109MOL   H13539231   1.230   7.198   1.889 -0.9677  1.4216  0.5869
  109MOL   H13639232   1.452   7.347   1.916  0.9498  0.1547 -1.7981
  109MOL   H13739233   1.586   7.085   1.835 -0.7685 -1.0159 -0.6054
  109MOL   H13839234   1.543   7.206   1.720  1.0046 -1.2533  0.1656
  109MOL   H13939235   1.771   7.223   1.916  3.0679  3.2135 -0.9851
  109MOL   H14039236   1.688   7.362   1.904  2.4748 -0.3702  0.6596
  109MOL   H14139237   1.797   7.211   1.657  0.0998  1.7711 -0.7790
  109MOL   H14239238   1.732   7.376   1.666 -0.1670 -0.1371  0.5744
  109MOL   H14339239   1.983   7.371   1.666 -0.7852  2.2748  0.8464
  109MOL   H14439240   1.977   7.281   1.817  2.6842  0.3920 -1.2466
  109MOL   H14539241   1.905   7.446   1.799 -0.3252 -1.1902  1.6810
  109MOL   C14639242   1.438   7.169   2.047  0.2745  0.6763  0.2402
  109MOL   C14739243   1.369   7.236   2.163  0.3372  0.3868  0.3182
  109MOL   C14839244   1.461   7.353   2.217  0.6987 -0.2722  0.1725
  109MOL   C14939245   1.387   7.452   2.310  0.2507  0.2143  0.6657
  109MOL   C15039246   1.274   7.533   2.242 -0.1801  0.1773  0.0887
  109MOL   C15139247   1.233   7.646   2.337  0.2809  0.2624  0.2690
  109MOL   H15239248   1.389   7.072   2.032  2.1296 -0.4960  1.4699
  109MOL   H15339249   1.538   7.150   2.087  0.3172  0.8188  0.2017
  109MOL   H15439250   1.275   7.273   2.121  0.8185  0.3946 -0.7775
  109MOL   H15539251   1.505   7.406   2.132  1.5330  0.9685  1.3598
  109MOL   H15639252   1.550   7.311   2.263  1.0366  0.1282 -0.1108
  109MOL   H15739253   1.348   7.391   2.392  0.1509  0.6349  0.9307
  109MOL   H15839254   1.464   7.519   2.347  1.4065 -1.7870  2.0300
  109MOL   H15939255   1.185   7.474   2.220 -0.4332  0.7757 -0.5191
  109MOL   H16039256   1.305   7.598   2.160 -0.3741  0.2490  0.0699
  109MOL   H16139257   1.313   7.682   2.402  0.5768  0.3298 -0.1378
  109MOL   H16239258   1.186   7.720   2.272 -1.0508 -0.6949  0.1304
  109MOL   H16339259   1.150   7.609   2.398 -0.0590 -2.4338 -1.7520
  109MOL   C16439260   1.334   7.135   2.276  0.0753  0.0406 -0.0828
  109MOL   C16539261   1.428   7.020   2.328  0.1481  0.0945 -0.5314
  109MOL   C16639262   1.563   7.069   2.391 -0.1313 -0.0169  0.0596
  109MOL   C16739263   1.545   7.160   2.511 -0.3930 -0.7250  0.5550
  109MOL   C16839264   1.681   7.179   2.580  0.1269 -0.6239 -0.1393
  109MOL   C16939265   1.673   7.243   2.716  0.4394  0.3074  0.1953
  109MOL   H17039266   1.313   7.202   2.360 -1.1972  1.4380 -1.4963
  109MOL   H17139267   1.246   7.085   2.236  1.1471 -1.0644 -1.0915
  109MOL   H17239268   1.458   6.974   2.233  2.5797  0.9497 -0.2277
  109MOL   H17339269   1.631   7.117   2.320 -1.6317 -1.1986 -2.2160
  109MOL   H17439270   1.614   6.980   2.427 -0.2553 -0.4795 -0.8966
  109MOL   H17539271   1.480   7.107   2.580 -3.7907  1.3757 -0.8918
  109MOL   H17639272   1.495   7.255   2.494 -0.1763 -0.4864  1.2587
  109MOL   H17739273   1.751   7.233   2.516 -1.1441  0.1458 -0.8897
  109MOL   H17839274   1.742   7.090   2.598  2.2089  0.8300  0.2495
  109MOL   H17939275   1.770   7.254   2.765 -0.0690  1.4255  0.9541
  109MOL   H18039276   1.587   7.206   2.772 -0.0905  1.3398  0.0790
  109MOL   H18139277   1.650   7.344   2.681 -2.7857 -1.3910 -2.8920
  109MOL   C18239278   1.352   6.916   2.428 -0.2617 -0.1971  0.6494
  109MOL   C18339279   1.427   6.786   2.468 -0.5174 -0.5777 -0.2671
  109MOL   C18439280   1.428   6.679   2.358  0.4917 -0.3926 -0.6357
  109MOL   C18539281   1.486   6.727   2.223 -0.0231 -0.3013  0.0679
  109MOL   C18639282   1.530   6.616   2.125 -0.4125  0.4435  0.7574
  109MOL   C18739283   1.555   6.671   1.988  0.3086 -0.1702  0.2557
  109MOL   H18839284   1.325   6.977   2.515  0.9893  2.5274 -0.8100
  109MOL   H18939285   1.253   6.881   2.399 -1.4092  2.2482  1.4445
  109MOL   H19039286   1.527   6.824   2.486  0.4971 -2.2654 -2.1314
  109MOL   H19139287   1.508   6.610   2.385  1.0794  0.0764 -1.1701
  109MOL   H19239288   1.334   6.629   2.335  0.5710 -0.2214 -1.3267
  109MOL   H19339289   1.569   6.795   2.242  0.0730  0.4429 -2.8083
  109MOL   H19439290   1.408   6.786   2.174 -0.3219  1.7290  2.8713
  109MOL   H19539291   1.456   6.536   2.117 -0.4374  0.6435 -1.0681
  109MOL   H19639292   1.622   6.564   2.155  0.7772  2.4812  0.7422
  109MOL   H19739293   1.470   6.714   1.936  0.7034 -0.6749 -0.8401
  109MOL   H19839294   1.598   6.589   1.930  0.1947  0.7708 -1.1950
  109MOL   H19939295   1.631   6.749   1.998 -0.0770  0.0447  1.5289
  109MOL   C20039296   1.369   6.730   2.597  0.2727 -0.0270  0.0822
  109MOL   C20139297   1.474   6.647   2.678  0.1947 -0.1289  0.2728
  109MOL   C20239298   1.578   6.737   2.746  0.1985  0.1969  0.6508
  109MOL   C20339299   1.717   6.755   2.678 -0.4579  0.1802  0.9343
  109MOL   C20439300   1.810   6.852   2.753 -0.1921  0.0988  0.1118
  109MOL   C20539301   1.956   6.857   2.700  0.0938  0.4872 -0.6802
  109MOL   H20639302   1.280   6.670   2.582 -1.1609  0.8762  4.3274
  109MOL   H20739303   1.329   6.799   2.672 -1.1650 -1.0957  0.2933
  109MOL   H20839304   1.534   6.580   2.616 -1.7538 -1.5945 -0.0601
  109MOL   H20939305   1.597   6.709   2.849  2.5063 -1.6725 -0.2460
  109MOL   H21039306   1.538   6.838   2.757  0.4303  0.3706 -0.0510
  109MOL   H21139307   1.719   6.786   2.573  2.1921  0.6741  1.0824
  109MOL   H21239308   1.767   6.658   2.683  2.4557  1.4223 -2.2210
  109MOL   H21339309   1.793   6.834   2.859  1.0614 -1.2751  0.1142
  109MOL   H21439310   1.756   6.945   2.742 -0.8219 -0.1083  1.3916
  109MOL   H21539311   1.953   6.848   2.592 -1.2772 -0.5478 -0.5703
  109MOL   H21639312   1.996   6.958   2.716 -3.3893  1.6785  1.0288
  109MOL   H21739313   2.021   6.778   2.738  0.5694 -0.6890 -3.8504
  109MOL   C21839314   1.403   6.551   2.774 -0.6961  0.0585  0.0425
  109MOL   C21939315   1.338   6.424   2.707  0.6841 -0.0993 -0.5988
  109MOL   C22039316   1.197   6.406   2.752  0.0389 -1.0337 -0.1912
  109MOL   C22139317   1.175   6.376   2.904  0.1577  0.2281 -0.3334
  109MOL   C22239318   1.026   6.378   2.939  0.2150 -0.6579  0.1050
  109MOL   C22339319   1.012   6.351   3.090  0.7104  0.0771 -0.1346
  109MOL   H22439320   1.477   6.521   2.849 -0.7120 -0.6239 -0.2188
  109MOL   H22539321   1.339   6.620   2.829 -0.8313  2.0748 -2.5832
  109MOL   H22639322   1.338   6.443   2.599 -0.9776 -1.1566 -0.8003
  109MOL   H22739323   1.157   6.321   2.697 -1.4462 -1.2926  1.2430
  109MOL   H22839324   1.140   6.498   2.739  0.8215 -0.3586  1.0367
  109MOL   H22939325   1.227   6.447   2.969  0.8471 -2.2536  1.8987
  109MOL   H23039326   1.208   6.275   2.929  0.3938  0.1407 -0.9674
  109MOL   H23139327   0.984   6.473   2.906 -1.1570 -1.4481 -0.5027
  109MOL   H23239328   0.974   6.311   2.870 -0.6279  1.5508 -1.4678
  109MOL   H23339329   0.990   6.444   3.142  0.6632  0.6686 -1.2203
  109MOL   H23439330   1.103   6.314   3.137 -0.5928  0.3678  2.7598
  109MOL   H23539331   0.929   6.288   3.124  0.4295  0.4551 -0.1241
  109MOL   C23639332   1.427   6.298   2.728 -0.1089  0.1044 -0.5883
  109MOL   C23739333   1.400   6.173   2.647 -0.4777 -0.6169  0.7485
  109MOL   C23839334   1.373   6.212   2.506  0.3111  0.1039  0.6418
  109MOL   C23939335   1.396   6.092   2.409  0.0145  0.0343  0.3953
  109MOL   C24039336   1.341   6.114   2.265 -0.8435  1.0401  0.7281
  109MOL   C24139337   1.305   5.984   2.195 -0.2736  0.3564 -0.4972
  109MOL   H24239338   1.526   6.326   2.693  0.2008 -0.4896 -0.1895
  109MOL   H24339339   1.439   6.276   2.834 -0.0635  3.6440  0.2215
  109MOL   H24439340   1.491   6.115   2.639 -0.4259 -0.4648  0.2351
  109MOL   H24539341   1.267   6.233   2.510 -0.0727 -1.6980  0.3709
  109MOL   H24639342   1.427   6.302   2.474  0.5226 -0.0105  0.6710
  109MOL   H24739343   1.331   6.010   2.439 -0.4928  0.3122  0.0614
  109MOL   H24839344   1.502   6.066   2.414  0.5079  1.4296 -1.9726
  109MOL   H24939345   1.255   6.180   2.259  0.0402  2.3188  1.7724
  109MOL   H25039346   1.416   6.170   2.208  2.7791 -1.8890  2.3836
  109MOL   H25139347   1.390   5.917   2.191 -0.6599 -0.5671  3.9595
  109MOL   H25239348   1.225   5.931   2.246 -0.6174  1.0800 -0.2723
  109MOL   H25339349   1.268   6.008   2.095  1.2342 -0.0613 -1.1668
  109MOL   C25439350   1.299   6.070   2.717  0.3589 -0.1913  0.5598
  109MOL   C25539351   1.345   5.990   2.845 -0.3287 -0.2974 -0.0624
  109MOL   C25639352   1.451   5.880   2.816 -0.7392  0.1519 -0.2643
  109MOL   C25739353   1.401   5.760   2.732  0.6614  0.5171  0.1675
  109MOL   C25839354   1.509   5.684   2.650  0.3278  0.9933 -0.4901
  109MOL   C25939355   1.542   5.753   2.520 -0.6374  0.6469  0.1102
  109MOL   H26039356   1.252   6.008   2.641 -2.0851 -1.3868  2.9944
  109MOL   H26139357   1.219   6.137   2.748  0.6913  0.6527 -0.3644
  109MOL   H26239358   1.389   6.070   2.903  3.1697 -0.8423 -1.8409
  109MOL   H26339359   1.543   5.920   2.776 -0.5361  0.8057  0.8427
  109MOL   H26439360   1.503   5.843   2.905  0.1088  0.6438 -0.5568
  109MOL   H26539361   1.360   5.687   2.802  0.7843  1.7783  1.5940
  109MOL   H26639362   1.334   5.792   2.652  2.1293  2.2603 -0.4164
  109MOL   H26739363   1.485   5.580   2.626 -2.2867  1.6449 -0.8537
  109MOL   H26839364   1.601   5.685   2.708 -0.5891 -1.6393  1.1203
  109MOL   H26939365   1.645   5.741   2.485 -0.1712  3.0491  0.5945
  109MOL   H27039366   1.562   5.858   2.541  0.0146  0.9971 -2.0978
  109MOL   H27139367   1.472   5.733   2.439 -0.1461  0.9353 -0.3874
  109MOL   C27239368   1.222   5.922   2.908 -0.6103 -0.3006 -0.8674
  109MOL   C27339369   1.239   5.873   3.053  0.3464 -0.2244 -0.1550
  109MOL   C27439370   1.119   5.783   3.098  0.5596  0.6332 -0.1213
  109MOL   C27539371   0.973   5.838   3.090  0.7150 -0.2894 -0.0625
  109MOL   C27639372   0.912   5.838   2.952 -0.3292 -0.4340  0.1911
  109MOL   C27739373   0.777   5.900   2.948  0.0090  0.3958 -0.2763
  109MOL   H27839374   1.151   6.005   2.910  0.7435  0.8338  2.2883
  109MOL   H27939375   1.176   5.849   2.841 -1.6963 -0.7672  0.3614
  109MOL   H28039376   1.323   5.803   3.054  0.6762  0.1752  1.3063
  109MOL   H28139377   1.135   5.756   3.202  1.1795 -1.3159 -0.6988
  109MOL   H28239378   1.121   5.693   3.036  2.4408  0.1315  0.6351
  109MOL   H28339379   0.971   5.944   3.115 -2.5421  0.7599 -4.1283
  109MOL   H28439380   0.900   5.780   3.148  1.5322 -0.6783  0.5983
  109MOL   H28539381   0.974   5.890   2.879  1.2250  0.4207  2.0438
  109MOL   H28639382   0.904   5.733   2.924 -3.0515  0.1569 -1.4233
  109MOL   H28739383   0.718   5.877   3.037 -1.1097  3.4559 -0.1549
  109MOL   H28839384   0.792   6.007   2.939  4.2587 -0.0087  0.9081
  109MOL   H28939385   0.727   5.867   2.857  0.2655 -0.2735 -0.1753
  109MOL   C29039386   1.265   5.987   3.153 -0.0159 -0.0896  0.8963
  109MOL   C29139387   1.408   6.000   3.202  0.2527  0.1859 -0.2824
  109MOL   C29239388   1.440   6.141   3.258  0.1047 -0.5083 -0.1559
  109MOL   C29339389   1.450   6.250   3.159  0.3562  0.6386 -0.3000
  109MOL   C29439390   1.492   6.384   3.221  0.3593  0.4187 -0.0110
  109MOL   C29539391   1.514   6.487   3.114 -1.1453 -0.4091  0.3652
  109MOL   H29639392   1.207   5.970   3.245  0.7150 -1.6671  1.0776
  109MOL   H29739393   1.222   6.083   3.123 -0.1065  0.5170  2.8491
  109MOL   H29839394   1.469   5.988   3.112 -0.9432 -1.0793 -0.9447
  109MOL   H29939395   1.532   6.130   3.316 -1.0788 -3.3964  1.2144
  109MOL   H30039396   1.373   6.165   3.340  0.7544  2.6556 -0.4785
  109MOL   H30139397   1.529   6.218   3.092  0.1210 -3.8420  1.4158
  109MOL   H30239398   1.364   6.262   3.092 -0.6849 -0.0034  0.8984
  109MOL   H30339399   1.581   6.368   3.282 -0.2223 -1.1706  0.4510
  109MOL   H30439400   1.417   6.417   3.293  0.4197 -0.9823  0.7210
  109MOL   H30539401   1.580   6.560   3.161  2.3593 -2.7793 -0.7155
  109MOL   H30639402   1.423   6.540   3.087 -0.3145  1.4605  1.1015
  109MOL   H30739403   1.557   6.436   3.029 -0.5396 -0.8400  0.9287
  109MOL   C30839404   1.441   5.892   3.306 -0.6866  0.0896 -0.4179
  109MOL   C30939405   1.509   5.766   3.246  0.1072 -0.2789  0.2325
  109MOL   C31039406   1.444   5.640   3.297  0.5014  0.1228  0.5715
  109MOL   C31139407   1.467   5.606   3.449  0.3348  0.5530 -0.5162
  109MOL   C31239408   1.379   5.495   3.505 -0.6487 -0.0728 -0.9902
  109MOL   C31339409   1.430   5.439   3.637  0.0445 -0.8355  0.0614
  109MOL   H31439410   1.509   5.943   3.375 -0.3402 -1.2325  0.2250
  109MOL   H31539411   1.360   5.864   3.373  1.6260 -1.3803  1.8303
  109MOL   H31639412   1.507   5.759   3.137 -2.4689 -2.6186  0.3717
  109MOL   H31739413   1.484   5.565   3.229  1.8043  1.5665 -0.2881
  109MOL   H31839414   1.336   5.646   3.282  0.2168 -3.7948  0.5622
  109MOL   H31939415   1.451   5.686   3.520 -0.1977 -0.7819  0.8990
  109MOL   H32039416   1.570   5.572   3.462  0.0005 -0.7102 -1.0664
  109MOL   H32139417   1.271   5.513   3.510 -0.7785 -0.2490 -2.7042
  109MOL   H32239418   1.394   5.420   3.427  0.9972 -4.1460  2.9895
  109MOL   H32339419   1.398   5.337   3.657  1.2694 -1.4353 -0.9757
  109MOL   H32439420   1.404   5.503   3.721 -0.0446 -1.4823  0.5337
  109MOL   H32539421   1.538   5.445   3.627  0.1520  2.3332  2.5982
  109MOL   C32639422   1.659   5.762   3.276  0.2466  0.3004 -0.2542
  109MOL   C32739423   1.747   5.876   3.227 -1.2048  0.2377 -0.4989
  109MOL   C32839424   1.878   5.901   3.309  0.3441 -0.2602 -0.3034
  109MOL   C32939425   1.962   5.766   3.322 -0.5963 -0.4065 -0.2676
  109MOL   C33039426   2.089   5.769   3.406 -0.7176 -0.3049 -0.1185
  109MOL   C33139427   2.172   5.641   3.419  0.2192  0.3488  0.1607
  109MOL   H33239428   1.716   5.671   3.256 -2.0107 -1.4585  1.0782
  109MOL   H33339429   1.665   5.771   3.385  0.4036  1.7679 -0.3682
  109MOL   H33439430   1.692   5.967   3.247 -0.5571  0.1559  1.7728
  109MOL   H33539431   1.937   5.972   3.250  1.0203 -0.5627  0.0041
  109MOL   H33639432   1.847   5.943   3.404  0.7483 -1.9983  0.6246
  109MOL   H33739433   1.989   5.716   3.229  0.3804 -1.4311  0.5451
  109MOL   H33839434   1.904   5.689   3.373 -2.1733  1.0284  0.1429
  109MOL   H33939435   2.159   5.847   3.374  0.1224 -1.0202 -0.0462
  109MOL   H34039436   2.061   5.810   3.503 -1.8032  0.3170 -0.6887
  109MOL   H34139437   2.245   5.623   3.341 -0.0552 -0.9067  0.1863
  109MOL   H34239438   2.106   5.554   3.423  0.6909  0.0607  1.9107
  109MOL   H34339439   2.234   5.647   3.508 -0.6095  0.9512  0.7039
  109MOL   C34439440   1.773   5.863   3.078 -0.0140 -0.2667 -0.0095
  109MOL   C34539441   1.780   5.999   3.003 -0.1469  0.3384  0.4110
  109MOL   C34639442   1.818   6.002   2.850 -0.5413 -0.0580 -0.4342
  109MOL   C34739443   1.832   6.152   2.793 -0.5446 -0.6956 -0.4575
  109MOL   C34839444   1.949   6.226   2.868  0.2801  0.0233  0.0079
  109MOL   C34939445   1.957   6.367   2.809 -0.0984  0.0031 -0.0144
  109MOL   H35039446   1.869   5.811   3.070  0.1586  0.3051 -2.0693
  109MOL   H35139447   1.702   5.794   3.033  1.8373 -2.6440  0.5970
  109MOL   H35239448   1.848   6.056   3.066 -0.2891 -1.9847  2.7805
  109MOL   H35339449   1.914   5.951   2.842  0.4704  1.9826 -1.5782
  109MOL   H35439450   1.759   5.933   2.790 -0.1996  0.5618 -1.5001
  109MOL   H35539451   1.867   6.141   2.690  4.0228 -2.0596  1.0991
  109MOL   H35639452   1.738   6.208   2.793 -1.3460 -2.0276  0.0557
  109MOL   H35739453   1.938   6.224   2.976  3.2899 -1.7756  0.3421
  109MOL   H35839454   2.041   6.171   2.850 -0.0401 -0.3236 -0.5757
  109MOL   H35939455   1.860   6.415   2.822  0.2867  1.0608 -0.9929
  109MOL   H36039456   2.045   6.417   2.849  0.0105 -1.2608  1.3529
  109MOL   H36139457   1.971   6.352   2.702  2.8939 -0.4683  0.4046
  109MOL   H36239458   1.684   6.049   3.018 -1.0087 -0.9758 -0.5753
  110MOL     C139459   5.727   1.703   5.467 -0.0760 -0.3587 -0.5680
  110MOL     C239460   5.804   1.583   5.391 -0.3165 -0.1353  1.0118
  110MOL     C339461   5.893   1.644   5.272 -0.0475 -0.8097 -0.5349
  110MOL     C439462   6.020   1.724   5.319  0.0740  0.4311 -0.4929
  110MOL     C539463   6.107   1.784   5.205  0.0755 -0.1785 -0.1066
  110MOL     C639464   6.220   1.874   5.256  0.3336 -0.6655  0.4076
  110MOL     H739465   5.669   1.668   5.553 -1.5824  0.1920 -1.3428
  110MOL     H839466   5.794   1.774   5.516 -1.9338  0.2831  1.1168
  110MOL     H939467   5.859   1.532   5.470  0.8174 -1.7132 -0.7581
  110MOL    H1039468   5.832   1.707   5.208 -0.9741 -1.4748 -0.3218
  110MOL    H1139469   5.941   1.561   5.220  2.7460  0.4159  0.0060
  110MOL    H1239470   6.081   1.654   5.377  0.6823  1.2313 -0.1562
  110MOL    H1339471   5.990   1.803   5.388 -1.4682  0.6734 -1.4302
  110MOL    H1439472   6.141   1.710   5.133  0.1728 -0.1432 -0.0979
  110MOL    H1539473   6.037   1.843   5.146 -0.0429  0.0995  0.3041
  110MOL    H1639474   6.255   1.941   5.177 -1.8039 -0.0703 -0.0673
  110MOL    H1739475   6.297   1.810   5.299  2.7309  2.0724  0.3335
  110MOL    H1839476   6.191   1.936   5.340  2.7881 -0.1525  0.8982
  110MOL    H1939477   5.648   1.748   5.407 -0.6747 -1.0210 -0.2824
  110MOL    C2039478   5.696   1.491   5.335  0.4298  0.2232  0.4081
  110MOL    C2139479   5.752   1.348   5.281  0.1277 -0.1981  0.3320
  110MOL    C2239480   5.813   1.262   5.401 -0.2264 -0.3023  0.5963
  110MOL    C2339481   5.901   1.141   5.357 -0.3640  0.6020  0.7489
  110MOL    C2439482   5.986   1.074   5.464 -0.4468  0.2224 -0.4453
  110MOL    C2539483   5.981   0.924   5.447 -0.7771  0.5847 -0.0728
  110MOL    H2639484   5.626   1.549   5.275  0.9374  1.6525  1.1890
  110MOL    H2739485   5.632   1.470   5.420 -0.6571  0.8621 -0.2274
  110MOL    H2839486   5.839   1.356   5.216  2.0137  0.4369  2.8294
  110MOL    H2939487   5.733   1.228   5.467  0.7457 -1.5332  1.1607
  110MOL    H3039488   5.871   1.330   5.463 -0.3814  1.0182 -0.6618
  110MOL    H3139489   5.962   1.175   5.273 -0.8450  1.5317  0.7737
  110MOL    H3239490   5.832   1.070   5.312 -0.3020  0.2319  1.2315
  110MOL    H3339491   6.091   1.099   5.452  0.3869 -2.1163  1.5843
  110MOL    H3439492   5.954   1.118   5.559  1.4549  0.6411  0.0236
  110MOL    H3539493   6.029   0.904   5.352  0.8617  1.6323  0.4992
  110MOL    H3639494   6.026   0.866   5.528 -1.3276 -0.2183 -0.3398
  110MOL    H3739495   5.877   0.893   5.442 -0.7275  0.3152  0.5667
  110MOL    C3839496   5.635   1.277   5.207 -0.1456 -0.1412  0.0239
  110MOL    C3939497   5.570   1.353   5.094  0.0610 -0.2296 -0.1600
  110MOL    C4039498   5.675   1.383   4.980 -0.4350 -0.0499 -0.3745
  110MOL    C4139499   5.646   1.515   4.904  0.2322  0.1549  0.0009
  110MOL    C4239500   5.767   1.558   4.813 -0.1905 -0.2943  0.1207
  110MOL    C4339501   5.906   1.554   4.877  1.0411 -0.5542 -0.2707
  110MOL    H4439502   5.562   1.248   5.283  0.2079 -3.8653 -0.9424
  110MOL    H4539503   5.664   1.185   5.156 -1.4602  0.0425 -1.0710
  110MOL    H4639504   5.519   1.443   5.130  2.0371 -0.4819  3.5189
  110MOL    H4739505   5.775   1.369   5.020 -1.4271 -0.4974  2.0245
  110MOL    H4839506   5.665   1.300   4.910 -2.9378  0.4297 -0.6419
  110MOL    H4939507   5.552   1.499   4.850 -1.9414 -0.7347  3.8540
  110MOL    H5039508   5.618   1.603   4.961 -0.8139 -0.4681  0.4845
  110MOL    H5139509   5.777   1.498   4.722  0.4726  2.1040 -1.4286
  110MOL    H5239510   5.752   1.653   4.762 -1.1268 -0.8791 -0.7297
  110MOL    H5339511   5.971   1.630   4.835  1.2396 -0.7882 -0.3881
  110MOL    H5439512   5.948   1.455   4.858 -0.6304 -1.4449  0.4721
  110MOL    H5539513   5.909   1.571   4.985 -1.3705 -1.0841 -0.0947
  110MOL    C5639514   5.459   1.274   5.028 -0.2084 -0.0248 -0.3143
  110MOL    C5739515   5.333   1.247   5.121 -0.2486  0.7767  0.1706
  110MOL    C5839516   5.235   1.149   5.054  0.2639  0.1836 -0.3149
  110MOL    C5939517   5.097   1.133   5.120  1.0255 -0.1091 -0.0841
  110MOL    C6039518   5.028   1.003   5.089 -0.0334  0.0855 -0.1928
  110MOL    C6139519   4.875   1.012   5.125  0.3743  0.0059 -0.1694
  110MOL    H6239520   5.424   1.332   4.942  0.7772 -2.0463 -2.1036
  110MOL    H6339521   5.495   1.186   4.975  1.0238  1.7312 -2.4624
  110MOL    H6439522   5.364   1.184   5.204  0.0597  2.2114  1.1635
  110MOL    H6539523   5.221   1.177   4.949  0.4882 -1.8823 -0.9170
  110MOL    H6639524   5.284   1.053   5.062 -1.4808 -0.6958  0.0546
  110MOL    H6739525   5.034   1.221   5.104  1.9021  0.8800  1.6651
  110MOL    H6839526   5.118   1.121   5.226  3.3088  2.4750 -0.1902
  110MOL    H6939527   5.036   0.972   4.985 -2.2539 -2.5858  0.3741
  110MOL    H7039528   5.063   0.921   5.151 -0.6529 -1.1292 -1.3990
  110MOL    H7139529   4.873   1.047   5.228 -1.1468 -1.7088  0.4198
  110MOL    H7239530   4.818   1.084   5.066 -2.7786 -2.3391 -0.1177
  110MOL    H7339531   4.832   0.914   5.104 -0.9604  0.8691 -1.6076
  110MOL    C7439532   5.273   1.373   5.188  0.2905  0.6125 -0.5070
  110MOL    C7539533   5.230   1.492   5.102 -0.1148  0.2197 -0.2429
  110MOL    C7639534   5.170   1.452   4.960 -0.7209  0.1013 -0.6471
  110MOL    C7739535   5.105   1.561   4.869 -0.3572  0.8087 -0.0830
  110MOL    C7839536   5.057   1.516   4.724 -0.2321 -0.4289 -0.1826
  110MOL    C7939537   5.174   1.499   4.621 -0.3034  0.2715 -0.3792
  110MOL    H8039538   5.185   1.343   5.245  0.5475  2.3511  0.8431
  110MOL    H8139539   5.344   1.400   5.265  1.2775 -2.0561 -0.4159
  110MOL    H8239540   5.320   1.548   5.074 -0.4354  0.9893  0.2299
  110MOL    H8339541   5.239   1.386   4.906 -1.5867  0.8247 -2.6571
  110MOL    H8439542   5.086   1.388   4.989 -0.1754 -0.9385 -1.3044
  110MOL    H8539543   5.012   1.588   4.919 -1.6194 -2.7822 -0.3454
  110MOL    H8639544   5.168   1.649   4.853  1.5186 -0.4919 -0.0548
  110MOL    H8739545   4.987   1.594   4.694  1.1906  2.0779  2.7322
  110MOL    H8839546   4.996   1.425   4.734 -0.2677 -0.3656  0.2056
  110MOL    H8939547   5.193   1.595   4.573 -0.8146  1.0981  1.0677
  110MOL    H9039548   5.271   1.457   4.651 -0.9107 -0.1830  0.9741
  110MOL    H9139549   5.135   1.434   4.542  1.9455  0.2833 -1.5461
  110MOL    C9239550   5.136   1.595   5.174  0.3982  0.7931 -0.5333
  110MOL    C9339551   5.173   1.647   5.315 -0.1052  0.3964 -0.0655
  110MOL    C9439552   5.318   1.713   5.329 -0.3267  0.0354  0.2169
  110MOL    C9539553   5.347   1.824   5.221 -0.0055  0.2824 -0.0763
  110MOL    C9639554   5.498   1.853   5.192  0.2373 -0.4791 -0.4073
  110MOL    C9739555   5.556   1.971   5.257  0.1617  0.4995  0.1612
  110MOL    H9839556   5.120   1.678   5.105 -0.1990  1.0398 -0.0977
  110MOL    H9939557   5.041   1.542   5.183 -0.9908  3.7596  3.5921
  110MOL   H10039558   5.172   1.559   5.379  1.2113  1.2016  1.1035
  110MOL   H10139559   5.393   1.636   5.311  0.1890  0.5592  0.1005
  110MOL   H10239560   5.330   1.746   5.432  1.0592  0.3817 -0.0407
  110MOL   H10339561   5.304   1.781   5.130 -1.9468 -2.2721  1.9778
  110MOL   H10439562   5.290   1.915   5.236  0.3237  0.4518  0.1476
  110MOL   H10539563   5.560   1.764   5.205 -2.4274 -2.2769  0.2472
  110MOL   H10639564   5.507   1.881   5.086  0.5910  0.2899 -0.1803
  110MOL   H10739565   5.656   2.006   5.229  0.5288  0.6074  1.5498
  110MOL   H10839566   5.492   2.057   5.237 -0.2020  0.0763 -0.5112
  110MOL   H10939567   5.547   1.961   5.366 -0.6801 -0.3699  0.0211
  110MOL   C11039568   5.063   1.741   5.365  0.4066 -0.3002 -0.1310
  110MOL   C11139569   4.924   1.690   5.389 -0.0375  0.3873  0.1322
  110MOL   C11239570   4.815   1.765   5.308 -0.2109  0.1738  0.7146
  110MOL   C11339571   4.816   1.741   5.153  0.1427 -0.2343 -0.6876
  110MOL   C11439572   4.701   1.817   5.089 -0.5214 -0.5081 -0.2406
  110MOL   C11539573   4.651   1.755   4.951  0.4086  0.3350 -0.3370
  110MOL   H11639574   5.103   1.787   5.455  1.8093  0.5331 -1.1471
  110MOL   H11739575   5.070   1.827   5.298 -0.2887 -0.7035 -0.7293
  110MOL   H11839576   4.913   1.584   5.365 -0.1089  0.3006  0.5483
  110MOL   H11939577   4.814   1.873   5.322 -0.1662  0.5624 -2.1169
  110MOL   H12039578   4.714   1.733   5.335 -1.5591  2.7778 -1.0533
  110MOL   H12139579   4.796   1.635   5.137  0.0554 -0.3947  0.4182
  110MOL   H12239580   4.915   1.765   5.114  0.2847 -1.5510 -1.1550
  110MOL   H12339581   4.722   1.922   5.067  1.5636 -0.2306  2.7026
  110MOL   H12439582   4.610   1.820   5.148 -0.9635 -0.2488 -0.9359
  110MOL   H12539583   4.584   1.671   4.967 -0.2627  0.8587 -0.3972
  110MOL   H12639584   4.592   1.830   4.898 -0.6367  1.1537  1.9192
  110MOL   H12739585   4.736   1.720   4.893  1.4532  1.6363  0.3835
  110MOL   C12839586   4.891   1.680   5.546  0.4944 -0.0495  0.3049
  110MOL   C12939587   4.978   1.593   5.637  0.6523 -0.1114  0.0350
  110MOL   C13039588   4.966   1.446   5.592  0.4425  0.0943 -0.3695
  110MOL   C13139589   5.051   1.343   5.676 -0.3560  0.2609 -0.7736
  110MOL   C13239590   5.200   1.372   5.652  0.1373  0.1612 -0.1775
  110MOL   C13339591   5.291   1.254   5.702  0.1020 -0.1681 -0.1968
  110MOL   H13439592   4.788   1.650   5.559  0.3301  0.7013  0.8002
  110MOL   H13539593   4.893   1.783   5.583  0.2992 -1.0145  3.1317
  110MOL   H13639594   5.078   1.633   5.618  2.4732 -4.0485  0.8576
  110MOL   H13739595   4.864   1.407   5.600  0.4562 -0.0867 -1.0210
  110MOL   H13839596   4.989   1.440   5.486  0.7319  1.7806 -0.4111
  110MOL   H13939597   5.018   1.248   5.636  1.9574  0.3628 -3.0599
  110MOL   H14039598   5.032   1.334   5.783  0.4248 -0.1068 -0.6628
  110MOL   H14139599   5.210   1.375   5.544 -2.4926  0.8966 -0.4360
  110MOL   H14239600   5.220   1.468   5.700 -0.8726  1.7335 -2.7669
  110MOL   H14339601   5.388   1.252   5.651 -0.5664  0.0093 -1.4975
  110MOL   H14439602   5.240   1.159   5.685 -0.0145  0.0793 -1.2354
  110MOL   H14539603   5.296   1.260   5.811 -1.1353 -0.5388 -0.1162
  110MOL   C14639604   4.928   1.607   5.789  0.1132 -0.4030 -0.2928
  110MOL   C14739605   4.948   1.737   5.873  0.3585  0.5042 -0.0029
  110MOL   C14839606   5.097   1.767   5.910  0.1480  0.0656  0.6444
  110MOL   C14939607   5.152   1.675   6.015 -0.1944  0.4691  0.1984
  110MOL   C15039608   5.307   1.681   6.025  0.5021 -0.0164  0.1051
  110MOL   C15139609   5.364   1.618   6.154 -0.0145 -0.7175 -0.5076
  110MOL   H15239610   4.821   1.590   5.785 -0.4780  2.9942  0.0391
  110MOL   H15339611   4.973   1.524   5.844 -1.3960  0.1107  1.7545
  110MOL   H15439612   4.921   1.817   5.805 -0.7794 -0.2327 -0.4319
  110MOL   H15539613   5.110   1.871   5.938  1.1165  0.1156  0.0142
  110MOL   H15639614   5.153   1.752   5.818  1.3183  0.5891  1.2677
  110MOL   H15739615   5.112   1.716   6.108  0.2281 -1.0145  1.0606
  110MOL   H15839616   5.118   1.575   5.990  2.2419 -0.5798  0.9728
  110MOL   H15939617   5.330   1.787   6.015  1.7976 -0.1909  1.1530
  110MOL   H16039618   5.356   1.638   5.937  0.9650 -0.9844  0.8294
  110MOL   H16139619   5.325   1.518   6.166  0.6282 -0.8355  0.6416
  110MOL   H16239620   5.473   1.625   6.159 -0.2286  3.0760  0.8161
  110MOL   H16339621   5.338   1.684   6.237 -3.6175 -0.7702 -1.5156
  110MOL   C16439622   4.852   1.722   6.002  0.1296  0.4366 -0.1907
  110MOL   C16539623   4.850   1.850   6.085 -0.0015  0.1231  0.3503
  110MOL   C16639624   4.800   1.980   6.002 -0.2501  0.5043 -0.1929
  110MOL   C16739625   4.659   1.974   5.927 -0.6090  0.7031  0.0690
  110MOL   C16839626   4.578   2.101   5.943 -0.7551  0.2033 -1.1073
  110MOL   C16939627   4.606   2.212   5.847 -0.0611  0.6943  0.7444
  110MOL   H17039628   4.753   1.691   5.971 -0.2975  0.2204  1.3507
  110MOL   H17139629   4.887   1.639   6.064 -1.7459  1.7924  2.7696
  110MOL   H17239630   4.954   1.868   6.114  0.1969  0.3375 -0.4787
  110MOL   H17339631   4.874   2.001   5.925 -0.2163  1.4241  0.0941
  110MOL   H17439632   4.812   2.069   6.063  0.1171 -0.6774  1.5243
  110MOL   H17539633   4.599   1.898   5.978 -0.1171 -0.4739 -1.1010
  110MOL   H17639634   4.661   1.938   5.824  3.3851 -0.2053  0.3976
  110MOL   H17739635   4.606   2.144   6.039 -0.5121 -1.0096 -0.6246
  110MOL   H17839636   4.472   2.076   5.936 -0.8078  0.4131 -1.0618
  110MOL   H17939637   4.712   2.211   5.823 -0.6421 -0.1392 -1.9503
  110MOL   H18039638   4.575   2.309   5.886 -1.8977  0.7600 -0.7705
  110MOL   H18139639   4.547   2.194   5.757 -3.7916  0.7708  3.0626
  110MOL   C18239640   4.770   1.820   6.211  0.0879 -0.0898 -0.4484
  110MOL   C18339641   4.785   1.920   6.328  0.2582 -0.0818  0.9078
  110MOL   C18439642   4.929   1.954   6.367  0.2381  0.4598  0.1209
  110MOL   C18539643   5.017   1.835   6.423  0.5237 -0.0108 -0.1936
  110MOL   C18639644   5.146   1.878   6.492  0.2567  0.0742  0.3607
  110MOL   C18739645   5.221   1.775   6.574 -0.3593 -0.1175  0.3514
  110MOL   H18839646   4.666   1.804   6.182  0.2213 -2.5781  0.2966
  110MOL   H18939647   4.809   1.725   6.250 -0.3335 -0.0107  0.1673
  110MOL   H19039648   4.749   2.019   6.297  0.0161 -0.1926  0.8330
  110MOL   H19139649   4.974   1.998   6.279  0.2362  1.5034  0.6405
  110MOL   H19239650   4.928   2.034   6.441 -1.2697  0.5839 -0.0160
  110MOL   H19339651   5.030   1.758   6.347  0.2156  2.5585 -2.9311
  110MOL   H19439652   4.961   1.785   6.502  1.3119  0.3989  0.6363
  110MOL   H19539653   5.114   1.963   6.552  1.9745  0.3697  0.8660
  110MOL   H19639654   5.224   1.914   6.425  1.5229 -1.2409  1.0934
  110MOL   H19739655   5.284   1.823   6.649  0.9184 -0.4517 -0.4884
  110MOL   H19839656   5.287   1.711   6.516  0.4560  1.6522 -0.7322
  110MOL   H19939657   5.143   1.726   6.632  0.4690  0.0009  1.5582
  110MOL   C20039658   4.712   1.880   6.461 -0.2051 -0.1844 -0.9629
  110MOL   C20139659   4.560   1.885   6.456 -0.0334 -0.1092 -0.2916
  110MOL   C20239660   4.503   1.820   6.590 -0.2726  0.2151 -0.0083
  110MOL   C20339661   4.512   1.668   6.592  0.0909  0.0810 -0.2632
  110MOL   C20439662   4.441   1.595   6.708 -0.1404 -0.1941  0.3986
  110MOL   C20539663   4.471   1.448   6.720  0.1648  0.1280  0.4723
  110MOL   H20639664   4.748   1.940   6.545 -0.1634  1.5666 -2.2077
  110MOL   H20739665   4.735   1.779   6.494 -0.3506  0.4108  1.0470
  110MOL   H20839666   4.517   1.818   6.381 -0.0501 -1.0568  0.5678
  110MOL   H20939667   4.401   1.856   6.601  0.2499  0.8000  3.2656
  110MOL   H21039668   4.547   1.866   6.678  0.2206  1.9554 -1.1257
  110MOL   H21139669   4.615   1.632   6.593  0.4083  0.8602 -2.4901
  110MOL   H21239670   4.493   1.615   6.498 -2.2047 -0.8827  0.7026
  110MOL   H21339671   4.334   1.615   6.711  0.0301  1.3524 -2.5302
  110MOL   H21439672   4.474   1.641   6.801 -0.0299 -1.6524  1.0972
  110MOL   H21539673   4.435   1.382   6.641 -1.0139  0.9078  0.3586
  110MOL   H21639674   4.578   1.427   6.723  0.3103  1.0450  2.6549
  110MOL   H21739675   4.418   1.411   6.808 -0.5709  0.0152 -0.0126
  110MOL   C21839676   4.508   2.031   6.427  0.3651 -0.7761 -0.8358
  110MOL   C21939677   4.363   2.032   6.377 -0.5031  0.1463 -0.4982
  110MOL   C22039678   4.350   2.009   6.225  0.5119 -0.2589 -0.3120
  110MOL   C22139679   4.205   1.981   6.173 -0.2038 -0.3014 -0.1868
  110MOL   C22239680   4.209   1.932   6.026 -0.3625 -0.7464 -0.6454
  110MOL   C22339681   4.089   1.844   5.993 -0.0657 -0.3569  0.1845
  110MOL   H22439682   4.515   2.097   6.514 -0.4924 -0.7034 -0.8199
  110MOL   H22539683   4.565   2.096   6.361  2.0914 -1.7555 -0.3547
  110MOL   H22639684   4.310   1.956   6.435  0.5725  2.4320  3.5847
  110MOL   H22739685   4.419   1.928   6.199  0.2200 -0.7629  0.4528
  110MOL   H22839686   4.412   2.080   6.169 -2.2038  2.0031 -0.5217
  110MOL   H22939687   4.135   2.064   6.179  1.1888  0.8522  0.2962
  110MOL   H23039688   4.164   1.909   6.244 -1.1169 -0.2327 -0.6468
  110MOL   H23139689   4.214   2.015   5.954 -1.5702 -2.5724 -2.9072
  110MOL   H23239690   4.293   1.865   6.009 -1.7115 -2.1928 -1.7411
  110MOL   H23339691   4.072   1.847   5.885 -0.1318 -1.2541  0.1648
  110MOL   H23439692   3.993   1.862   6.041 -0.4968  0.6217 -1.0086
  110MOL   H23539693   4.105   1.738   6.013  2.4711  0.1955  1.2993
  110MOL   C23639694   4.295   2.169   6.412 -0.1773  0.2950  0.6334
  110MOL   C23739695   4.229   2.175   6.557  0.0717 -0.7479  0.0252
  110MOL   C23839696   4.107   2.082   6.563 -0.2603  0.4782  0.3714
  110MOL   C23939697   4.114   1.983   6.672 -0.6596 -0.8195 -0.9896
  110MOL   C24039698   4.030   1.869   6.649  0.5021  0.1267  0.0960
  110MOL   C24139699   4.019   1.764   6.765  0.0966 -0.1689 -0.4732
  110MOL   H24239700   4.373   2.244   6.397  1.7965 -1.9661 -0.9048
  110MOL   H24339701   4.213   2.202   6.348 -1.6635  0.1648  2.4246
  110MOL   H24439702   4.303   2.126   6.620 -1.5672 -0.7238  1.9929
  110MOL   H24539703   4.014   2.139   6.564 -0.8132 -0.4185  3.8426
  110MOL   H24639704   4.104   2.030   6.467  1.4002 -0.5038  0.8381
  110MOL   H24739705   4.085   2.030   6.766  2.0039 -0.5930 -0.2521
  110MOL   H24839706   4.215   1.945   6.687  1.0372  3.3363 -1.1003
  110MOL   H24939707   3.930   1.892   6.612 -0.4444 -0.9578  1.9121
  110MOL   H25039708   4.070   1.818   6.562 -1.2935  1.2702 -1.4265
  110MOL   H25139709   4.107   1.702   6.780  0.3676  0.6582  1.4958
  110MOL   H25239710   3.998   1.817   6.858  1.1967  1.4635 -1.1404
  110MOL   H25339711   3.936   1.702   6.729 -0.2683  0.0849 -0.0742
  110MOL   C25439712   4.199   2.318   6.617  0.0790 -0.7751  0.5708
  110MOL   C25539713   4.330   2.402   6.635  0.1905 -0.0134  0.6408
  110MOL   C25639714   4.351   2.457   6.777 -0.0738  0.1702  0.2739
  110MOL   C25739715   4.374   2.341   6.870 -0.2756 -0.4292  0.2547
  110MOL   C25839716   4.435   2.389   7.008 -0.2908 -0.6824 -0.6720
  110MOL   C25939717   4.454   2.276   7.103  0.1843  0.3715  0.2538
  110MOL   H26039718   4.149   2.307   6.713 -0.7121 -1.8304  0.0494
  110MOL   H26139719   4.134   2.383   6.559  0.1189 -0.5814  0.7413
  110MOL   H26239720   4.421   2.345   6.617  1.2619  1.2064  2.0686
  110MOL   H26339721   4.429   2.532   6.789  0.9207 -1.0761  1.6745
  110MOL   H26439722   4.260   2.507   6.812  0.4138 -0.3702  2.3839
  110MOL   H26539723   4.282   2.286   6.887  0.3687 -1.6986 -0.3082
  110MOL   H26639724   4.447   2.273   6.826  0.5375 -0.0259  0.9423
  110MOL   H26739725   4.362   2.458   7.051  0.9614  1.0269 -1.2689
  110MOL   H26839726   4.533   2.435   7.015 -1.0486  1.2634 -2.3538
  110MOL   H26939727   4.539   2.214   7.074  0.5468 -0.1175  2.2679
  110MOL   H27039728   4.363   2.216   7.102  0.1413  0.4423 -0.4840
  110MOL   H27139729   4.476   2.319   7.201 -0.3470 -0.9684  0.9703
  110MOL   C27239730   4.340   2.519   6.530  0.2704  0.1540  0.2740
  110MOL   C27339731   4.477   2.570   6.488 -0.1099  0.0926 -0.2896
  110MOL   C27439732   4.479   2.714   6.434 -0.2011 -0.8691 -0.1910
  110MOL   C27539733   4.406   2.734   6.302 -0.0062 -0.1248  0.3203
  110MOL   C27639734   4.438   2.862   6.221  0.0967  0.3492  0.1785
  110MOL   C27739735   4.577   2.853   6.142  0.0719 -0.5336  0.3855
  110MOL   H27839736   4.282   2.494   6.440  2.3891 -0.4313 -0.9595
  110MOL   H27939737   4.290   2.605   6.574  1.1715 -0.3319  2.2939
  110MOL   H28039738   4.539   2.578   6.578 -0.8541 -0.0907  0.2456
  110MOL   H28139739   4.577   2.762   6.431 -0.6890  0.1109 -0.7858
  110MOL   H28239740   4.418   2.777   6.500  2.7919  1.6823  0.2311
  110MOL   H28339741   4.300   2.714   6.316  0.5880 -2.2772  1.9446
  110MOL   H28439742   4.427   2.653   6.232  0.9315 -0.9798  1.5603
  110MOL   H28539743   4.363   2.872   6.142  1.7720 -0.2676 -1.5407
  110MOL   H28639744   4.432   2.959   6.271 -0.7365  0.8090 -0.7984
  110MOL   H28739745   4.574   2.932   6.066  1.7900 -0.7805  0.0396
  110MOL   H28839746   4.660   2.856   6.212  1.1343  0.9517 -0.9050
  110MOL   H28939747   4.589   2.756   6.093  2.4988  0.4360 -1.0096
  110MOL   C29039748   4.556   2.465   6.402  0.3112  0.3183 -0.2734
  110MOL   C29139749   4.708   2.488   6.394  0.0739 -0.4043 -0.0245
  110MOL   C29239750   4.795   2.494   6.522  0.2468  0.2976  0.4157
  110MOL   C29339751   4.790   2.375   6.610  0.2233  0.2121  0.0906
  110MOL   C29439752   4.876   2.402   6.737 -0.7642  0.1487 -0.4119
  110MOL   C29539753   4.922   2.283   6.817  0.6540  0.5159  0.2975
  110MOL   H29639754   4.517   2.478   6.301  0.3438 -1.5633 -0.5428
  110MOL   H29739755   4.547   2.366   6.447 -0.6206  0.7907  0.6201
  110MOL   H29839756   4.727   2.588   6.354 -2.5679 -0.2035 -0.8715
  110MOL   H29939757   4.752   2.578   6.576 -0.2312  0.3145  0.0182
  110MOL   H30039758   4.893   2.531   6.493 -0.2540  0.9655 -0.4475
  110MOL   H30139759   4.687   2.352   6.636 -0.3931  2.0432 -0.6985
  110MOL   H30239760   4.830   2.286   6.562  1.6391  1.5789 -1.3326
  110MOL   H30339761   4.823   2.465   6.808 -2.3552 -1.6697  0.0758
  110MOL   H30439762   4.964   2.451   6.696 -1.1867  2.6244  1.5617
  110MOL   H30539763   5.006   2.223   6.782  0.7298  0.5083  0.4862
  110MOL   H30639764   4.846   2.205   6.818 -0.0640  1.2019 -0.8960
  110MOL   H30739765   4.943   2.304   6.922 -0.1497 -1.8217  0.9539
  110MOL   C30839766   4.763   2.379   6.299 -0.6114  0.2432  0.1381
  110MOL   C30939767   4.913   2.394   6.242  0.4889  0.1192 -0.2212
  110MOL   C31039768   4.924   2.527   6.168 -0.2525 -0.1385 -0.6832
  110MOL   C31139769   5.008   2.630   6.236  0.0425  0.5610 -1.3672
  110MOL   C31239770   4.989   2.773   6.163 -0.1923 -0.2155  0.1507
  110MOL   C31339771   5.074   2.877   6.234  0.3365 -0.2842  0.1064
  110MOL   H31439772   4.747   2.285   6.352 -0.3584 -0.0695 -0.3309
  110MOL   H31539773   4.695   2.365   6.215  1.0523 -1.3484 -1.0070
  110MOL   H31639774   4.978   2.394   6.329  0.6204  0.0507 -0.3187
  110MOL   H31739775   4.826   2.569   6.143 -0.8390 -0.4944  0.9601
  110MOL   H31839776   4.962   2.512   6.067  3.5619 -3.4290  1.0777
  110MOL   H31939777   5.114   2.608   6.249 -0.1068 -0.3596 -1.6669
  110MOL   H32039778   4.961   2.646   6.334  1.2593  0.9945 -0.8436
  110MOL   H32139779   5.028   2.764   6.062 -2.4291  1.3299 -0.9036
  110MOL   H32239780   4.883   2.798   6.158  0.1921  1.1119 -2.3280
  110MOL   H32339781   5.172   2.842   6.264  0.3503  0.3573  0.8016
  110MOL   H32439782   5.037   2.927   6.323  3.2369 -0.6873  1.6052
  110MOL   H32539783   5.084   2.965   6.171 -1.6327  0.2794  0.5577
  110MOL   C32639784   4.966   2.280   6.149 -0.3199  0.2774 -0.4619
  110MOL   C32739785   5.116   2.291   6.099  0.6544  0.0776  0.0190
  110MOL   C32839786   5.215   2.256   6.216 -0.2137  0.2690 -0.4390
  110MOL   C32939787   5.359   2.311   6.206 -0.1393 -0.4427 -0.0781
  110MOL   C33039788   5.445   2.285   6.334 -0.1833 -0.0969  0.2560
  110MOL   C33139789   5.600   2.285   6.315 -0.3712  0.1350 -0.5049
  110MOL   H33239790   4.893   2.280   6.069 -1.1610  0.6690  0.2993
  110MOL   H33339791   4.960   2.183   6.198 -0.4870  0.0551 -0.9202
  110MOL   H33439792   5.134   2.393   6.066  1.1641 -0.2892 -0.8309
  110MOL   H33539793   5.175   2.300   6.308  0.8170  1.9867 -0.7916
  110MOL   H33639794   5.213   2.149   6.236 -2.6540  0.4141  0.2982
  110MOL   H33739795   5.352   2.418   6.187 -1.4282 -0.5951 -0.4944
  110MOL   H33839796   5.413   2.262   6.125 -0.7793 -1.9368  0.3714
  110MOL   H33939797   5.427   2.353   6.417 -1.7207  0.6984 -0.6850
  110MOL   H34039798   5.422   2.184   6.365  1.0090 -0.3189  0.4358
  110MOL   H34139799   5.642   2.281   6.416 -2.4467  1.2184  0.4496
  110MOL   H34239800   5.616   2.378   6.261 -1.5328  0.7485  0.1838
  110MOL   H34339801   5.637   2.194   6.269 -2.0160 -0.1410 -1.3289
  110MOL   C34439802   5.154   2.194   5.985 -0.3302 -0.9106  0.9292
  110MOL   C34539803   5.076   2.235   5.858  0.3441 -0.4795 -0.1298
  110MOL   C34639804   5.105   2.151   5.732 -0.6296 -0.2867  0.3644
  110MOL   C34739805   5.035   2.199   5.606  0.4401 -0.4178  0.0280
  110MOL   C34839806   5.088   2.119   5.485 -1.1409 -0.5150 -0.1246
  110MOL   C34939807   5.034   2.156   5.349  0.3064  0.8272 -0.2464
  110MOL   H35039808   5.260   2.192   5.961 -0.8656  1.2392 -1.8721
  110MOL   H35139809   5.136   2.088   5.998  0.9967 -1.4948 -1.6257
  110MOL   H35239810   5.091   2.338   5.828  2.1207 -0.8636 -0.6335
  110MOL   H35339811   5.212   2.145   5.711 -0.5253  1.4722  0.3906
  110MOL   H35439812   5.082   2.045   5.749  0.4948 -0.8363 -1.3783
  110MOL   H35539813   4.928   2.181   5.616  0.6403 -1.2320  0.7765
  110MOL   H35639814   5.046   2.305   5.585  0.2648 -0.1628  1.1732
  110MOL   H35739815   5.195   2.139   5.477 -1.7578  2.9670 -0.4147
  110MOL   H35839816   5.079   2.011   5.488 -1.5333 -0.4802  0.0050
  110MOL   H35939817   4.926   2.138   5.352  0.2145  1.1132 -1.5177
  110MOL   H36039818   5.054   2.258   5.318 -0.6372  0.7000 -1.3128
  110MOL   H36139819   5.073   2.085   5.276  0.8012  1.1642 -0.3121
  110MOL   H36239820   4.969   2.214   5.862  0.2774  0.2039  1.8088
  111MOL     C139821   0.017   1.586   7.607  0.2117  0.0971  0.3591
  111MOL     C239822   0.125   1.568   7.502 -0.3681  0.1482  0.5691
  111MOL     C339823   0.247   1.653   7.545 -0.2243  0.5152  0.3003
  111MOL     C439824   0.382   1.605   7.490  0.0218  1.0618  0.0567
  111MOL     C539825   0.499   1.685   7.543 -0.5720 -0.1905 -0.5565
  111MOL     C639826   0.639   1.647   7.490 -0.2631  0.9426 -0.0089
  111MOL     H739827   0.056   1.547   7.701  1.3687 -0.7028 -0.4378
  111MOL     H839828   7.715   1.690   7.620 -2.3721 -0.5358 -0.1818
  111MOL     H939829   0.146   1.461   7.505 -0.1771  0.0542 -2.6359
  111MOL    H1039830   0.256   1.654   7.653 -2.9471 -2.4818  0.6296
  111MOL    H1139831   0.230   1.758   7.520  3.0747  0.7762 -1.0367
  111MOL    H1239832   0.383   1.605   7.381 -1.4744  1.1186  0.0382
  111MOL    H1339833   0.403   1.500   7.512  1.1596  1.3491  0.3626
  111MOL    H1439834   0.481   1.792   7.537 -0.6807 -0.1594  0.2331
  111MOL    H1539835   0.500   1.673   7.652  3.5826 -0.1328 -0.4925
  111MOL    H1639836   0.720   1.684   7.553 -0.4474 -0.9278  1.3851
  111MOL    H1739837   0.651   1.662   7.382  1.1716 -0.8268 -0.1304
  111MOL    H1839838   0.648   1.539   7.502 -1.6997  0.8320  0.1385
  111MOL    H1939839   7.650   1.535   7.589  0.8524 -1.2488  0.6811
  111MOL    C2039840   0.090   1.611   7.355 -0.5932 -0.2166 -0.4067
  111MOL    C2139841   0.026   1.503   7.263 -0.1958  0.0153 -0.1862
  111MOL    C2239842   7.704   1.559   7.126  0.3310  0.3257  0.2345
  111MOL    C2339843   0.088   1.625   7.046  0.3110  0.4090  0.3187
  111MOL    C2439844   0.055   1.651   6.893 -0.3403  0.1846  0.0399
  111MOL    C2539845   0.109   1.790   6.851 -0.1829  0.4254 -0.3195
  111MOL    H2639846   0.184   1.635   7.305 -2.3770  2.5511 -2.6140
  111MOL    H2739847   0.034   1.705   7.353  0.8014  0.7429  2.9267
  111MOL    H2839848   7.662   1.470   7.312 -0.1650 -0.8604 -0.6994
  111MOL    H2939849   7.632   1.636   7.153  1.1321  1.1402  0.0606
  111MOL    H3039850   7.644   1.485   7.073 -1.4317  0.9246  1.3350
  111MOL    H3139851   0.180   1.568   7.035  1.9204  3.2448 -1.4695
  111MOL    H3239852   0.097   1.728   7.082 -0.2273  1.1534 -1.6103
  111MOL    H3339853   0.112   1.579   6.833  0.4192  1.2995 -0.5941
  111MOL    H3439854   7.677   1.639   6.869 -0.0709  0.8336 -1.5486
  111MOL    H3539855   0.056   1.863   6.912  0.2000 -0.1562  0.7248
  111MOL    H3639856   0.212   1.810   6.881 -1.4875  0.6497  4.4734
  111MOL    H3739857   0.101   1.819   6.746  0.9668  0.5087 -0.3939
  111MOL    C3839858   0.117   1.382   7.238 -0.4765  0.1852 -0.1495
  111MOL    C3939859   0.060   1.248   7.189  0.3591 -0.2379  0.7129
  111MOL    C4039860   0.113   1.202   7.051 -0.0080 -0.3960  0.1962
  111MOL    C4139861   0.009   1.119   6.965  0.9882  0.1031 -0.0461
  111MOL    C4239862   0.076   1.067   6.839  0.2210 -0.5922  0.3685
  111MOL    C4339863   7.725   0.955   6.772 -0.1133 -0.0041 -0.2447
  111MOL    H4439864   0.184   1.358   7.321  1.1196 -2.9135 -2.2209
  111MOL    H4539865   0.200   1.413   7.174 -0.1424 -0.7523 -0.1844
  111MOL    H4639866   7.681   1.268   7.171  1.3298  0.6947 -4.7374
  111MOL    H4739867   0.137   1.291   6.992 -1.2049 -0.5483 -0.5449
  111MOL    H4839868   0.203   1.146   7.075  0.0736  0.5635  2.2761
  111MOL    H4939869   7.706   1.026   7.013 -2.2788 -0.2006 -2.4378
  111MOL    H5039870   7.643   1.174   6.952  1.5610  0.3547 -3.4275
  111MOL    H5139871   0.077   1.152   6.770 -0.9038 -1.3120 -0.5629
  111MOL    H5239872   0.174   1.030   6.868  0.3042 -1.6488 -1.1773
  111MOL    H5339873   7.725   0.866   6.834 -0.3866  0.0978 -0.0927
  111MOL    H5439874   0.046   0.942   6.675  0.5425  0.1373  0.0617
  111MOL    H5539875   7.621   0.984   6.753  0.6084  1.6989 -1.7894
  111MOL    C5639876   0.063   1.132   7.285 -0.2166  0.1035  0.1539
  111MOL    C5739877   7.683   1.131   7.399  0.3181 -0.2009 -0.1317
  111MOL    C5839878   0.009   1.044   7.516  0.2540  0.5356 -0.8070
  111MOL    C5939879   0.012   0.893   7.493 -0.0262 -0.5054  0.0625
  111MOL    C6039880   0.071   0.820   7.605  0.2610 -0.0754 -0.0484
  111MOL    C6139881   0.063   0.676   7.587 -0.4625 -0.0004 -0.9493
  111MOL    H6239882   0.033   1.045   7.227 -1.5755  1.6136 -1.4841
  111MOL    H6339883   0.163   1.126   7.327  0.3363  0.2083 -1.1092
  111MOL    H6439884   7.684   1.232   7.442  1.1929 -0.2972  0.0938
  111MOL    H6539885   0.108   1.079   7.545  0.2793  1.3590 -1.8803
  111MOL    H6639886   7.671   1.060   7.602  1.0052 -0.6720  0.0047
  111MOL    H6739887   0.061   0.870   7.398  0.0580 -0.8903  0.1951
  111MOL    H6839888   7.638   0.855   7.480  0.5404 -2.9754  2.3108
  111MOL    H6939889   0.178   0.840   7.607  0.1964  0.2507  0.1014
  111MOL    H7039890   0.033   0.850   7.702  1.5028  0.9679  0.1344
  111MOL    H7139891   0.131   0.643   7.509  1.0185 -1.7219  1.0251
  111MOL    H7239892   0.084   0.628   7.683  0.9353 -2.0371 -2.2413
  111MOL    H7339893   7.688   0.641   7.572 -0.6234 -1.2181  2.4684
  111MOL    C7439894   7.546   1.082   7.347  0.0851  0.1419 -0.3743
  111MOL    C7539895   7.422   1.114   7.433  0.2686 -0.0266 -0.1918
  111MOL    C7639896   7.405   1.262   7.473  0.3185 -0.7256  0.1985
  111MOL    C7739897   7.381   1.367   7.360  0.2965  0.5440 -0.4465
  111MOL    C7839898   7.360   1.515   7.402  0.8632  0.1543 -0.2656
  111MOL    C7939899   7.347   1.604   7.280  0.6529 -0.5912 -0.1668
  111MOL    H8039900   7.522   1.126   7.250 -0.2398  1.3076  0.2303
  111MOL    H8139901   7.548   0.976   7.319  0.1043  0.0043  0.1358
  111MOL    H8239902   7.426   1.047   7.519 -2.8326 -0.0815 -0.0259
  111MOL    H8339903   7.315   1.276   7.532 -0.4469  1.6852 -1.4580
  111MOL    H8439904   7.493   1.288   7.532  0.6662  2.8098 -1.7550
  111MOL    H8539905   7.461   1.362   7.287 -0.1078  2.2024 -1.0349
  111MOL    H8639906   7.291   1.344   7.302 -0.1620  1.1268  0.0228
  111MOL    H8739907   7.447   1.553   7.454  0.9618  0.2602 -0.5049
  111MOL    H8839908   7.273   1.532   7.465 -0.5624 -0.0505 -2.1318
  111MOL    H8939909   7.245   1.633   7.253  1.3904  2.8810  0.5419
  111MOL    H9039910   7.411   1.690   7.299  0.5101 -0.5061 -0.0669
  111MOL    H9139911   7.385   1.553   7.191 -0.3465 -0.0847 -0.9019
  111MOL    C9239912   7.290   1.057   7.375  0.3491 -0.1493  0.1322
  111MOL    C9339913   7.275   0.903   7.349  0.1815 -0.2677  0.5409
  111MOL    C9439914   7.297   0.812   7.477  0.5510  0.7552 -0.0593
  111MOL    C9539915   7.208   0.842   7.594  0.1396  0.4029 -0.7698
  111MOL    C9639916   7.278   0.843   7.726  0.6377 -0.2701  0.0245
  111MOL    C9739917   7.331   0.707   0.031 -0.0249 -0.1075 -0.0485
  111MOL    H9839918   7.206   1.085   7.439 -0.7698 -0.1758 -1.2988
  111MOL    H9939919   7.276   1.103   7.277 -0.4340 -0.2563  0.1920
  111MOL   H10039920   7.357   0.877   7.282  0.4180  2.2025 -0.1814
  111MOL   H10139921   7.402   0.817   7.507  0.3795  0.0497  0.6904
  111MOL   H10239922   7.292   0.707   7.448  1.0026  0.7891 -0.2749
  111MOL   H10339923   7.150   0.935   7.593 -0.7078 -0.0711  1.0201
  111MOL   H10439924   7.129   0.766   7.596  1.2459 -0.7689 -1.0751
  111MOL   H10539925   7.352   0.923   0.007  1.6389 -1.1711 -0.0242
  111MOL   H10639926   7.201   0.869   0.071  0.9405  0.6492  0.0234
  111MOL   H10739927   7.266   0.622   0.051  0.9148 -0.3986  1.7977
  111MOL   H10839928   7.392   0.677   7.673 -0.6532 -0.1761 -0.4846
  111MOL   H10939929   7.400   0.719   0.114  0.6314 -0.3792 -0.5451
  111MOL   C11039930   7.137   0.868   7.282  0.6186 -0.0560 -0.3073
  111MOL   C11139931   7.146   0.745   7.192  0.2748 -0.3267 -0.3932
  111MOL   C11239932   7.208   0.778   7.050  1.1142 -0.6947  0.0280
  111MOL   C11339933   7.233   0.656   6.962  0.4033  0.5055  0.5448
  111MOL   C11439934   7.309   0.689   6.832 -0.2972 -0.4157 -0.1151
  111MOL   C11539935   7.450   0.743   6.840 -0.6244  0.0419 -0.3190
  111MOL   H11639936   7.059   0.863   7.358  0.5929  1.5223 -0.2065
  111MOL   H11739937   7.104   0.952   7.220  1.4309 -0.1871 -0.9292
  111MOL   H11839938   7.217   0.674   7.233  0.0160  0.1799  0.9426
  111MOL   H11939939   7.302   0.830   7.067  1.3583 -0.2614 -2.4729
  111MOL   H12039940   7.148   0.849   6.994  0.2236 -2.1362 -0.9068
  111MOL   H12139941   7.136   0.620   6.929 -0.5687  3.2202  0.3115
  111MOL   H12239942   7.286   0.577   7.015  0.3283 -0.1328 -0.3256
  111MOL   H12339943   7.248   0.761   6.779  0.1032  0.6440  0.8429
  111MOL   H12439944   7.302   0.607   6.761 -0.6871 -1.9904  1.6998
  111MOL   H12539945   7.513   0.681   6.904  0.1137  0.6739 -0.4270
  111MOL   H12639946   7.503   0.733   6.746  0.9745  1.1657  0.4445
  111MOL   H12739947   7.470   0.839   6.886 -0.8874 -0.6202  1.2229
  111MOL   C12839948   7.008   0.671   7.185  0.2257  0.4701 -0.8096
  111MOL   C12939949   6.992   0.576   7.313 -0.4748 -0.1094 -0.1626
  111MOL   C13039950   7.077   0.440   7.289  0.3820 -0.4376  0.0490
  111MOL   C13139951   7.089   0.351   7.408 -0.0940  0.1284  0.1608
  111MOL   C13239952   7.163   0.422   7.529  0.8155  0.1149 -0.1464
  111MOL   C13339953   7.209   0.316   7.629  0.7078  0.4890 -0.4981
  111MOL   H13439954   7.003   0.595   7.107 -1.1437 -1.2656  0.9114
  111MOL   H13539955   6.927   0.742   7.165  0.0716  0.5216 -0.0296
  111MOL   H13639956   7.016   0.631   7.404 -2.1490 -0.6874  0.6557
  111MOL   H13739957   7.025   0.380   7.213 -2.4004 -0.3481  1.8093
  111MOL   H13839958   7.178   0.471   7.264  0.2765  0.0744  0.2448
  111MOL   H13939959   7.137   0.255   7.389  1.6917  0.8164  1.1025
  111MOL   H14039960   6.992   0.312   7.437  0.1485 -1.2166 -0.7635
  111MOL   H14139961   7.250   0.465   7.480  1.1353 -1.0600 -0.6483
  111MOL   H14239962   7.106   0.497   7.582 -0.8971 -0.4582 -1.1388
  111MOL   H14339963   7.248   0.223   7.586  1.4810 -0.2918  1.8583
  111MOL   H14439964   7.126   0.282   7.691 -1.0660  1.1465 -2.4314
  111MOL   H14539965   7.280   0.354   7.701  1.6900 -0.5288 -0.9009
  111MOL   C14639966   6.847   0.537   7.336 -0.1982 -0.5943 -0.3640
  111MOL   C14739967   6.746   0.644   7.361  0.7499  0.8658  0.2864
  111MOL   C14839968   6.769   0.719   7.497  0.1823 -0.2665  0.3091
  111MOL   C14939969   6.821   0.646   7.622  0.1262 -0.4599  0.6165
  111MOL   C15039970   6.869   0.765   7.712  0.2803 -0.0078 -0.6027
  111MOL   C15139971   6.921   0.720   0.120 -0.2880 -0.0320 -0.2469
  111MOL   H15239972   6.821   0.475   7.250 -0.4101 -0.6145 -0.2871
  111MOL   H15339973   6.827   0.461   7.411 -1.1230 -0.8537 -0.8584
  111MOL   H15439974   6.744   0.718   7.282 -1.7411  0.7512  0.2226
  111MOL   H15539975   6.679   0.776   7.519 -0.1418  0.3041 -2.3697
  111MOL   H15639976   6.846   0.792   7.472  1.3856 -1.3124  0.8685
  111MOL   H15739977   6.741   0.585   7.663 -0.3759 -1.1400 -1.3331
  111MOL   H15839978   6.906   0.579   7.613  0.0967 -0.2707 -1.2274
  111MOL   H15939979   6.794   0.844   7.711 -1.4983 -1.6165  1.3221
  111MOL   H16039980   6.951   0.821   7.666  0.5550 -1.7147 -2.2450
  111MOL   H16139981   6.998   0.642   0.119 -1.5268 -1.3086  0.7234
  111MOL   H16239982   6.974   0.802   0.168  1.3489 -0.7208 -0.8354
  111MOL   H16339983   6.840   0.704   0.192 -2.6950  0.2834 -2.8241
  111MOL   C16439984   6.608   0.573   7.356  0.2141 -0.2981 -0.0959
  111MOL   C16539985   6.548   0.557   7.213  0.0022  0.2035 -0.3452
  111MOL   C16639986   6.425   0.471   7.227 -0.1140 -0.3232 -0.0567
  111MOL   C16739987   6.449   0.322   7.244  0.3569  0.3847  0.3250
  111MOL   C16839988   6.316   0.244   7.257  0.2020  0.0907  0.1049
  111MOL   C16939989   6.305   0.107   7.211 -0.0056 -0.4548 -0.3397
  111MOL   H17039990   6.613   0.484   7.420  0.4165  0.3929  0.8557
  111MOL   H17139991   6.543   0.632   7.420  3.2779  1.2530  1.7015
  111MOL   H17239992   6.616   0.491   7.160  0.5199 -0.6760  1.3837
  111MOL   H17339993   6.370   0.489   7.134 -0.6898  0.3711  0.4111
  111MOL   H17439994   6.354   0.502   7.304  1.0930  1.8233  0.2360
  111MOL   H17539995   6.502   0.295   7.335 -0.7243  0.8061  1.0887
  111MOL   H17639996   6.497   0.291   7.152  0.0528  2.4239 -0.5556
  111MOL   H17739997   6.233   0.298   7.213  0.0651 -0.9522 -0.9504
  111MOL   H17839998   6.283   0.246   7.360  1.8497  0.8325  0.6293
  111MOL   H17939999   6.244   0.102   7.121  0.1181 -0.3858 -0.4266
  111MOL   H18040000   6.243   0.041   7.272  0.1772 -0.7396 -0.4639
  111MOL   H18140001   6.403   0.067   7.185  0.2068 -2.0728  2.7185
  111MOL   C18240002   6.540   0.697   7.136  0.2790 -0.2650 -0.8134
  111MOL   C18340003   6.641   0.717   7.022 -0.5245  0.3339  0.0866
  111MOL   C18440004   6.659   0.863   6.978 -0.0369 -0.2335  1.1724
  111MOL   C18540005   6.705   0.944   7.091  0.1333  0.4751  1.1078
  111MOL   C18640006   6.752   1.085   7.048 -0.3064 -0.1949  0.7218
  111MOL   C18740007   6.875   1.104   6.950  0.2168  0.4187  0.0056
  111MOL   H18840008   6.447   0.696   7.080  0.0632  3.2335 -0.6117
  111MOL   H18940009   6.549   0.774   7.213  0.0659 -0.9212 -0.1210
  111MOL   H19040010   6.732   0.680   7.069 -0.4523  1.1475  0.5949
  111MOL   H19140011   6.738   0.851   6.903 -0.7858 -0.0447  0.3494
  111MOL   H19240012   6.573   0.904   6.926  1.2993  1.0055 -0.1141
  111MOL   H19340013   6.787   0.901   7.148  0.4357 -0.7998 -0.2706
  111MOL   H19440014   6.623   0.946   7.163 -0.6147 -2.7850  0.4162
  111MOL   H19540015   6.766   1.135   7.144 -0.2873  0.5357  0.3463
  111MOL   H19640016   6.666   1.142   7.012  0.7414  0.0837 -1.3881
  111MOL   H19740017   6.874   1.207   6.914  1.8531  0.4267 -0.0700
  111MOL   H19840018   6.874   1.035   6.865  1.7375 -0.5254  0.7226
  111MOL   H19940019   6.969   1.095   7.005 -0.3479 -1.6695  0.6436
  111MOL   C20040020   6.601   0.621   6.904  0.0077  0.1232  0.2611
  111MOL   C20140021   6.708   0.584   6.803  0.0558  0.3525 -0.2934
  111MOL   C20240022   6.806   0.492   6.868  0.0424  0.3740 -0.1990
  111MOL   C20340023   6.768   0.347   6.894 -0.1642 -0.0487  0.4647
  111MOL   C20440024   6.886   0.259   6.919  0.3893 -0.3244  0.4314
  111MOL   C20540025   6.861   0.108   6.920 -0.0654 -0.3942 -0.7345
  111MOL   H20640026   6.520   0.671   6.850 -0.2466 -0.7207 -0.1506
  111MOL   H20740027   6.554   0.532   6.945 -3.2466  0.9747 -1.4480
  111MOL   H20840028   6.765   0.675   6.787  2.0613 -0.6515  0.9343
  111MOL   H20940029   6.850   0.522   6.963  0.2839 -2.1521  0.5264
  111MOL   H21040030   6.889   0.480   6.799 -0.5110 -2.6042 -0.4246
  111MOL   H21140031   6.707   0.319   6.808  0.2322  0.7739 -0.0818
  111MOL   H21240032   6.700   0.341   6.980 -0.0103  0.3343  0.6118
  111MOL   H21340033   6.929   0.278   7.017  0.5297 -1.0510  0.5074
  111MOL   H21440034   6.963   0.283   6.846  1.0245  0.0008  1.2007
  111MOL   H21540035   6.954   0.066   6.958  0.6776 -0.4006 -2.4660
  111MOL   H21640036   6.784   0.077   6.990 -1.7209 -0.2047 -2.4182
  111MOL   H21740037   6.840   0.068   6.820  0.5223  0.4406 -1.1961
  111MOL   C21840038   6.641   0.536   6.666  0.5296 -0.6880  0.6100
  111MOL   C21940039   6.744   0.519   6.544 -0.4011  0.1039 -0.4360
  111MOL   C22040040   6.811   0.644   6.481 -0.2227 -0.1102 -0.3976
  111MOL   C22140041   6.952   0.657   6.519 -0.1306 -0.0237 -0.1811
  111MOL   C22240042   7.026   0.778   6.456  0.5026  0.5829 -0.3525
  111MOL   C22340043   7.037   0.768   6.304 -0.1219  0.4718  0.3513
  111MOL   H22440044   6.582   0.446   6.683 -1.3559  0.6314  1.2143
  111MOL   H22540045   6.574   0.618   6.642  0.3171 -0.9609  0.2715
  111MOL   H22640046   6.825   0.468   6.595 -2.0161 -2.4793 -0.3073
  111MOL   H22740047   6.759   0.732   6.521 -0.3403 -0.6071  0.5585
  111MOL   H22840048   6.802   0.650   6.373  0.1713 -3.8261 -0.6820
  111MOL   H22940049   7.010   0.565   6.514 -0.0353 -0.0623  1.3413
  111MOL   H23040050   6.936   0.661   6.627  1.2710 -0.2286  0.0459
  111MOL   H23140051   6.977   0.870   6.488 -0.2135 -0.2512  1.0017
  111MOL   H23240052   7.124   0.777   6.504  1.0812  1.2886 -1.5023
  111MOL   H23340053   6.947   0.810   6.258  1.3695  2.5505 -0.7410
  111MOL   H23440054   7.053   0.668   6.265 -1.5438  0.4312 -0.1559
  111MOL   H23540055   7.102   0.838   6.252 -1.6472  1.8878  0.2899
  111MOL   C23640056   6.686   0.428   6.434 -0.2223  0.1484  0.1904
  111MOL   C23740057   6.810   0.365   6.361  0.0897 -0.3713  0.1135
  111MOL   C23840058   6.764   0.321   6.221  0.4557  0.1294  0.9969
  111MOL   C23940059   6.747   0.429   6.109  0.4109 -0.2144 -0.0493
  111MOL   C24040060   6.712   0.374   5.969  0.2554 -0.2829 -0.1363
  111MOL   C24140061   6.675   0.483   5.871  0.2351 -0.1392 -0.6632
  111MOL   H24240062   6.613   0.355   6.469 -0.8357 -0.3419 -2.0591
  111MOL   H24340063   6.622   0.490   6.371 -0.2712  1.0033  1.0656
  111MOL   H24440064   6.894   0.434   6.355 -1.2305  1.2930  0.3171
  111MOL   H24540065   6.844   0.253   6.190  1.7063  1.6467  0.8244
  111MOL   H24640066   6.670   0.267   6.228 -0.8441  2.1008 -0.7339
  111MOL   H24740067   6.843   0.480   6.109  0.6425 -0.6533  0.7471
  111MOL   H24840068   6.674   0.505   6.138  2.4393  1.4994  0.6532
  111MOL   H24940069   6.789   0.309   5.926  0.6103  0.9608 -1.4170
  111MOL   H25040070   6.636   0.295   5.973 -0.0400 -0.1688 -2.5495
  111MOL   H25140071   6.653   0.441   5.773  1.3615 -2.1337 -0.1079
  111MOL   H25240072   6.598   0.551   5.908  0.9354 -0.5821  1.7387
  111MOL   H25340073   6.764   0.544   5.861 -0.5643  1.3284  0.8717
  111MOL   C25440074   6.864   0.247   6.444  0.2228  0.5485 -0.3610
  111MOL   C25540075   7.010   0.220   6.415  0.0517 -0.1122  0.5616
  111MOL   C25640076   7.035   0.070   6.413  0.1545  0.1832 -0.6658
  111MOL   C25740077   6.995   0.004   6.280 -0.1591  0.3106 -0.4481
  111MOL   C25840078   7.029   7.590   6.258 -0.6271  0.2224  0.3155
  111MOL   C25940079   7.018   7.531   6.118  0.3954  0.7350  0.8586
  111MOL   H26040080   6.806   0.160   6.414  0.0364  0.4329  0.3466
  111MOL   H26140081   6.832   0.253   6.547 -4.3654  0.0698 -1.6576
  111MOL   H26240082   7.046   0.276   6.329  0.4405  2.3201  2.2319
  111MOL   H26340083   7.139   0.052   6.440  0.1247  1.6473  0.4742
  111MOL   H26440084   6.965   0.035   6.488 -0.2940 -0.5750 -1.4325
  111MOL   H26540085   6.894   0.034   6.253 -0.2011  0.3958 -0.1999
  111MOL   H26640086   7.057   0.063   6.212 -1.4665  3.0176  0.6145
  111MOL   H26740087   6.963   7.537   6.326  0.4145 -0.2523  0.9690
  111MOL   H26840088   7.127   7.571   6.302 -1.0347  1.9370  2.0634
  111MOL   H26940089   6.961   7.439   6.129 -2.0294  2.2459  1.3916
  111MOL   H27040090   7.113   7.527   6.064 -0.2276  0.5454 -0.2226
  111MOL   H27140091   6.965   7.595   6.048  0.5840 -1.1261 -1.0314
  111MOL   C27240092   7.088   0.278   6.534  0.6773 -0.4017  0.5692
  111MOL   C27340093   7.237   0.302   6.507 -0.4570 -0.2082  0.7478
  111MOL   C27440094   7.307   0.299   6.650 -0.1680  0.8193  0.3350
  111MOL   C27540095   7.454   0.349   6.659 -0.0293  0.4370  0.2934
  111MOL   C27640096   7.509   0.358   6.800 -0.0502  0.1614  0.4588
  111MOL   C27740097   7.652   0.431   6.808 -0.2670 -0.3896  0.4750
  111MOL   H27840098   7.051   0.370   6.578 -1.2252 -0.8701 -0.0134
  111MOL   H27940099   7.080   0.211   6.619 -0.7792 -0.5904  0.2974
  111MOL   H28040100   7.286   0.218   6.458 -0.2517 -0.9201  2.1421
  111MOL   H28140101   7.325   0.202   6.696 -0.3077  1.8167  2.5428
  111MOL   H28240102   7.246   0.359   6.717 -0.7653 -0.3019  0.7936
  111MOL   H28340103   7.449   0.454   6.630  1.1046  1.1287  2.5315
  111MOL   H28440104   7.517   0.298   6.587  1.0679  2.3017 -0.0902
  111MOL   H28540105   7.434   0.403   6.865  1.3789  0.5633  1.8707
  111MOL   H28640106   7.521   0.256   6.836 -1.9166  0.0258  0.7386
  111MOL   H28740107   7.639   0.537   6.787 -1.2991 -0.6434 -0.2314
  111MOL   H28840108   7.695   0.435   6.908  0.8401  1.1340 -0.0418
  111MOL   H28940109   0.002   0.383   6.749  1.2708  1.4825  0.9129
  111MOL   C29040110   7.265   0.425   6.420  0.0876 -0.6343  0.1909
  111MOL   C29140111   7.382   0.415   6.323  1.0357 -0.4986 -0.7863
  111MOL   C29240112   7.352   0.334   6.201  0.7897 -0.4363  0.5932
  111MOL   C29340113   7.252   0.393   6.091 -0.1199  0.2187  0.1060
  111MOL   C29440114   7.207   0.288   5.989  0.6362 -0.0013 -0.0471
  111MOL   C29540115   7.093   0.322   5.897 -0.2812 -0.2559 -0.0320
  111MOL   H29640116   7.280   0.507   6.491 -1.1654 -0.9806  0.8672
  111MOL   H29740117   7.176   0.451   6.364  0.4367  0.3451  0.0754
  111MOL   H29840118   7.454   0.356   6.380  0.2164 -1.5202 -0.7912
  111MOL   H29940119   7.307   0.240   6.234 -2.9969  0.3496 -2.1130
  111MOL   H30040120   7.444   0.317   6.145 -1.0077  0.4075 -2.7521
  111MOL   H30140121   7.166   0.430   6.147 -0.0984 -1.4652  1.2729
  111MOL   H30240122   7.300   0.473   6.033  1.3553 -0.1433  0.7991
  111MOL   H30340123   7.177   0.194   6.034  0.1574  0.0092 -0.3360
  111MOL   H30440124   7.288   0.258   5.923 -0.0490  1.1329 -1.4582
  111MOL   H30540125   7.124   0.398   5.825 -2.8301  1.4069  0.5287
  111MOL   H30640126   7.001   0.363   5.940 -0.0098 -0.9445  1.2205
  111MOL   H30740127   7.078   0.244   5.822 -0.0533 -1.0387  0.7378
  111MOL   C30840128   7.433   0.561   6.297 -0.6028  0.0626 -0.3947
  111MOL   C30940129   7.561   0.567   6.213 -0.6655 -0.0153 -0.8046
  111MOL   C31040130   7.678   0.505   6.297 -0.1558 -0.4571  0.1368
  111MOL   C31140131   0.073   0.468   6.216  0.2927  0.0464  0.9119
  111MOL   C31240132   0.168   0.376   6.297 -0.5454 -0.1286  0.3367
  111MOL   C31340133   0.271   0.310   6.204 -0.0077 -0.5392 -0.1601
  111MOL   H31440134   7.357   0.613   6.239 -0.2818  1.4385  0.3769
  111MOL   H31540135   7.424   0.623   6.386  0.5523 -1.1366  0.5672
  111MOL   H31640136   7.554   0.499   6.128  0.3443 -1.7730  0.4920
  111MOL   H31740137   7.633   0.416   6.343 -0.1891 -0.8918 -0.7293
  111MOL   H31840138   7.708   0.565   6.383  0.5077 -0.8102  0.1564
  111MOL   H31940139   0.127   0.557   6.183 -0.3687 -0.5408 -1.9193
  111MOL   H32040140   0.039   0.414   6.127  1.5800  2.3907 -1.0398
  111MOL   H32140141   0.231   0.422   6.374  0.4033  2.3660 -1.8628
  111MOL   H32240142   0.110   0.302   6.351 -1.2693  0.3374  0.1969
  111MOL   H32340143   0.234   0.253   6.119 -0.0537 -0.9790  0.1536
  111MOL   H32440144   0.330   0.240   6.264  2.3002  1.3560 -0.1246
  111MOL   H32540145   0.345   0.382   6.168 -0.4851 -0.7624 -1.5922
  111MOL   C32640146   7.602   0.707   6.164  0.5800 -0.0935 -0.6883
  111MOL   C32740147   7.536   0.751   6.028  0.1212  0.4105  0.3810
  111MOL   C32840148   7.546   0.898   5.992 -0.8122  0.7255 -0.8201
  111MOL   C32940149   7.489   1.001   6.096  0.0143  1.1412 -0.3745
  111MOL   C33040150   7.519   1.144   6.047  0.0123  0.1213  1.2257
  111MOL   C33140151   7.463   1.256   6.143 -0.1786 -0.4984 -0.5979
  111MOL   H33240152   7.708   0.714   6.140  0.4812  2.0524 -0.6158
  111MOL   H33340153   7.577   0.779   6.242 -0.0045 -0.9359 -0.0793
  111MOL   H33440154   7.431   0.732   6.050 -0.2843  0.6912 -1.2593
  111MOL   H33540155   7.650   0.923   5.969 -0.3303 -0.1976  0.3276
  111MOL   H33640156   7.492   0.914   5.898 -2.8138  0.7212  0.3211
  111MOL   H33740157   7.535   0.979   6.193  0.5466 -1.4117 -1.1674
  111MOL   H33840158   7.384   0.995   6.124  0.2160  0.7092  0.2882
  111MOL   H33940159   7.626   1.162   6.034  0.0069 -1.7601 -1.7905
  111MOL   H34040160   7.467   1.165   5.954 -0.3642 -2.7281  0.7464
  111MOL   H34140161   7.356   1.245   6.159 -0.0980 -1.4455 -0.6411
  111MOL   H34240162   7.462   1.360   6.111  1.2960  0.0019  0.9110
  111MOL   H34340163   7.523   1.257   6.234  0.5875  3.9809 -1.0354
  111MOL   C34440164   7.587   0.665   5.907 -0.3413  0.5106  0.4767
  111MOL   C34540165   7.467   0.626   5.809  0.3788  0.2601  0.7258
  111MOL   C34640166   7.519   0.538   5.698 -0.5815 -0.2521 -0.5850
  111MOL   C34740167   7.516   0.391   5.733  0.7319  0.1436 -0.6719
  111MOL   C34840168   7.561   0.294   5.621 -0.1125 -0.0478  0.1850
  111MOL   C34940169   7.553   0.145   5.663  0.3010  0.0042 -0.1806
  111MOL   H35040170   7.666   0.719   5.855 -1.2318  2.4878  1.1361
  111MOL   H35140171   7.628   0.571   5.945  2.6561  1.2596 -0.7799
  111MOL   H35240172   7.430   0.719   5.766 -1.6140 -0.7139  0.2971
  111MOL   H35340173   7.452   0.548   5.613  1.2790  0.5479 -1.9949
  111MOL   H35440174   7.620   0.561   5.665 -0.4192 -0.8157 -0.4995
  111MOL   H35540175   7.578   0.381   5.822 -1.4459 -1.1886  0.7524
  111MOL   H35640176   7.419   0.361   5.772  0.6799 -2.0011 -2.3508
  111MOL   H35740177   7.514   0.305   5.523 -1.3943  4.4371  1.1919
  111MOL   H35840178   7.663   0.319   5.593 -0.2826 -0.0712 -0.4562
  111MOL   H35940179   7.458   0.126   5.713 -1.0476  3.8070 -1.0733
  111MOL   H36040180   7.570   0.075   5.581 -1.8665  0.3604 -0.9645
  111MOL   H36140181   7.636   0.115   5.727  0.2333  1.0183  0.4067
  111MOL   H36240182   7.378   0.587   5.857 -0.8735  2.8890  0.6437
  112MOL     C140183   1.893   3.162   0.649 -0.4014 -0.0634  0.1054
  112MOL     C240184   2.007   3.101   0.566 -0.6045  0.0692  0.0168
  112MOL     C340185   2.119   3.200   0.532  0.5530  0.9735 -0.1622
  112MOL     C440186   2.213   3.227   0.644  0.0456  0.7227  0.7172
  112MOL     C540187   2.326   3.309   0.578 -0.0774 -0.3923 -1.0096
  112MOL     C640188   2.405   3.388   0.689  0.2197  0.2437  0.1488
  112MOL     H740189   1.815   3.092   0.680 -0.4258  0.3506  0.9863
  112MOL     H840190   1.933   3.205   0.741  1.9180 -1.2167 -0.3440
  112MOL     H940191   2.059   3.020   0.617 -1.1029  1.3216  2.6127
  112MOL    H1040192   2.069   3.283   0.481 -1.8276 -0.8397 -0.8898
  112MOL    H1140193   2.181   3.157   0.454 -3.0206 -1.7733 -1.6760
  112MOL    H1240194   2.256   3.130   0.669  1.2859  1.1602  0.3415
  112MOL    H1340195   2.158   3.266   0.730  0.6228 -0.5721  1.6991
  112MOL    H1440196   2.386   3.249   0.509  0.1289  1.2092 -2.2466
  112MOL    H1540197   2.272   3.384   0.520  0.5060  1.7002  1.0421
  112MOL    H1640198   2.500   3.437   0.665 -0.5353  1.8892  0.4318
  112MOL    H1740199   2.436   3.309   0.757  0.2535 -1.2261 -1.5417
  112MOL    H1840200   2.349   3.472   0.730 -0.7161 -0.2741 -0.0735
  112MOL    H1940201   1.851   3.249   0.598 -0.3742 -1.1875 -1.8940
  112MOL    C2040202   1.933   3.041   0.448 -0.5812  0.4537 -1.2574
  112MOL    C2140203   1.875   2.898   0.465 -0.1941  0.2895 -0.3264
  112MOL    C2240204   1.747   2.885   0.380 -0.2483 -0.3524  0.3739
  112MOL    C2340205   1.623   2.966   0.422  1.0633 -0.2982  0.1948
  112MOL    C2440206   1.492   2.940   0.338 -0.1652  0.0947  0.1575
  112MOL    C2540207   1.383   3.047   0.338 -0.3509  0.2344  0.2120
  112MOL    H2640208   2.008   3.033   0.369  2.1941  0.1607  1.2960
  112MOL    H2740209   1.861   3.113   0.410 -0.4914  0.9165 -0.5556
  112MOL    H2840210   1.844   2.889   0.570 -0.8657 -1.7820 -0.6633
  112MOL    H2940211   1.727   2.779   0.363 -0.1296 -0.2539 -0.4071
  112MOL    H3040212   1.786   2.900   0.279  1.6631 -2.4919  0.7582
  112MOL    H3140213   1.642   3.073   0.414 -0.9320  0.1114  0.6650
  112MOL    H3240214   1.599   2.935   0.524 -2.9178  1.8265  0.0121
  112MOL    H3340215   1.518   2.936   0.233  1.1189  2.2779  0.3671
  112MOL    H3440216   1.463   2.837   0.361 -1.7300  0.5254  0.1581
  112MOL    H3540217   1.375   3.080   0.441  3.1463 -1.3969  1.0844
  112MOL    H3640218   1.404   3.132   0.273 -0.3213  1.4573  1.8116
  112MOL    H3740219   1.293   3.001   0.298 -0.6845  0.3829  0.7906
  112MOL    C3840220   1.983   2.789   0.439  0.5146 -0.0465  0.1370
  112MOL    C3940221   1.936   2.639   0.445 -0.3876  0.6737  0.2210
  112MOL    C4040222   2.053   2.540   0.409  0.0937  0.2330 -0.5255
  112MOL    C4140223   2.147   2.508   0.520  0.5187  0.6158 -0.5571
  112MOL    C4240224   2.255   2.411   0.477  0.1531  1.0172 -0.7470
  112MOL    C4340225   2.348   2.348   0.587 -0.2326  0.4914 -0.4690
  112MOL    H4440226   2.074   2.811   0.495  0.0503  3.9084 -0.5267
  112MOL    H4540227   2.015   2.804   0.336 -0.2621  0.1317 -0.0852
  112MOL    H4640228   1.870   2.630   0.359 -0.7129  0.9985  0.4356
  112MOL    H4740229   2.006   2.448   0.375  1.6278 -0.5255 -0.6256
  112MOL    H4840230   2.106   2.569   0.318 -0.3244 -0.4992 -1.0129
  112MOL    H4940231   2.182   2.598   0.570  0.7020  1.0361 -1.4425
  112MOL    H5040232   2.106   2.453   0.605  1.1070  1.2053  0.1150
  112MOL    H5140233   2.225   2.322   0.422  1.2937 -2.0917  3.3806
  112MOL    H5240234   2.315   2.471   0.409  0.8293  1.1524 -0.0493
  112MOL    H5340235   2.291   2.276   0.645  0.7642  1.4409  1.7694
  112MOL    H5440236   2.388   2.429   0.649  1.2933 -1.1915  0.7829
  112MOL    H5540237   2.429   2.286   0.549  0.1534 -0.6450  2.1490
  112MOL    C5640238   1.859   2.604   0.578  0.2290  0.7308  0.2293
  112MOL    C5740239   1.795   2.462   0.584 -0.2423 -0.3018  0.3316
  112MOL    C5840240   1.668   2.461   0.484  0.2442 -0.4668  0.5162
  112MOL    C5940241   1.538   2.527   0.531  0.0011  0.7263 -0.1077
  112MOL    C6040242   1.425   2.536   0.433  0.2647 -0.6988 -0.0309
  112MOL    C6140243   1.303   2.606   0.492  0.2547 -0.6097 -0.5349
  112MOL    H6240244   1.940   2.619   0.650  0.5344  1.5132 -0.2694
  112MOL    H6340245   1.780   2.674   0.605  0.6120  0.7791  1.2355
  112MOL    H6440246   1.864   2.395   0.533 -0.9626  0.6986 -2.0812
  112MOL    H6540247   1.697   2.509   0.390  0.2250 -1.0860  0.1863
  112MOL    H6640248   1.640   2.357   0.464 -0.5240 -0.0191 -0.8446
  112MOL    H6740249   1.556   2.629   0.564 -0.6088  0.9560 -0.4851
  112MOL    H6840250   1.516   2.474   0.624 -0.3268  0.9091 -0.0804
  112MOL    H6940251   1.453   2.604   0.353 -0.8791  1.6971  1.5314
  112MOL    H7040252   1.393   2.441   0.391  0.7571 -0.6841 -0.4390
  112MOL    H7140253   1.217   2.608   0.425 -2.6364 -1.9135  2.9572
  112MOL    H7240254   1.267   2.544   0.574  2.3071 -0.6025  0.4032
  112MOL    H7340255   1.333   2.706   0.522 -1.6654  0.6836 -2.7205
  112MOL    C7440256   1.771   2.411   0.723  0.5885 -0.2524  0.1817
  112MOL    C7540257   1.696   2.276   0.739  0.6197 -0.0931 -0.5792
  112MOL    C7640258   1.791   2.159   0.702  0.1146 -0.3309  0.1575
  112MOL    C7740259   1.726   2.021   0.730  0.2559  0.1909 -0.1266
  112MOL    C7840260   1.808   1.905   0.676  0.1724 -0.4796 -0.5661
  112MOL    C7940261   1.754   1.770   0.727 -1.1338  0.0189 -0.7096
  112MOL    H8040262   1.863   2.402   0.781  0.9774 -0.4503 -0.4645
  112MOL    H8140263   1.728   2.497   0.775  0.6789  0.4808 -0.9606
  112MOL    H8240264   1.614   2.270   0.667 -0.6244  1.0755  0.6995
  112MOL    H8340265   1.819   2.175   0.598 -3.3739  3.2536 -0.3201
  112MOL    H8440266   1.881   2.162   0.764  1.5557 -0.6014 -1.8615
  112MOL    H8540267   1.700   2.010   0.836 -0.0701 -1.4083 -0.3691
  112MOL    H8640268   1.629   2.016   0.680  1.3077  2.4625 -2.4921
  112MOL    H8740269   1.911   1.913   0.711 -0.0170 -0.4829 -0.0063
  112MOL    H8840270   1.820   1.900   0.568  2.4230  0.2284 -0.3860
  112MOL    H8940271   1.702   1.707   0.655 -1.1806  1.0166 -1.5672
  112MOL    H9040272   1.832   1.695   0.744 -0.1553  0.6769 -2.1154
  112MOL    H9140273   1.701   1.757   0.821 -1.1192 -1.0234 -0.8423
  112MOL    C9240274   1.641   2.270   0.888  0.0675 -0.3020 -0.2845
  112MOL    C9340275   1.530   2.377   0.933  0.2399  0.5258 -0.3417
  112MOL    C9440276   1.393   2.324   0.889  0.2627  0.1354  0.5836
  112MOL    C9540277   1.269   2.419   0.912  0.3268  0.1959 -0.3847
  112MOL    C9640278   1.164   2.384   0.809 -0.1065  0.2557  0.3115
  112MOL    C9740279   1.113   2.239   0.819 -0.9629 -0.6368  0.4446
  112MOL    H9840280   1.599   2.172   0.911 -1.4297  0.7821  1.6645
  112MOL    H9940281   1.727   2.279   0.954  1.1110 -0.2661 -1.6168
  112MOL   H10040282   1.546   2.471   0.880 -0.7161  0.0905 -1.4108
  112MOL   H10140283   1.367   2.229   0.934 -0.5810 -1.2302 -2.6661
  112MOL   H10240284   1.417   2.310   0.783  0.1436  1.7094  0.3311
  112MOL   H10340285   1.224   2.396   1.008  0.4298  1.3045 -0.0656
  112MOL   H10440286   1.290   2.526   0.914  0.2961  0.2045 -0.5034
  112MOL   H10540287   1.073   2.442   0.826  0.2093  0.6006  0.8065
  112MOL   H10640288   1.192   2.404   0.705 -0.9573 -0.2012 -0.0096
  112MOL   H10740289   1.130   2.197   0.918 -0.2496  0.8598  0.9730
  112MOL   H10840290   1.007   2.241   0.792 -0.8100 -1.4466 -0.2312
  112MOL   H10940291   1.166   2.176   0.748  1.9848  0.9634  1.1255
  112MOL   C11040292   1.536   2.411   1.089  0.1783 -0.2105  0.1876
  112MOL   C11140293   1.669   2.471   1.144 -0.3901  0.5149 -0.6655
  112MOL   C11240294   1.750   2.373   1.230  0.3481  0.4594  0.1819
  112MOL   C11340295   1.698   2.326   1.370 -0.4560 -0.0154  0.1418
  112MOL   C11440296   1.790   2.224   1.436  0.3984  0.0061  0.0354
  112MOL   C11540297   1.731   2.151   1.552 -0.0182  0.0524 -0.1418
  112MOL   H11640298   1.461   2.486   1.113 -0.2318 -0.0665 -1.4475
  112MOL   H11740299   1.516   2.317   1.141 -0.3717 -0.0270  0.3069
  112MOL   H11840300   1.728   2.501   1.058  1.3796  0.7018  0.6049
  112MOL   H11940301   1.851   2.410   1.247  1.2484 -0.3141 -3.1090
  112MOL   H12040302   1.744   2.279   1.175 -1.2204  0.5408  0.1885
  112MOL   H12140303   1.602   2.278   1.349 -0.9997  1.5793 -1.1184
  112MOL   H12240304   1.664   2.414   1.425 -0.5137  1.0535 -1.5648
  112MOL   H12340305   1.869   2.278   1.488 -0.3545  2.9630 -1.7227
  112MOL   H12440306   1.824   2.144   1.370 -0.5762 -0.4972  0.1401
  112MOL   H12540307   1.676   2.063   1.516 -1.5030  0.9150 -0.0102
  112MOL   H12640308   1.813   2.112   1.611  0.2685  0.0719 -0.5247
  112MOL   H12740309   1.676   2.217   1.619  1.4259  1.5233 -0.3988
  112MOL   C12840310   1.643   2.603   1.225  0.7086  0.3618 -0.0313
  112MOL   C12940311   1.577   2.726   1.153 -0.6333 -0.3197 -0.7112
  112MOL   C13040312   1.656   2.775   1.036 -0.0451 -0.9808 -1.1859
  112MOL   C13140313   1.799   2.834   1.060 -0.5129  0.0773  0.0759
  112MOL   C13240314   1.863   2.875   0.927 -0.1064  0.7000  0.1974
  112MOL   C13340315   1.959   2.995   0.953  0.2620  0.2810  0.4030
  112MOL   H13440316   1.730   2.637   1.281  0.6404 -0.2194  0.4408
  112MOL   H13540317   1.564   2.580   1.297 -1.0041  2.1760 -1.2831
  112MOL   H13640318   1.479   2.692   1.119 -0.0540 -0.7095 -2.0198
  112MOL   H13740319   1.664   2.684   0.977 -1.0496 -1.7900 -0.0770
  112MOL   H13840320   1.596   2.845   0.978 -1.2718  0.1222  1.3630
  112MOL   H13940321   1.860   2.756   1.105  1.6495  0.7913 -1.5005
  112MOL   H14040322   1.803   2.917   1.131  2.5756 -1.9427  2.3656
  112MOL   H14140323   1.914   2.792   0.879 -2.0797 -0.5669  0.2306
  112MOL   H14240324   1.786   2.908   0.856 -0.3502 -0.5169 -0.1185
  112MOL   H14340325   1.904   3.088   0.966  0.8672  0.6208  0.5168
  112MOL   H14440326   2.021   3.007   0.864 -1.2954 -0.9663 -0.8914
  112MOL   H14540327   2.023   2.983   1.040  2.0905 -0.0739 -0.9679
  112MOL   C14640328   1.556   2.843   1.259 -0.5468  0.0603 -0.2528
  112MOL   C14740329   1.484   2.814   1.391 -0.0830  0.3181  0.5307
  112MOL   C14840330   1.353   2.758   1.338  0.0915 -0.1973 -0.8964
  112MOL   C14940331   1.226   2.756   1.430 -0.1279 -0.0513  0.4443
  112MOL   C15040332   1.101   2.680   1.376  0.2257 -0.0724 -0.2846
  112MOL   C15140333   0.984   2.673   1.471  0.5214  0.4900 -0.3516
  112MOL   H15240334   1.661   2.864   1.282  0.5583 -0.7105 -4.1926
  112MOL   H15340335   1.525   2.933   1.207 -2.6924  0.2561  1.2967
  112MOL   H15440336   1.533   2.733   1.445  0.6398 -0.6801 -1.5590
  112MOL   H15540337   1.363   2.657   1.299  0.1562 -0.4015 -0.3447
  112MOL   H15640338   1.320   2.829   1.262 -2.0716  0.6392  0.7637
  112MOL   H15740339   1.258   2.707   1.522  0.4777  0.1349  0.3368
  112MOL   H15840340   1.208   2.860   1.456 -0.6170 -0.2284  0.8117
  112MOL   H15940341   1.127   2.580   1.340  1.1316 -0.3913  1.2326
  112MOL   H16040342   1.065   2.732   1.286  2.4599 -1.0704 -1.7996
  112MOL   H16140343   1.014   2.602   1.548  1.7120 -0.9471 -2.1205
  112MOL   H16240344   0.946   2.767   1.512 -2.5175 -0.7783 -0.1138
  112MOL   H16340345   0.892   2.630   1.431  1.2847 -0.7225 -0.7987
  112MOL   C16440346   1.476   2.940   1.477 -0.3116 -0.6265  0.1010
  112MOL   C16540347   1.450   2.922   1.625  0.1760 -0.3103  0.2744
  112MOL   C16640348   1.562   2.844   1.696  1.2274  0.1687  0.0888
  112MOL   C16740349   1.527   2.696   1.728  0.4864  0.6682 -0.1031
  112MOL   C16840350   1.652   2.607   1.750 -0.1860 -0.0233  0.3720
  112MOL   C16940351   1.635   2.456   1.787 -0.1570 -0.0907  0.3259
  112MOL   H17040352   1.569   2.997   1.469 -0.3526 -0.1605  2.5588
  112MOL   H17140353   1.401   3.002   1.427  0.3922 -1.1039 -1.5741
  112MOL   H17240354   1.367   2.855   1.648 -1.5617  2.0164  0.9951
  112MOL   H17340355   1.584   2.886   1.794 -1.6338  0.1774  0.7473
  112MOL   H17440356   1.654   2.863   1.641  1.4474 -0.0576  0.3750
  112MOL   H17540357   1.478   2.656   1.639 -0.5633  0.2376  0.6605
  112MOL   H17640358   1.443   2.677   1.795 -1.1594 -2.1304 -2.7888
  112MOL   H17740359   1.700   2.652   1.837  1.5219  0.1553 -0.6368
  112MOL   H17840360   1.718   2.631   1.666 -0.9116 -0.0809 -0.2234
  112MOL   H17940361   1.592   2.446   1.887  1.0006 -0.7200  0.7755
  112MOL   H18040362   1.735   2.413   1.772 -0.7479 -1.8936  1.3859
  112MOL   H18140363   1.576   2.420   1.703  1.0673  0.8023 -0.9419
  112MOL   C18240364   1.404   3.058   1.680  0.2890  0.1090  0.1143
  112MOL   C18340365   1.376   3.068   1.838  0.1293 -0.2230 -0.1184
  112MOL   C18440366   1.267   2.960   1.876  0.3359 -0.1330  0.1730
  112MOL   C18540367   1.127   2.962   1.802  0.2501 -0.3874  0.4829
  112MOL   C18640368   1.016   2.857   1.842 -0.7203 -1.0271  0.2350
  112MOL   C18740369   0.885   2.893   1.779 -0.4244  0.6167  0.1417
  112MOL   H18840370   1.480   3.130   1.651  0.7605 -0.0953  0.8189
  112MOL   H18940371   1.317   3.090   1.623  1.0724 -1.5409 -2.0746
  112MOL   H19040372   1.468   3.049   1.893  0.8038  1.6977 -0.5328
  112MOL   H19140373   1.307   2.859   1.876  0.4203 -0.1188 -2.1778
  112MOL   H19240374   1.245   2.972   1.982  0.4674 -2.6025  0.4983
  112MOL   H19340375   1.148   2.954   1.695 -0.9665 -1.6846  0.3300
  112MOL   H19440376   1.085   3.061   1.822  2.7461  0.7729  0.2669
  112MOL   H19540377   0.992   2.850   1.948 -2.8910  3.2640  0.1489
  112MOL   H19640378   1.045   2.755   1.817  0.1425 -0.8461  0.4918
  112MOL   H19740379   0.798   2.837   1.814 -0.9724  1.5027  0.2257
  112MOL   H19840380   0.887   2.864   1.674 -2.3477 -0.0191  0.2522
  112MOL   H19940381   0.846   2.994   1.788 -2.5267 -0.2799  1.5935
  112MOL   C20040382   1.343   3.216   1.860 -0.6640  0.4354  0.2150
  112MOL   C20140383   1.323   3.258   2.007  0.0408  0.4454  0.0051
  112MOL   C20240384   1.459   3.284   2.077 -0.1478  0.0299 -0.4525
  112MOL   C20340385   1.448   3.310   2.225  0.4957  0.1572 -0.1918
  112MOL   C20440386   1.589   3.339   2.288 -0.2141  0.2546 -0.4007
  112MOL   C20540387   1.579   3.303   2.434 -0.3181  0.3517 -0.0933
  112MOL   H20640388   1.247   3.224   1.808 -1.2586 -0.6604  1.1230
  112MOL   H20740389   1.406   3.286   1.806 -1.1252 -0.0333 -0.9450
  112MOL   H20840390   1.273   3.176   2.060 -2.0638  1.4705 -0.3306
  112MOL   H20940391   1.498   3.377   2.033  0.8464 -0.5290 -0.7655
  112MOL   H21040392   1.536   3.211   2.052 -1.4089 -1.4766 -0.0130
  112MOL   H21140393   1.398   3.222   2.265 -1.5815  1.5523  0.3654
  112MOL   H21240394   1.384   3.397   2.238  1.8069  1.1599 -0.2745
  112MOL   H21340395   1.637   3.435   2.272 -0.1034  0.2528 -0.0877
  112MOL   H21440396   1.651   3.258   2.249 -0.0767  0.7791 -1.2941
  112MOL   H21540397   1.500   3.357   2.487 -0.0390 -0.5915  1.2959
  112MOL   H21640398   1.530   3.206   2.432 -1.2792  0.7952  1.1382
  112MOL   H21740399   1.674   3.291   2.485 -2.0966 -3.5221  2.5810
  112MOL   C21840400   1.224   3.379   2.016 -0.1169 -0.0040  0.1874
  112MOL   C21940401   1.126   3.359   2.127 -0.4216 -0.3297  0.5070
  112MOL   C22040402   1.018   3.249   2.092 -0.4736  0.3597  1.1500
  112MOL   C22140403   0.917   3.218   2.204  0.3480 -0.7276 -0.1194
  112MOL   C22240404   0.990   3.182   2.338 -0.1341 -0.8480  0.1138
  112MOL   C22340405   0.906   3.080   2.420  0.1140 -0.3250  0.1036
  112MOL   H22440406   1.286   3.468   2.016 -1.2557  0.8066 -0.4048
  112MOL   H22540407   1.174   3.374   1.919 -1.8623  0.8419  1.0192
  112MOL   H22640408   1.181   3.319   2.211 -1.5993 -1.3353  0.8145
  112MOL   H22740409   1.060   3.157   2.052 -3.5295 -0.5445 -0.1322
  112MOL   H22840410   0.963   3.287   2.005 -0.5677 -1.8976  0.2011
  112MOL   H22940411   0.850   3.136   2.179 -1.9614  1.1214 -0.1744
  112MOL   H23040412   0.852   3.305   2.213 -1.1249 -1.7936 -0.4302
  112MOL   H23140413   1.085   3.135   2.312 -0.2470 -0.0984 -1.7206
  112MOL   H23240414   1.024   3.277   2.380 -2.8508 -0.6439  2.0157
  112MOL   H23340415   0.802   3.113   2.407  1.0668  3.6173  1.7632
  112MOL   H23440416   0.925   3.088   2.527 -0.1383  1.9350  0.0166
  112MOL   H23540417   0.917   2.977   2.389 -0.2636 -0.0348 -1.0123
  112MOL   C23640418   1.058   3.494   2.155 -0.5005 -0.1814  0.3753
  112MOL   C23740419   1.154   3.598   2.228  0.4103 -0.2078  0.0667
  112MOL   C23840420   1.157   3.561   2.375  0.2529  0.1415 -0.0730
  112MOL   C23940421   1.280   3.625   2.445  0.0881 -0.7423  0.0508
  112MOL   C24040422   1.304   3.573   2.589  0.1759  0.4178  0.1946
  112MOL   C24140423   1.441   3.606   2.637  0.1534  0.9004 -0.3434
  112MOL   H24240424   1.031   3.528   2.055  1.3046 -1.1040 -0.4621
  112MOL   H24340425   0.967   3.481   2.212 -0.3373  0.7546  0.8612
  112MOL   H24440426   1.255   3.599   2.186  0.2296  2.9108 -0.4208
  112MOL   H24540427   1.074   3.595   2.437 -0.9323 -2.3482 -0.2455
  112MOL   H24640428   1.161   3.452   2.385 -0.2715  0.0826 -0.5080
  112MOL   H24740429   1.268   3.731   2.426 -2.4594 -1.3716 -2.2038
  112MOL   H24840430   1.370   3.603   2.387  0.8202  1.3934  0.3473
  112MOL   H24940431   1.225   3.616   2.652 -0.1179  0.4830 -0.2169
  112MOL   H25040432   1.289   3.465   2.599  2.7203  0.3024  4.0507
  112MOL   H25140433   1.521   3.591   2.565 -1.6399  1.2930 -2.4402
  112MOL   H25240434   1.443   3.714   2.654 -1.4862  0.8831  0.0779
  112MOL   H25340435   1.474   3.566   2.733 -1.9923 -0.5521 -0.1886
  112MOL   C25440436   1.082   3.736   2.209 -0.4530  0.4102 -0.0569
  112MOL   C25540437   1.092   3.802   2.072  0.3172 -0.6881 -0.1138
  112MOL   C25640438   1.230   3.824   2.012  0.1225 -0.5074  0.1437
  112MOL   C25740439   1.324   3.920   2.094  0.0397 -0.1683  0.0679
  112MOL   C25840440   1.462   3.934   2.029  0.0315 -0.4226  0.0749
  112MOL   C25940441   1.550   4.038   2.107 -0.1759  0.0086 -0.1435
  112MOL   H26040442   1.117   3.809   2.283 -0.2674 -1.1245  1.4041
  112MOL   H26140443   0.976   3.716   2.228 -0.1561 -2.1236 -0.8851
  112MOL   H26240444   1.038   3.744   1.996  0.7865  0.2206 -1.1574
  112MOL   H26340445   1.287   3.733   1.990 -1.4915 -0.8493 -2.8792
  112MOL   H26440446   1.228   3.871   1.914  3.2283 -1.1443 -0.2701
  112MOL   H26540447   1.277   4.019   2.092  1.0861  0.3227 -1.1692
  112MOL   H26640448   1.340   3.904   2.201  1.3260 -1.5638 -0.3240
  112MOL   H26740449   1.446   3.974   1.929  0.8979  0.0878  0.1348
  112MOL   H26840450   1.518   3.841   2.021  2.9083  1.1056  1.5826
  112MOL   H26940451   1.508   4.138   2.104  1.8727  0.9779  1.9855
  112MOL   H27040452   1.651   4.038   2.065  1.0705 -2.5210  2.6320
  112MOL   H27140453   1.578   3.997   2.204  0.8790  0.9354 -0.0457
  112MOL   C27240454   1.016   3.942   2.059  0.0374 -0.0313  0.0447
  112MOL   C27340455   0.862   3.933   2.067 -0.7366  0.1408 -0.0984
  112MOL   C27440456   0.796   3.878   1.931  0.0120 -0.4857  0.5447
  112MOL   C27540457   0.688   3.775   1.958 -0.1309 -0.7218 -0.3205
  112MOL   C27640458   0.640   3.704   1.824 -0.1628 -0.1054 -0.7782
  112MOL   C27740459   0.558   3.576   1.842 -0.5076  0.0493  0.8855
  112MOL   H27840460   1.059   4.011   2.132 -1.6700 -0.8323  1.8682
  112MOL   H27940461   1.037   3.985   1.962  1.8346  0.5607  0.6761
  112MOL   H28040462   0.823   3.867   2.145  1.1093 -0.3224  0.4507
  112MOL   H28140463   0.872   3.821   1.877 -0.9059 -0.3537 -0.9248
  112MOL   H28240464   0.759   3.966   1.879  0.0295 -1.2918 -0.8645
  112MOL   H28340465   0.606   3.817   2.015  2.1714  0.4257  2.2529
  112MOL   H28440466   0.726   3.694   2.022 -1.1345 -1.1513 -0.2613
  112MOL   H28540467   0.577   3.772   1.766 -0.3149  0.1820 -0.2775
  112MOL   H28640468   0.727   3.686   1.761 -0.7897  0.1291 -1.7256
  112MOL   H28740469   0.467   3.613   1.889 -1.0765 -0.6112  0.3071
  112MOL   H28840470   0.535   3.546   1.739 -1.2676  0.9732  0.7759
  112MOL   H28940471   0.609   3.503   1.904  1.2447  0.2673 -0.2448
  112MOL   C29040472   0.802   4.077   2.085 -0.1359 -0.0310 -0.1568
  112MOL   C29140473   0.838   4.156   2.214  0.2771 -0.1430  0.3326
  112MOL   C29240474   0.796   4.308   2.193  0.3822 -0.4442  0.2482
  112MOL   C29340475   0.647   4.339   2.153  0.1352  0.2766 -1.4286
  112MOL   C29440476   0.615   4.485   2.188  0.0158 -0.4811  0.0393
  112MOL   C29540477   0.473   4.520   2.137  0.0733 -0.5208  0.3284
  112MOL   H29640478   0.694   4.067   2.097 -0.4494  3.4649  0.2739
  112MOL   H29740479   0.823   4.134   1.995 -1.5153  0.6088 -0.0796
  112MOL   H29840480   0.945   4.149   2.235  0.4194  2.3400  0.5959
  112MOL   H29940481   0.866   4.363   2.130 -0.6556  0.4746 -0.1111
  112MOL   H30040482   0.817   4.363   2.285  0.7642 -0.3943  0.1322
  112MOL   H30140483   0.633   4.319   2.047 -1.1878 -1.6847 -0.9195
  112MOL   H30240484   0.573   4.277   2.203  0.1056  0.5497 -1.1310
  112MOL   H30340485   0.682   4.551   2.133 -1.3996  0.7832 -0.2177
  112MOL   H30440486   0.628   4.506   2.294 -0.7091  1.1189 -0.1709
  112MOL   H30540487   0.460   4.625   2.164 -1.9392 -0.8707  0.8359
  112MOL   H30640488   0.387   4.473   2.186 -1.2399  2.2216  0.7570
  112MOL   H30740489   0.451   4.518   2.030 -2.6763  2.1979  0.7547
  112MOL   C30840490   0.762   4.096   2.335 -0.0922  0.1864  0.3537
  112MOL   C30940491   0.823   4.112   2.473  0.3241  0.3237 -0.3289
  112MOL   C31040492   0.926   4.001   2.500 -0.0170 -0.2223 -0.1408
  112MOL   C31140493   0.998   4.007   2.632 -0.0751  0.0152 -0.0217
  112MOL   C31240494   1.126   3.910   2.640  0.2983 -0.6419 -0.4012
  112MOL   C31340495   1.170   3.900   2.794 -0.2492  0.6326 -0.0694
  112MOL   H31440496   0.666   4.146   2.349 -1.1044 -1.6372 -0.0211
  112MOL   H31540497   0.747   3.988   2.333  0.6983  0.0847 -0.2802
  112MOL   H31640498   0.866   4.212   2.468  2.3463 -0.4897  0.6611
  112MOL   H31740499   1.005   4.000   2.425 -1.9214  1.3663 -2.2410
  112MOL   H31840500   0.874   3.906   2.492  1.1817 -0.9232  0.3203
  112MOL   H31940501   0.923   4.001   2.711 -0.6701  2.9178 -0.3355
  112MOL   H32040502   1.039   4.108   2.643 -2.7331  0.8364  3.1112
  112MOL   H32140503   1.087   3.815   2.604 -0.2493 -0.9885  1.0626
  112MOL   H32240504   1.213   3.938   2.580 -0.1939 -1.1530 -1.3629
  112MOL   H32340505   1.084   3.896   2.861 -0.4805  0.3804 -0.3762
  112MOL   H32440506   1.240   3.974   2.831  0.6873  1.0291 -2.5249
  112MOL   H32540507   1.225   3.808   2.813  2.9141  2.7897  1.4616
  112MOL   C32640508   0.702   4.116   2.575 -0.6001  0.4769 -0.3097
  112MOL   C32740509   0.629   4.253   2.586  0.8449 -0.4766 -0.2508
  112MOL   C32840510   0.495   4.233   2.652  0.0669 -0.5186 -0.1048
  112MOL   C32940511   0.404   4.162   2.556  0.2836 -0.3102 -0.4041
  112MOL   C33040512   0.285   4.097   2.632  0.6768  0.1531 -0.3212
  112MOL   C33140513   0.321   3.964   2.710  0.0440  0.5264  0.0833
  112MOL   H33240514   0.743   4.096   2.674  0.3851 -0.9365 -0.9817
  112MOL   H33340515   0.641   4.030   2.550 -0.4566  0.5374 -0.8795
  112MOL   H33440516   0.616   4.302   2.490  2.3121 -0.1924 -0.3250
  112MOL   H33540517   0.503   4.184   2.749 -0.5845  0.6945  0.5717
  112MOL   H33640518   0.447   4.327   2.680 -0.3457 -0.7800  0.0681
  112MOL   H33740519   0.453   4.085   2.498  0.0714 -1.3429  0.7724
  112MOL   H33840520   0.372   4.234   2.480  0.6270  0.1029 -0.1615
  112MOL   H33940521   0.244   4.167   2.706  0.6445 -1.5804  1.3548
  112MOL   H34040522   0.209   4.084   2.555  0.3478 -1.9894  0.3307
  112MOL   H34140523   0.362   3.881   2.651  0.7441  1.3599 -0.6162
  112MOL   H34240524   0.237   3.917   2.761  0.2151 -0.3978 -0.4645
  112MOL   H34340525   0.384   3.986   2.796  0.7392 -0.3124 -0.1970
  112MOL   C34440526   0.720   4.345   2.664 -0.3870 -0.2046 -0.6881
  112MOL   C34540527   0.674   4.489   2.671 -0.3219 -0.0008 -0.1564
  112MOL   C34640528   0.761   4.572   2.767  0.4653 -0.0630 -0.2537
  112MOL   C34740529   0.711   4.720   2.759  0.5010 -1.0681 -0.2268
  112MOL   C34840530   0.791   4.822   2.839 -0.3613  0.0427  0.3179
  112MOL   C34940531   0.707   4.963   2.863 -0.0740  0.2926 -0.1249
  112MOL   H35040532   0.731   4.303   2.764 -2.6371 -2.4736 -1.3444
  112MOL   H35140533   0.821   4.348   2.624 -0.1275 -1.4338 -0.1557
  112MOL   H35240534   0.575   4.491   2.716  0.2592  1.1343  1.1038
  112MOL   H35340535   0.760   4.543   2.872 -0.2218 -0.6877 -0.4301
  112MOL   H35440536   0.863   4.568   2.729 -0.3969 -0.0402 -2.6061
  112MOL   H35540537   0.713   4.749   2.654  2.2849  1.6294  0.4963
  112MOL   H35640538   0.608   4.720   2.793  0.1933 -1.0828 -1.1544
  112MOL   H35740539   0.806   4.790   2.942 -1.1507  0.7209  0.6540
  112MOL   H35840540   0.883   4.850   2.788  0.6788  1.5838  2.9561
  112MOL   H35940541   0.673   5.009   2.770 -1.3111  1.1219  0.7288
  112MOL   H36040542   0.626   4.962   2.935 -0.4735  0.3478 -0.5703
  112MOL   H36140543   0.773   5.040   2.903 -1.9993  1.2511  1.2919
  112MOL   H36240544   0.671   4.534   2.571  1.5047 -0.6510 -0.5239
  113MOL     C140545   0.927   4.001   3.933  0.4896  0.2509 -0.6206
  113MOL     C240546   1.074   4.062   3.975  0.4419  0.3845  0.2678
  113MOL     C340547   1.060   4.207   4.019  0.6156 -0.4776  0.4213
  113MOL     C440548   1.014   4.303   3.908  0.4884  0.0176 -0.0117
  113MOL     C540549   0.916   4.408   3.961  0.3933  0.2967 -0.2445
  113MOL     C640550   0.853   4.495   3.849  0.3746 -0.2298  0.2382
  113MOL     H740551   0.906   3.894   3.946 -2.5931  0.5530 -2.4984
  113MOL     H840552   0.861   4.044   4.009  1.0829  1.2330 -0.6548
  113MOL     H940553   1.113   4.010   4.062  1.3663 -1.0385 -0.9567
  113MOL    H1040554   1.151   4.253   4.057 -0.0321  1.7056 -0.5911
  113MOL    H1140555   0.992   4.227   4.101 -1.3393  0.8041 -1.4386
  113MOL    H1240556   0.964   4.238   3.836 -0.5299 -2.1560  2.5629
  113MOL    H1340557   1.100   4.350   3.861 -0.9166  2.8508  0.1597
  113MOL    H1440558   0.834   4.355   4.010  0.7188  0.4577  0.4909
  113MOL    H1540559   0.957   4.474   4.038 -1.5167  1.3586 -0.1016
  113MOL    H1640560   0.924   4.545   3.783 -1.8312  1.9367 -0.5583
  113MOL    H1740561   0.786   4.571   3.889 -1.0232 -0.8997 -0.8044
  113MOL    H1840562   0.797   4.436   3.777 -0.8554  0.0165  0.9686
  113MOL    H1940563   0.877   4.029   3.841 -0.3544  0.5113 -0.0867
  113MOL    C2040564   1.178   4.048   3.864 -0.4800 -0.2643 -0.7828
  113MOL    C2140565   1.233   3.908   3.837  0.0894  0.4716 -1.0366
  113MOL    C2240566   1.291   3.907   3.695  0.4072  0.2585  0.1814
  113MOL    C2340567   1.340   3.760   3.665  0.1387  0.2809 -0.6319
  113MOL    C2440568   1.377   3.749   3.515 -0.2215  0.0733  0.2873
  113MOL    C2540569   1.487   3.648   3.490 -0.9822 -0.7337  0.2043
  113MOL    H2640570   1.260   4.119   3.872 -0.1556 -0.5548 -1.5492
  113MOL    H2740571   1.136   4.090   3.774  2.0579  1.3007 -1.2708
  113MOL    H2840572   1.152   3.836   3.834 -0.0200  0.5822 -0.7427
  113MOL    H2940573   1.367   3.986   3.690 -0.0316  0.7362  0.9656
  113MOL    H3040574   1.221   3.938   3.618  1.0049 -1.4228 -1.0539
  113MOL    H3140575   1.267   3.681   3.684 -0.3122  0.2380 -2.4001
  113MOL    H3240576   1.427   3.733   3.724 -1.3972 -0.6218  1.2714
  113MOL    H3340577   1.287   3.728   3.457 -0.1371  0.0124  0.1810
  113MOL    H3440578   1.414   3.846   3.480 -0.2345  0.3460  1.0208
  113MOL    H3540579   1.454   3.560   3.545 -0.5024 -1.4145 -0.5851
  113MOL    H3640580   1.502   3.616   3.387 -2.2211  0.6744 -0.4379
  113MOL    H3740581   1.572   3.702   3.530 -1.4241  0.1736 -0.0604
  113MOL    C3840582   1.342   3.854   3.944  0.3094 -0.5490  0.4609
  113MOL    C3940583   1.297   3.712   3.994  0.0805 -0.8657 -0.0534
  113MOL    C4040584   1.419   3.642   4.054 -0.0241  0.2252 -0.0066
  113MOL    C4140585   1.517   3.585   3.943 -0.3544 -0.2801 -0.5881
  113MOL    C4240586   1.459   3.471   3.859 -0.1747 -0.1117  0.0670
  113MOL    C4340587   1.569   3.401   3.777 -0.2012  0.0791  0.3590
  113MOL    H4440588   1.353   3.921   4.029  2.4223  0.1109 -0.2830
  113MOL    H4540589   1.438   3.860   3.893 -0.8566  0.7259 -1.6120
  113MOL    H4640590   1.252   3.648   3.918  1.0799  0.5586 -1.8922
  113MOL    H4740591   1.476   3.711   4.116 -0.0761  0.7479 -0.5296
  113MOL    H4840592   1.397   3.554   4.114  0.6321  1.4827  2.1252
  113MOL    H4940593   1.544   3.672   3.883 -1.4511  1.1083  0.8830
  113MOL    H5040594   1.608   3.561   3.997 -0.1122 -0.7078 -1.1887
  113MOL    H5140595   1.410   3.389   3.913 -0.6648  0.1453  0.0188
  113MOL    H5240596   1.384   3.521   3.797 -1.2222  0.7514  1.9938
  113MOL    H5340597   1.640   3.362   3.850 -1.1484 -0.2515  1.1112
  113MOL    H5440598   1.627   3.470   3.714  1.0371  1.6807  3.1668
  113MOL    H5540599   1.516   3.333   3.711 -0.3264 -0.2361  0.7856
  113MOL    C5640600   1.186   3.737   4.100 -0.1152  0.4918  0.4341
  113MOL    C5740601   1.127   3.617   4.178 -0.1288  0.1025  0.1909
  113MOL    C5840602   1.093   3.493   4.088 -0.7435 -0.9388  0.5847
  113MOL    C5940603   1.085   3.364   4.176  0.2365  0.3210 -0.1307
  113MOL    C6040604   1.015   3.249   4.107 -0.4895  0.2855 -1.3817
  113MOL    C6140605   0.954   3.144   4.199 -0.4410 -0.1467  0.3234
  113MOL    H6240606   1.218   3.806   4.178 -0.3240 -0.0291  0.9939
  113MOL    H6340607   1.097   3.782   4.055 -0.4454  0.4704  1.0498
  113MOL    H6440608   1.193   3.584   4.258 -1.1153 -0.0341  0.9644
  113MOL    H6540609   1.005   3.504   4.026 -0.7444 -0.7909  0.6094
  113MOL    H6640610   1.178   3.487   4.019  0.1041  0.2361  1.4977
  113MOL    H6740611   1.033   3.383   4.270 -0.6216 -1.6370 -0.1816
  113MOL    H6840612   1.180   3.327   4.216 -0.4041  0.3754  1.4595
  113MOL    H6940613   0.940   3.296   4.045 -1.7856  1.1147  0.7585
  113MOL    H7040614   1.084   3.204   4.036  1.7050 -0.6396  1.2288
  113MOL    H7140615   0.909   3.185   4.289  1.5772  1.3797  0.6614
  113MOL    H7240616   0.885   3.084   4.139 -2.3387  0.1986  2.1315
  113MOL    H7340617   1.027   3.071   4.235 -0.1700 -0.4399 -0.7935
  113MOL    C7440618   0.997   3.660   4.241  0.4590  0.0541  0.4358
  113MOL    C7540619   0.993   3.779   4.334 -0.7044 -0.0056  0.2766
  113MOL    C7640620   0.840   3.813   4.378 -0.4453 -0.0472  0.4695
  113MOL    C7740621   0.772   3.911   4.279 -0.0106  0.3067  0.0791
  113MOL    C7840622   0.618   3.924   4.290  0.5007 -0.5028  0.1620
  113MOL    C7940623   0.566   4.019   4.184  0.2958 -0.4624  0.2036
  113MOL    H8040624   0.939   3.696   4.156 -3.2191 -3.1178  1.4275
  113MOL    H8140625   0.946   3.574   4.285 -1.6739  0.7804 -0.5439
  113MOL    H8240626   1.042   3.869   4.296 -2.2337  0.0295 -1.6509
  113MOL    H8340627   0.774   3.727   4.374 -0.2058 -0.2744  1.2335
  113MOL    H8440628   0.833   3.851   4.480 -1.4889 -1.0202  0.7614
  113MOL    H8540629   0.820   4.008   4.292 -0.1914  0.1531  2.0409
  113MOL    H8640630   0.799   3.883   4.177  0.1316  2.4124 -0.4923
  113MOL    H8740631   0.601   3.962   4.391 -1.0007  0.5285 -0.4465
  113MOL    H8840632   0.570   3.826   4.286 -1.1384  0.2515  0.6833
  113MOL    H8940633   0.546   3.967   4.090 -2.2658 -0.1511  0.5521
  113MOL    H9040634   0.475   4.067   4.220 -0.6266 -0.9698 -1.3762
  113MOL    H9140635   0.645   4.094   4.172  0.1649 -0.3941 -0.2463
  113MOL    C9240636   1.081   3.737   4.457 -0.4720  0.3899 -0.3029
  113MOL    C9340637   1.193   3.832   4.500 -0.2128 -0.3943 -0.1060
  113MOL    C9440638   1.188   3.881   4.647 -0.0123 -0.6880  0.1090
  113MOL    C9540639   1.055   3.942   4.694  0.2946 -0.2164 -0.3903
  113MOL    C9640640   1.061   4.036   4.824  0.7231 -1.4036 -0.2544
  113MOL    C9740641   0.925   4.090   4.883  0.7152 -0.3528 -0.2935
  113MOL    H9840642   1.015   3.741   4.544  1.0031 -3.6067  1.0885
  113MOL    H9940643   1.129   3.639   4.458  2.3401  1.7360  1.7192
  113MOL   H10040644   1.161   3.921   4.446 -0.2513 -0.2722  0.1196
  113MOL   H10140645   1.260   3.961   4.668 -1.1483  0.3891 -0.0562
  113MOL   H10240646   1.205   3.795   4.712 -1.0680  0.3742  1.8002
  113MOL   H10340647   0.996   3.976   4.609  0.2879  0.3052 -0.1790
  113MOL   H10440648   1.000   3.853   4.727 -0.0396  0.4767  0.9539
  113MOL   H10540649   1.115   3.990   4.907  1.6554 -2.1884 -1.2769
  113MOL   H10640650   1.119   4.124   4.795 -1.4005 -0.2639 -1.1696
  113MOL   H10740651   0.935   4.128   4.985  1.2353  0.3435 -0.5953
  113MOL   H10840652   0.889   4.166   4.814  0.3950 -1.2939 -1.1627
  113MOL   H10940653   0.852   4.010   4.887 -1.8249  1.8449 -1.5656
  113MOL   C11040654   1.329   3.778   4.457 -0.4618 -0.7217  0.0677
  113MOL   C11140655   1.443   3.884   4.437  0.1181 -0.4783  0.5173
  113MOL   C11240656   1.395   3.999   4.345 -0.3885  0.0977 -0.0621
  113MOL   C11340657   1.392   4.130   4.428 -0.5610 -0.1510  0.6635
  113MOL   C11440658   1.281   4.219   4.375  0.0644 -0.3367  0.7818
  113MOL   C11540659   1.275   4.356   4.452  0.1258 -0.3209  0.6857
  113MOL   H11640660   1.354   3.697   4.525  1.7186 -0.7743 -0.7369
  113MOL   H11740661   1.323   3.730   4.360  1.7829  1.7206 -1.3732
  113MOL   H11840662   1.463   3.925   4.535 -2.6746  1.4364  0.3232
  113MOL   H11940663   1.300   3.979   4.294 -0.7445  1.8628 -0.1564
  113MOL   H12040664   1.466   4.016   4.265 -0.1725  1.5586  0.4197
  113MOL   H12140665   1.489   4.179   4.417 -1.1920  1.3061  1.4548
  113MOL   H12240666   1.374   4.114   4.534  0.6168  2.0054  1.2158
  113MOL   H12340667   1.183   4.171   4.377  0.2947 -0.9216 -0.9852
  113MOL   H12440668   1.303   4.240   4.270 -0.9985 -2.5100  0.0975
  113MOL   H12540669   1.194   4.413   4.407  0.7842  1.3072  1.5058
  113MOL   H12640670   1.264   4.345   4.560  0.2721 -1.3381  0.6026
  113MOL   H12740671   1.372   4.405   4.441 -0.2008 -0.3367 -2.6822
  113MOL   C12840672   1.579   3.826   4.391 -0.0430  0.8396  0.1901
  113MOL   C12940673   1.696   3.931   4.388 -0.4849  0.9210 -0.4407
  113MOL   C13040674   1.817   3.867   4.308 -0.0613 -0.5586 -0.1401
  113MOL   C13140675   1.794   3.870   4.156  0.3851  0.0145  0.2318
  113MOL   C13240676   1.774   4.007   4.086 -0.4975  0.4100  0.2511
  113MOL   C13340677   1.758   3.973   3.940  0.6306 -0.1496  0.1343
  113MOL   H13440678   1.562   3.795   4.288  0.1491 -0.0444  0.4268
  113MOL   H13540679   1.612   3.736   4.441 -1.7300 -0.2849 -0.6597
  113MOL   H13640680   1.664   4.022   4.338 -1.8121  0.1960 -0.9379
  113MOL   H13740681   1.915   3.909   4.328  0.1655 -0.0745 -2.1496
  113MOL   H13840682   1.830   3.761   4.325  1.1720 -0.3763  0.1064
  113MOL   H13940683   1.703   3.811   4.142  0.3790 -0.3334  1.6231
  113MOL   H14040684   1.863   3.806   4.101  1.1192  1.6353 -0.7624
  113MOL   H14140685   1.677   4.045   4.117 -0.8924 -1.4175  1.3028
  113MOL   H14240686   1.859   4.070   4.113  1.2832 -1.5382 -0.6631
  113MOL   H14340687   1.710   4.055   3.886 -3.0146 -2.4152 -0.2201
  113MOL   H14440688   1.701   3.882   3.923  0.5912 -0.2724  0.9203
  113MOL   H14540689   1.856   3.959   3.895  1.4464  2.1060  1.1443
  113MOL   C14640690   1.739   3.968   4.532  1.1288 -0.3665  0.4098
  113MOL   C14740691   1.838   4.092   4.553 -0.7851  0.5861 -0.9565
  113MOL   C14840692   1.847   4.121   4.697  0.1293 -0.7089 -0.1806
  113MOL   C14940693   1.917   3.999   4.769  0.0103 -0.1180 -0.0496
  113MOL   C15040694   1.938   4.031   4.916  0.4899  0.5680 -1.0946
  113MOL   C15140695   2.015   3.908   4.972  0.4635  0.7316  0.4267
  113MOL   H15240696   1.665   3.982   4.610  0.2705 -2.5803  0.0396
  113MOL   H15340697   1.786   3.874   4.564  0.6458 -1.8077 -2.8294
  113MOL   H15440698   1.939   4.057   4.534 -1.0711 -2.0014  1.8202
  113MOL   H15540699   1.746   4.140   4.732  0.7873 -0.3990  1.6083
  113MOL   H15640700   1.911   4.206   4.719  1.9283 -2.3962  1.3735
  113MOL   H15740701   1.856   3.909   4.771  0.5378 -0.5287 -1.7857
  113MOL   H15840702   2.015   3.963   4.740 -0.3173 -2.2392  1.3953
  113MOL   H15940703   1.846   4.051   4.970  0.7751 -1.7962  0.3087
  113MOL   H16040704   2.003   4.117   4.933 -0.6510  0.8708  2.0033
  113MOL   H16140705   1.962   3.815   4.954  0.9198  0.7984 -1.3031
  113MOL   H16240706   2.110   3.888   4.924  0.5899 -0.6366  1.2217
  113MOL   H16340707   2.040   3.916   5.078  0.7494 -1.8750  0.5780
  113MOL   C16440708   1.801   4.211   4.474 -0.1231  0.0369  0.5171
  113MOL   C16540709   1.910   4.327   4.480  0.0772 -0.3916 -0.1335
  113MOL   C16640710   2.045   4.273   4.439 -0.2353  0.1100  0.1123
  113MOL   C16740711   2.053   4.236   4.294  0.4705 -1.2307 -0.2046
  113MOL   C16840712   2.198   4.210   4.250  0.0127  0.0078 -0.8552
  113MOL   C16940713   2.193   4.172   4.103 -0.1019 -0.2266 -0.2788
  113MOL   H17040714   1.792   4.185   4.369 -0.4864 -0.8408  0.7647
  113MOL   H17140715   1.700   4.243   4.500  0.1205 -0.2770  1.8747
  113MOL   H17240716   1.925   4.366   4.580  1.6664  1.0062 -0.8774
  113MOL   H17340717   2.078   4.192   4.503 -1.0174  0.3100  0.7782
  113MOL   H17440718   2.125   4.342   4.466  0.0075 -0.2806  0.3811
  113MOL   H17540719   2.022   4.318   4.230 -0.4110 -1.8841 -0.6273
  113MOL   H17640720   1.992   4.149   4.271 -1.2684 -0.2142  0.4503
  113MOL   H17740721   2.241   4.134   4.314 -1.0170 -0.5447 -0.8066
  113MOL   H17840722   2.259   4.300   4.263  0.5891 -0.7290  1.8084
  113MOL   H17940723   2.153   4.072   4.087  0.1246 -0.2443 -0.7309
  113MOL   H18040724   2.291   4.172   4.056 -1.8030 -1.3196 -4.0501
  113MOL   H18140725   2.133   4.238   4.040  1.0852  1.6329  0.5131
  113MOL   C18240726   1.866   4.448   4.389 -0.1339  0.4703  0.6824
  113MOL   C18340727   1.760   4.540   4.451 -0.4954 -0.6381  0.8746
  113MOL   C18440728   1.707   4.636   4.343  0.1572  0.6738  0.7154
  113MOL   C18540729   1.600   4.731   4.389 -0.9196  0.3237  0.1959
  113MOL   C18640730   1.555   4.822   4.269 -0.2116 -0.3605  0.0800
  113MOL   C18740731   1.431   4.903   4.318  0.5810 -0.1359 -0.3229
  113MOL   H18840732   1.952   4.508   4.361 -0.9389  0.2192 -2.5232
  113MOL   H18940733   1.821   4.399   4.303  2.5240  0.0071 -0.4772
  113MOL   H19040734   1.675   4.483   4.489 -1.4445 -0.0864 -0.3612
  113MOL   H19140735   1.789   4.697   4.305 -0.9715  1.2399 -0.8585
  113MOL   H19240736   1.664   4.575   4.264  0.8399  0.8170  0.2210
  113MOL   H19340737   1.634   4.784   4.479 -0.1716 -1.4625  1.0084
  113MOL   H19440738   1.517   4.671   4.427 -0.6294 -2.6136 -3.4486
  113MOL   H19540739   1.525   4.755   4.188 -0.1470  1.0212 -1.1172
  113MOL   H19640740   1.626   4.900   4.243 -1.1654  0.3492 -0.4412
  113MOL   H19740741   1.343   4.844   4.346  0.8385 -0.5293 -0.3372
  113MOL   H19840742   1.403   4.972   4.239  1.5710  0.0079 -0.5532
  113MOL   H19940743   1.455   4.963   4.406 -2.2802  0.8690 -0.1499
  113MOL   C20040744   1.829   4.618   4.570 -0.1478 -0.5698  0.1565
  113MOL   C20140745   1.787   4.580   4.715 -0.2139 -0.0518  0.5679
  113MOL   C20240746   1.895   4.608   4.821  0.6500 -0.9176  0.1478
  113MOL   C20340747   2.005   4.507   4.841  0.5158  0.2138  0.4489
  113MOL   C20440748   2.119   4.548   4.936 -0.1492 -0.3112  0.2659
  113MOL   C20540749   2.071   4.579   5.079  0.8610  0.5846  0.3562
  113MOL   H20640750   1.831   4.727   4.573 -0.0449 -0.6233  3.2329
  113MOL   H20740751   1.936   4.599   4.565  0.0282  0.2698  0.6020
  113MOL   H20840752   1.774   4.472   4.714  1.3236 -0.3226  3.1987
  113MOL   H20940753   1.859   4.616   4.924  0.3143 -0.3750 -0.0123
  113MOL   H21040754   1.943   4.703   4.798 -1.3589 -0.2675 -1.5650
  113MOL   H21140755   2.040   4.485   4.741 -0.8442  0.7637 -0.1503
  113MOL   H21240756   1.957   4.414   4.870 -1.1288  0.4656 -1.4141
  113MOL   H21340757   2.174   4.633   4.897  3.8110 -1.8870  2.1497
  113MOL   H21440758   2.194   4.469   4.944  2.4143  2.1213  1.0609
  113MOL   H21540759   2.013   4.494   5.116 -0.2667  1.0327 -0.3586
  113MOL   H21640760   2.159   4.592   5.142  0.8628  0.3206  0.4107
  113MOL   H21740761   1.999   4.660   5.085 -3.3408 -3.0545  1.6001
  113MOL   C21840762   1.654   4.651   4.753 -0.2336  0.1219 -0.1908
  113MOL   C21940763   1.573   4.581   4.865  0.1014  0.0449  0.4583
  113MOL   C22040764   1.511   4.443   4.818  0.4215 -0.0470 -0.2032
  113MOL   C22140765   1.501   4.333   4.931 -0.3232 -0.5175 -0.2926
  113MOL   C22240766   1.410   4.214   4.891 -0.0684  0.4321  0.3182
  113MOL   C22340767   1.385   4.115   5.004  0.1509  0.0301 -0.5496
  113MOL   H22440768   1.671   4.755   4.783  0.6932 -0.2500  0.6039
  113MOL   H22540769   1.580   4.645   4.673  0.9452  0.7651 -1.3408
  113MOL   H22640770   1.646   4.565   4.945  1.0199 -0.3002 -0.4485
  113MOL   H22740771   1.572   4.400   4.739  0.8168 -1.3489  0.7990
  113MOL   H22840772   1.417   4.465   4.768 -1.8554 -1.9208  3.1299
  113MOL   H22940773   1.453   4.379   5.017  0.6650 -0.9254  0.4717
  113MOL   H23040774   1.605   4.312   4.955 -0.5208 -0.2742  0.7768
  113MOL   H23140775   1.316   4.248   4.847 -0.8247 -1.9168  0.0558
  113MOL   H23240776   1.451   4.153   4.810  1.2598  2.5723 -0.6781
  113MOL   H23340777   1.315   4.042   4.963 -1.8583  2.4571 -1.5637
  113MOL   H23440778   1.336   4.152   5.094  1.5232  2.5056 -0.7810
  113MOL   H23540779   1.479   4.067   5.032  0.4738  1.8721  1.7458
  113MOL   C23640780   1.470   4.672   4.935 -0.2469 -0.3639  0.2646
  113MOL   C23740781   1.517   4.793   5.013  0.2789 -0.3883  0.0532
  113MOL   C23840782   1.560   4.756   5.158 -0.6843 -0.0587  0.4004
  113MOL   C23940783   1.700   4.692   5.177  0.4331  0.3088 -0.6364
  113MOL   C24040784   1.739   4.700   5.328 -0.1044  0.2373  0.2956
  113MOL   C24140785   1.871   4.640   5.384  0.1687  0.7169 -0.4697
  113MOL   H24240786   1.406   4.707   4.854 -0.6702 -0.6241  0.4829
  113MOL   H24340787   1.404   4.610   4.995 -0.9234  0.9074  0.8546
  113MOL   H24440788   1.602   4.839   4.963 -0.3516  0.0167 -0.6594
  113MOL   H24540789   1.571   4.852   5.209 -1.2142  0.0347  0.3482
  113MOL   H24640790   1.486   4.699   5.216  1.0303 -1.4179  1.3112
  113MOL   H24740791   1.782   4.743   5.126 -0.4976  2.0889 -0.3796
  113MOL   H24840792   1.709   4.588   5.142 -1.4537 -0.0613 -0.0729
  113MOL   H24940793   1.757   4.800   5.367  0.9084  0.2389 -0.1579
  113MOL   H25040794   1.661   4.662   5.394 -1.3156  2.4892  0.2128
  113MOL   H25140795   1.869   4.533   5.404  0.0851  0.5745 -1.2159
  113MOL   H25240796   1.947   4.652   5.306 -0.8676 -0.4806 -1.6922
  113MOL   H25340797   1.926   4.684   5.467 -0.8915 -2.7456  2.1800
  113MOL   C25440798   1.392   4.898   5.016  0.4376 -0.0406  0.4221
  113MOL   C25540799   1.365   4.972   4.887 -0.3448  0.1069 -0.1076
  113MOL   C25640800   1.480   5.076   4.861  0.0992  0.1968 -0.6232
  113MOL   C25740801   1.503   5.199   4.939  0.3182 -0.0985 -0.2003
  113MOL   C25840802   1.623   5.282   4.895 -0.1863  0.1087  0.6188
  113MOL   C25940803   1.642   5.410   4.975  0.0836 -0.6145 -0.6305
  113MOL   H26040804   1.392   4.970   5.097  0.1015 -0.2179  0.5795
  113MOL   H26140805   1.307   4.836   5.044  1.1056 -1.8366 -1.3614
  113MOL   H26240806   1.366   4.907   4.800  0.3065  0.8549 -0.6758
  113MOL   H26340807   1.567   5.012   4.849  0.6146  0.3135  2.1756
  113MOL   H26440808   1.456   5.118   4.763  2.0524  1.3075 -0.6446
  113MOL   H26540809   1.421   5.268   4.920  2.1366  2.4245  0.7776
  113MOL   H26640810   1.499   5.181   5.047 -1.3097 -1.4859 -0.4858
  113MOL   H26740811   1.604   5.312   4.792  0.5358 -0.2486  0.3782
  113MOL   H26840812   1.713   5.222   4.886  0.2649  0.7833  0.5231
  113MOL   H26940813   1.682   5.379   5.072 -1.1450 -0.0015  0.0913
  113MOL   H27040814   1.545   5.451   5.004  1.1818  1.3327  0.4187
  113MOL   H27140815   1.691   5.497   4.931 -1.3244 -0.5767 -2.1508
  113MOL   C27240816   1.220   5.029   4.886 -0.3957 -0.1720  0.2541
  113MOL   C27340817   1.155   5.031   4.751  0.6288 -0.1878  0.1196
  113MOL   C27440818   1.223   5.104   4.632  0.8205  0.7475  0.1269
  113MOL   C27540819   1.244   5.257   4.651  0.9404  0.0068 -0.5406
  113MOL   C27640820   1.324   5.308   4.538 -0.0248  0.6575  0.2559
  113MOL   C27740821   1.353   5.456   4.546  0.5125  0.1699  0.1119
  113MOL   H27840822   1.157   4.967   4.951 -0.8582 -0.8449 -0.8229
  113MOL   H27940823   1.225   5.132   4.922 -2.5686 -0.0527  0.2957
  113MOL   H28040824   1.149   4.927   4.718 -2.6741  0.0210 -0.0483
  113MOL   H28140825   1.162   5.090   4.543 -1.0885 -0.1422  1.5401
  113MOL   H28240826   1.320   5.060   4.606  0.5598  0.0137  0.3810
  113MOL   H28340827   1.287   5.277   4.749  1.2536 -0.7939 -0.5116
  113MOL   H28440828   1.149   5.308   4.636 -0.0082 -1.7249 -0.4584
  113MOL   H28540829   1.412   5.253   4.504  1.0343  3.2258 -1.4036
  113MOL   H28640830   1.262   5.296   4.449 -2.2007  1.1580  1.6784
  113MOL   H28740831   1.260   5.514   4.542  0.6484  0.4534  0.9448
  113MOL   H28840832   1.403   5.488   4.638  1.9850 -0.1264 -0.5832
  113MOL   H28940833   1.422   5.498   4.473 -0.2533  1.2171 -0.0339
  113MOL   C29040834   1.006   5.077   4.760 -0.1629 -0.1192  0.6156
  113MOL   C29140835   0.920   4.960   4.813 -0.0820 -0.8837  0.2056
  113MOL   C29240836   0.797   5.012   4.898  0.4087 -0.3817  0.6694
  113MOL   C29340837   0.826   5.079   5.037 -0.1998 -0.2087 -0.0191
  113MOL   C29440838   0.697   5.119   5.105 -0.7550  0.2588  0.7322
  113MOL   C29540839   0.712   5.135   5.262 -0.5254  0.8670 -0.3547
  113MOL   H29640840   0.958   5.113   4.670 -0.0401 -0.0958  0.5592
  113MOL   H29740841   1.001   5.160   4.831  0.1251 -0.3355  0.8959
  113MOL   H29840842   0.981   4.911   4.889  2.2143 -1.5960 -2.0631
  113MOL   H29940843   0.732   4.930   4.929 -0.5592 -0.1600 -0.7172
  113MOL   H30040844   0.738   5.087   4.846  0.5033  0.6118  1.9833
  113MOL   H30140845   0.863   5.005   5.108 -2.6684  0.2255  1.7752
  113MOL   H30240846   0.888   5.169   5.034 -1.9501  1.0094 -0.9495
  113MOL   H30340847   0.631   5.035   5.083  0.6523  0.1706 -3.7837
  113MOL   H30440848   0.647   5.210   5.071  0.7168 -0.2589 -3.0243
  113MOL   H30540849   0.613   5.160   5.300 -0.3510 -1.2179  1.5664
  113MOL   H30640850   0.789   5.211   5.278 -2.6557  3.3591 -1.4783
  113MOL   H30740851   0.739   5.041   5.309 -1.0678  0.0645 -1.6215
  113MOL   C30840852   0.876   4.864   4.702  0.1606 -0.5112  0.0531
  113MOL   C30940853   0.804   4.734   4.746 -0.5511  0.1768 -0.0298
  113MOL   C31040854   0.880   4.637   4.847  0.4062 -0.2565 -0.3050
  113MOL   C31140855   1.015   4.572   4.808  0.2857 -0.3005 -0.4311
  113MOL   C31240856   1.093   4.521   4.932 -0.2286  0.2283 -0.2922
  113MOL   C31340857   1.049   4.394   4.993 -0.5534  0.3619  0.2999
  113MOL   H31440858   0.818   4.920   4.629  2.3339 -2.9550 -3.7063
  113MOL   H31540859   0.966   4.839   4.646 -0.1355 -0.4499 -0.4496
  113MOL   H31640860   0.721   4.759   4.813  0.0502  2.5984 -0.1702
  113MOL   H31740861   0.815   4.556   4.880  1.4683 -0.8319  0.3956
  113MOL   H31840862   0.903   4.703   4.931 -0.5172 -0.9155  0.4651
  113MOL   H31940863   1.075   4.651   4.762 -0.7894 -0.2955 -1.8478
  113MOL   H32040864   1.013   4.495   4.730  0.2822 -0.2091 -0.5220
  113MOL   H32140865   1.191   4.496   4.890 -0.1758 -0.2229  0.1012
  113MOL   H32240866   1.111   4.595   5.010  1.9308 -0.3220 -0.2213
  113MOL   H32340867   0.941   4.384   4.987 -0.4969 -0.9231  1.2936
  113MOL   H32440868   1.065   4.397   5.101  2.0528  1.3851 -0.0589
  113MOL   H32540869   1.098   4.304   4.955 -1.3384 -0.7780  1.9448
  113MOL   C32640870   0.738   4.657   4.619 -0.7287 -0.9301  0.1622
  113MOL   C32740871   0.621   4.741   4.555  0.5322 -0.9215  0.4001
  113MOL   C32840872   0.550   4.665   4.445  0.3282  0.0638 -0.5986
  113MOL   C32940873   0.640   4.638   4.317 -0.3407 -0.0257 -0.4875
  113MOL   C33040874   0.581   4.584   4.190 -0.8058  0.0107  0.0572
  113MOL   C33140875   0.552   4.431   4.216  0.1869 -0.3789  0.9199
  113MOL   H33240876   0.708   4.554   4.634  1.2202 -1.9268 -2.4591
  113MOL   H33340877   0.813   4.668   4.540 -1.6462 -1.5637 -0.8053
  113MOL   H33440878   0.666   4.829   4.510  1.1384 -0.3683  2.0713
  113MOL   H33540879   0.499   4.578   4.486  2.9219 -0.4758  1.6375
  113MOL   H33640880   0.465   4.725   4.412 -1.3164 -0.5219  2.4665
  113MOL   H33740881   0.723   4.574   4.346 -0.1428  0.4181 -0.0747
  113MOL   H33840882   0.689   4.734   4.301 -0.9269  0.6451  1.4992
  113MOL   H33940883   0.494   4.644   4.165 -0.6862 -0.7750 -2.3118
  113MOL   H34040884   0.657   4.595   4.113 -0.3702 -0.4636  0.4077
  113MOL   H34140885   0.640   4.373   4.242  1.8485  0.9597 -1.4909
  113MOL   H34240886   0.508   4.390   4.125  0.5532 -1.5511  1.2607
  113MOL   H34340887   0.480   4.423   4.297 -0.0816 -2.5449  0.5017
  113MOL   C34440888   0.518   4.808   4.665  0.3719  0.0138  0.4290
  113MOL   C34540889   0.407   4.906   4.602  0.7887  0.8741 -0.2141
  113MOL   C34640890   0.313   4.962   4.710 -0.2429 -0.6112 -0.2422
  113MOL   C34740891   0.385   5.042   4.820  0.4507 -0.5957  0.4406
  113MOL   C34840892   0.281   5.110   4.910  0.6223  0.0372  0.0241
  113MOL   C34940893   0.346   5.154   5.046 -0.3810  0.0136 -0.2873
  113MOL   H35040894   0.462   4.738   4.727  1.7651 -2.1343 -0.6769
  113MOL   H35140895   0.585   4.864   4.730  0.8158  1.4254 -1.2051
  113MOL   H35240896   0.347   4.830   4.552 -0.4615  1.5407  0.2338
  113MOL   H35340897   0.233   5.018   4.662  1.0907  0.4968 -1.2008
  113MOL   H35440898   0.270   4.871   4.752  1.1214 -0.7197  0.9427
  113MOL   H35540899   0.444   4.982   4.890  2.9086  2.1623  0.8361
  113MOL   H35640900   0.453   5.116   4.777 -1.4705 -0.5130 -2.6650
  113MOL   H35740901   0.242   5.199   4.861 -0.1653  0.7182  1.8869
  113MOL   H35840902   0.195   5.051   4.941 -0.6245  0.7941 -1.8955
  113MOL   H35940903   0.269   5.196   5.111 -0.0182  0.2799 -0.0232
  113MOL   H36040904   0.389   5.071   5.103 -1.2920 -1.2549 -1.4102
  113MOL   H36140905   0.417   5.236   5.033 -1.2543  0.8148 -0.0567
  113MOL   H36240906   0.442   4.987   4.538  1.0482  0.2281 -0.8952
  114MOL     C140907   5.199   6.670   5.451  0.1759 -0.2318  0.9524
  114MOL     C240908   5.186   6.521   5.419  0.0202 -0.2430  0.5079
  114MOL     C340909   5.201   6.440   5.544  0.1447  0.0015  0.1089
  114MOL     C440910   5.185   6.289   5.525  0.2531 -0.4267  0.6463
  114MOL     C540911   5.174   6.225   5.665  0.5300  0.1850  0.3168
  114MOL     C640912   5.123   6.084   5.657  0.4800 -0.2536  0.6262
  114MOL     H740913   5.176   6.728   5.362  0.9765  1.0337  1.5643
  114MOL     H840914   5.135   6.706   5.533  1.8551 -1.8837  3.0404
  114MOL     H940915   5.082   6.503   5.392  0.4386  0.6098 -1.8228
  114MOL    H1040916   5.133   6.486   5.615  1.7688  3.2296 -0.3343
  114MOL    H1140917   5.300   6.450   5.587  0.4810  0.1898 -0.6915
  114MOL    H1240918   5.248   6.238   5.452  0.5234 -0.9589  1.2499
  114MOL    H1340919   5.088   6.273   5.478  0.4241 -0.9739  0.4805
  114MOL    H1440920   5.265   6.211   5.722  0.3566 -2.4115  0.0132
  114MOL    H1540921   5.102   6.276   5.728 -0.0710  0.4323 -0.5531
  114MOL    H1640922   5.124   6.030   5.752 -0.3820 -1.2092  0.1082
  114MOL    H1740923   5.183   6.017   5.595 -0.0293 -2.0139  2.0004
  114MOL    H1840924   5.020   6.076   5.621  0.3185  0.7406  0.8643
  114MOL    H1940925   5.300   6.700   5.476  0.1701  0.7898 -0.1914
  114MOL    C2040926   5.276   6.476   5.295  0.3569 -0.1200 -0.3852
  114MOL    C2140927   5.257   6.561   5.165  0.6136 -0.4675 -0.7245
  114MOL    C2240928   5.341   6.509   5.046 -0.3491 -0.4165 -0.4872
  114MOL    C2340929   5.293   6.393   4.959 -0.3619 -0.7032  0.0764
  114MOL    C2440930   5.391   6.363   4.845 -0.1409 -0.5036  0.6286
  114MOL    C2540931   5.348   6.254   4.745  0.5723 -0.1562 -0.7443
  114MOL    H2640932   5.236   6.380   5.265 -0.3321  0.7505 -2.3249
  114MOL    H2740933   5.382   6.470   5.323 -0.2934 -2.3695  1.8135
  114MOL    H2840934   5.304   6.656   5.194  1.2283 -0.9126 -0.2482
  114MOL    H2940935   5.437   6.484   5.092 -0.1981 -0.6055 -0.8951
  114MOL    H3040936   5.363   6.600   4.989  0.4960  0.4873  1.2402
  114MOL    H3140937   5.197   6.422   4.916 -0.1884  1.2900  0.9897
  114MOL    H3240938   5.277   6.305   5.022 -1.4963 -1.4952 -1.2819
  114MOL    H3340939   5.424   6.451   4.789  0.4014 -0.8689  0.3634
  114MOL    H3440940   5.480   6.335   4.901 -0.0283 -2.3877 -0.4196
  114MOL    H3540941   5.254   6.281   4.697  0.3682  0.5911  0.0575
  114MOL    H3640942   5.416   6.269   4.661  0.9013  1.1954 -0.2449
  114MOL    H3740943   5.345   6.156   4.791 -0.0646  1.0756  1.9767
  114MOL    C3840944   5.110   6.581   5.122  0.6940  0.2177  0.2020
  114MOL    C3940945   5.076   6.686   5.011 -0.0184  0.1016 -0.4340
  114MOL    C4040946   4.930   6.666   4.960  0.1263  0.4829 -0.8010
  114MOL    C4140947   4.912   6.562   4.839  0.2940  0.8597  0.6326
  114MOL    C4240948   4.768   6.540   4.795  0.0211 -0.2478  0.3165
  114MOL    C4340949   4.672   6.490   4.902 -0.0193 -0.3064 -0.4090
  114MOL    H4440950   5.060   6.620   5.210  1.8923  1.4257  0.3653
  114MOL    H4540951   5.065   6.484   5.101 -0.4863  0.7856  0.0488
  114MOL    H4640952   5.141   6.666   4.925  2.3777  0.0570  1.3366
  114MOL    H4740953   4.876   6.629   5.047 -0.5484  0.9941 -0.9980
  114MOL    H4840954   4.893   6.762   4.924  0.9631  1.3655  0.7170
  114MOL    H4940955   4.966   6.600   4.753  2.4284 -1.6518  0.7759
  114MOL    H5040956   4.959   6.464   4.851 -0.8303  0.0098 -1.6439
  114MOL    H5140957   4.735   6.633   4.749  1.4276  0.5858  0.9650
  114MOL    H5240958   4.776   6.466   4.716 -2.1445 -2.1864  1.8281
  114MOL    H5340959   4.681   6.384   4.925 -0.9087  0.0445  1.6330
  114MOL    H5440960   4.567   6.508   4.875  0.4363 -1.0301 -2.7655
  114MOL    H5540961   4.689   6.538   4.998 -1.2234  0.2363 -0.4496
  114MOL    C5640962   5.110   6.825   5.053  0.3961 -0.0359 -0.2018
  114MOL    C5740963   5.125   6.925   4.930  0.1573  0.7216  0.0491
  114MOL    C5840964   5.272   6.983   4.934 -0.1802 -0.5428  0.1030
  114MOL    C5940965   5.378   6.884   4.889 -0.4385  0.3461 -0.2190
  114MOL    C6040966   5.513   6.954   4.871 -0.0385 -0.4072 -0.0851
  114MOL    C6140967   5.634   6.869   4.843 -0.3264  0.4657  0.8753
  114MOL    H6240968   5.043   6.871   5.126 -0.5484 -2.9341  0.8060
  114MOL    H6340969   5.201   6.820   5.112  0.1411  1.2170  0.3181
  114MOL    H6440970   5.109   6.870   4.837 -1.1910  3.4539 -1.3999
  114MOL    H6540971   5.274   7.067   4.864  0.2939 -0.1526  0.5847
  114MOL    H6640972   5.294   7.027   5.031 -0.3586 -0.2228 -0.0038
  114MOL    H6740973   5.352   6.845   4.790  1.8898  1.4973 -1.3230
  114MOL    H6840974   5.372   6.799   4.957 -0.2824  0.5009 -0.0110
  114MOL    H6940975   5.508   7.031   4.794  2.1136 -0.5278 -0.3722
  114MOL    H7040976   5.531   7.008   4.963 -0.9268 -2.6233  1.4357
  114MOL    H7140977   5.613   6.814   4.752 -2.4692 -0.0701  1.6648
  114MOL    H7240978   5.728   6.923   4.833  0.7134 -1.1399  1.7467
  114MOL    H7340979   5.661   6.803   4.926  0.5316  2.1568  1.9753
  114MOL    C7440980   5.014   7.034   4.937  0.1112  0.0246  0.7903
  114MOL    C7540981   5.016   7.141   4.826 -0.1756 -0.0078 -0.2797
  114MOL    C7640982   5.026   7.079   4.682  0.1599  0.4262 -0.7784
  114MOL    C7740983   5.027   7.174   4.563 -0.3718  0.3868 -0.7001
  114MOL    C7840984   5.002   7.108   4.424 -0.7799  0.2598 -0.4175
  114MOL    C7940985   5.037   7.198   4.308  0.6743  0.1906 -0.2882
  114MOL    H8040986   4.925   6.971   4.942  0.4449 -0.6216 -0.9422
  114MOL    H8140987   5.035   7.091   5.027 -1.5868 -1.2736  2.0317
  114MOL    H8240988   5.096   7.214   4.836 -0.9759  0.7445  0.7494
  114MOL    H8340989   5.114   7.017   4.667  0.7529  1.0215  0.1199
  114MOL    H8440990   4.942   7.010   4.675  1.7679 -1.7167  0.3499
  114MOL    H8540991   4.946   7.246   4.577  0.6082  1.2642  0.4803
  114MOL    H8640992   5.123   7.225   4.556 -0.5502  0.9002  0.5452
  114MOL    H8740993   4.897   7.078   4.419 -0.4392 -0.6878 -2.3444
  114MOL    H8840994   5.063   7.019   4.412  0.5208  1.2073 -0.8815
  114MOL    H8940995   4.994   7.298   4.313 -1.0720 -0.5323 -0.6066
  114MOL    H9040996   5.141   7.228   4.314  1.6433 -3.0218 -0.2271
  114MOL    H9140997   5.017   7.151   4.212 -3.9572 -2.9231  2.0244
  114MOL    C9240998   4.895   7.234   4.839 -0.1963  0.3028  0.6325
  114MOL    C9340999   4.880   7.315   4.969  0.2059  0.6946  0.1168
  114MOL    C9441000   5.008   7.396   5.004  0.3673 -0.0436  0.6060
  114MOL    C9541001   5.039   7.507   4.899 -0.6185 -0.1794  1.1623
  114MOL    C9641002   5.120   7.616   4.963 -0.8163  1.1171  0.3822
  114MOL    C9741003   5.183   7.703   4.864  0.6707 -0.3024 -0.0310
  114MOL    H9841004   4.897   7.312   4.763 -1.6858  1.4201  1.7165
  114MOL    H9941005   4.806   7.173   4.822 -1.2879  1.6524  1.3522
  114MOL   H10041006   4.877   7.249   5.056  2.5317  0.1584 -0.1876
  114MOL   H10141007   5.094   7.330   5.021  1.6771  1.5971  0.4772
  114MOL   H10241008   4.992   7.451   5.097 -0.5190  0.6119  0.0673
  114MOL   H10341009   5.087   7.459   4.814 -1.2029 -0.6709  1.1085
  114MOL   H10441010   4.945   7.549   4.865 -0.4334 -1.6079 -1.1989
  114MOL   H10541011   5.058   7.680   5.026 -2.4518 -1.3202  1.3365
  114MOL   H10641012   5.205   7.574   5.017  0.1351 -0.1906 -2.0462
  114MOL   H10741013   5.253   7.656   4.795 -1.1677  1.2932 -3.0938
  114MOL   H10841014   5.117   0.038   4.802 -1.1462 -1.1397  1.0108
  114MOL   H10941015   5.232   0.049   4.928 -4.7393  2.6642  0.9971
  114MOL   C11041016   4.749   7.395   4.954 -0.6912  0.4226 -0.3186
  114MOL   C11141017   4.617   7.328   5.006  0.3334 -0.7597 -0.1749
  114MOL   C11241018   4.500   7.423   4.987  0.3295 -0.2583  0.1408
  114MOL   C11341019   4.439   7.418   4.844 -0.5808 -0.1855 -0.1991
  114MOL   C11441020   4.316   7.503   4.825  0.3697 -0.3615  0.5615
  114MOL   C11541021   4.336   7.661   4.823 -0.4935 -0.0078  0.0894
  114MOL   H11641022   4.757   7.481   5.021 -0.4459 -0.8202  1.2731
  114MOL   H11741023   4.730   7.426   4.851  0.1490 -0.3568 -0.7177
  114MOL   H11841024   4.607   7.243   4.938 -0.6300 -1.2208  0.5361
  114MOL   H11941025   4.515   7.522   5.029 -1.6595  0.4588 -0.8162
  114MOL   H12041026   4.423   7.374   5.048  1.4048 -0.5042  1.3291
  114MOL   H12141027   4.410   7.313   4.845 -2.0382  0.2035  0.6649
  114MOL   H12241028   4.517   7.445   4.772 -1.3585 -1.8069 -1.6794
  114MOL   H12341029   4.238   7.476   4.896 -0.9152  0.1068 -0.6613
  114MOL   H12441030   4.272   7.475   4.729 -0.3854 -0.8034  1.0365
  114MOL   H12541031   4.385   7.689   4.730 -1.8853  0.4959 -0.4942
  114MOL   H12641032   4.245   7.718   4.843 -0.0350  0.5775  0.5632
  114MOL   H12741033   4.401   7.692   4.905 -1.6372 -1.1931  1.4754
  114MOL   C12841034   4.628   7.286   5.155  0.5196 -0.1122  0.3489
  114MOL   C12941035   4.558   7.146   5.191 -0.3690  0.3050 -0.3473
  114MOL   C13041036   4.523   7.139   5.346 -0.8465  0.1644 -0.2010
  114MOL   C13141037   4.408   7.230   5.380 -0.8692  0.2089  0.9023
  114MOL   C13241038   4.364   7.186   5.521 -0.2992 -0.0231  0.0423
  114MOL   C13341039   4.239   7.265   5.578  0.0951 -0.0302  0.2838
  114MOL   H13441040   4.583   7.361   5.221 -1.7013 -0.3310 -0.8561
  114MOL   H13541041   4.730   7.281   5.192  0.8784  1.1719 -0.4309
  114MOL   H13641042   4.461   7.143   5.140 -0.2934  0.8441 -0.5286
  114MOL   H13741043   4.508   7.035   5.374 -1.1727  0.0377 -0.8198
  114MOL   H13841044   4.615   7.163   5.399 -1.9800 -1.1536  2.4204
  114MOL   H13941045   4.323   7.207   5.316  0.1018 -0.9408  0.0089
  114MOL   H14041046   4.424   7.336   5.362 -0.0490  0.0466  0.6433
  114MOL   H14141047   4.355   7.077   5.525 -1.9932 -0.0334 -2.7997
  114MOL   H14241048   4.447   7.210   5.587 -1.5426  1.1497  1.1814
  114MOL   H14341049   4.220   7.250   5.685 -1.3722  1.8916  0.3127
  114MOL   H14441050   4.146   7.236   5.529  0.6509 -1.9543  0.3119
  114MOL   H14541051   4.247   7.372   5.563  0.4551 -0.1465 -0.3512
  114MOL   C14641052   4.658   7.033   5.142 -0.0538  0.6241  0.5950
  114MOL   C14741053   4.594   6.886   5.144 -0.3104 -0.4747  0.1272
  114MOL   C14841054   4.676   6.782   5.235 -0.6728 -0.0015 -0.3031
  114MOL   C14941055   4.697   6.816   5.387 -0.4748 -0.2085  0.2654
  114MOL   C15041056   4.778   6.707   5.454 -0.1473 -0.3134 -0.1964
  114MOL   C15141057   4.795   6.730   5.602 -0.1148 -0.1295  0.4722
  114MOL   H15241058   4.702   7.055   5.045  1.7529  1.1239  1.5061
  114MOL   H15341059   4.739   7.040   5.215  0.2835  0.7378  0.2146
  114MOL   H15441060   4.494   6.893   5.186  0.5034  1.3048  1.8777
  114MOL   H15541061   4.778   6.764   5.200 -0.1414 -0.5736  1.4590
  114MOL   H15641062   4.622   6.687   5.236  0.4807 -0.6809  1.6727
  114MOL   H15741063   4.748   6.913   5.391  0.3883 -0.5769 -1.3620
  114MOL   H15841064   4.605   6.812   5.444 -0.2149 -1.3820  0.6105
  114MOL   H15941065   4.873   6.692   5.403  2.1547  0.2868  3.7104
  114MOL   H16041066   4.723   6.613   5.445  0.3220 -0.6715  0.5997
  114MOL   H16141067   4.850   6.650   5.651 -0.8603 -0.3640  0.9415
  114MOL   H16241068   4.839   6.828   5.622 -1.1289  1.0012 -2.5117
  114MOL   H16341069   4.695   6.741   5.645 -1.1750 -0.2836 -1.8707
  114MOL   C16441070   4.593   6.825   5.006  0.6457  0.0096  0.2256
  114MOL   C16541071   4.489   6.892   4.914  0.5322 -0.0616  1.0151
  114MOL   C16641072   4.521   6.861   4.761 -0.0187 -0.1645 -0.0721
  114MOL   C16741073   4.642   6.938   4.699  0.6039  0.0259  0.0412
  114MOL   C16841074   4.606   7.015   4.568 -0.4240  0.1698  0.0751
  114MOL   C16941075   4.526   7.150   4.583  0.5125 -0.1752 -0.4507
  114MOL   H17041076   4.691   6.843   4.963  0.9775 -0.1011  0.9376
  114MOL   H17141077   4.570   6.719   5.009 -2.0208  0.5687  1.1034
  114MOL   H17241078   4.499   6.999   4.929  2.4484 -0.4388  2.6188
  114MOL   H17341079   4.432   6.877   4.700 -0.2158  2.5238  0.8542
  114MOL   H17441080   4.523   6.753   4.746 -0.5290 -0.1358 -0.3834
  114MOL   H17541081   4.721   6.870   4.667  2.4686  1.2063  2.0191
  114MOL   H17641082   4.686   6.995   4.780 -1.1623  2.7432 -0.8490
  114MOL   H17741083   4.552   6.949   4.499  0.3553  1.2103 -1.5670
  114MOL   H17841084   4.701   7.038   4.518 -0.3177  1.8343  1.0311
  114MOL   H17941085   4.504   7.187   4.483  0.1412 -0.1153 -0.3484
  114MOL   H18041086   4.581   7.226   4.638 -1.6490 -0.3019  1.9519
  114MOL   H18141087   4.437   7.143   4.645  1.2758 -0.1854  0.6637
  114MOL   C18241088   4.343   6.852   4.946  0.2556 -0.0286 -0.1055
  114MOL   C18341089   4.239   6.968   4.969 -0.2537 -0.1826  0.2324
  114MOL   C18441090   4.118   6.919   5.068 -0.2153 -0.9403 -0.4157
  114MOL   C18541091   4.044   7.042   5.124 -0.0287  0.6818 -0.2125
  114MOL   C18641092   3.946   6.994   5.241 -0.1981  0.5051  0.5569
  114MOL   C18741093   3.864   7.107   5.300  0.0731 -1.0595 -0.1414
  114MOL   H18841094   4.301   6.781   4.875 -1.1130  1.2115 -0.5650
  114MOL   H18941095   4.331   6.790   5.035  1.0126 -0.7900 -0.5307
  114MOL   H19041096   4.296   7.039   5.029 -1.2095  0.6977  0.1022
  114MOL   H19141097   4.039   6.863   5.018 -3.5754  2.9354  0.3121
  114MOL   H19241098   4.158   6.856   5.147 -1.5564 -2.0253 -0.5833
  114MOL   H19341099   3.995   7.105   5.051  1.0690  2.7364  0.7761
  114MOL   H19441100   4.125   7.107   5.157  0.1097 -0.1859  1.2184
  114MOL   H19541101   3.998   6.952   5.327  0.5544  2.4079  1.0524
  114MOL   H19641102   3.865   6.927   5.214  0.3314 -0.8117  2.1635
  114MOL   H19741103   3.918   7.198   5.326 -4.1115  1.4456  0.1536
  114MOL   H19841104   3.816   7.074   5.392  2.4883 -0.2145  1.4650
  114MOL   H19941105   3.785   7.138   5.231 -0.5754 -0.7035  0.7456
  114MOL   C20041106   4.203   7.034   4.837  0.1186  0.6938  0.2021
  114MOL   C20141107   4.100   6.957   4.742 -0.2021  0.5469  0.9069
  114MOL   C20241108   3.958   7.008   4.763 -0.7894  0.3135  0.0532
  114MOL   C20341109   3.927   7.151   4.706 -0.1041 -0.7124 -0.7259
  114MOL   C20441110   3.803   7.208   4.787 -0.4375 -0.3343  0.3768
  114MOL   C20541111   3.774   7.352   4.767  0.4462 -0.1806  0.4122
  114MOL   H20641112   4.301   7.037   4.790 -0.8546 -2.0912 -2.1995
  114MOL   H20741113   4.171   7.136   4.859 -3.0911  0.7599 -4.0787
  114MOL   H20841114   4.109   6.852   4.769  2.3151  0.7608  1.0713
  114MOL   H20941115   3.934   6.997   4.869  1.8712 -2.7620  0.4110
  114MOL   H21041116   3.890   6.928   4.732 -1.2933  0.2487  1.3191
  114MOL   H21141117   3.906   7.147   4.599  0.0638  0.6570 -0.8189
  114MOL   H21241118   4.000   7.230   4.724 -1.4256  0.4060 -0.1898
  114MOL   H21341119   3.815   7.189   4.893  1.5174  0.4869  0.3180
  114MOL   H21441120   3.708   7.164   4.757 -0.8017  1.8994 -1.9850
  114MOL   H21541121   3.862   7.415   4.781 -0.0312  0.3746  0.9536
  114MOL   H21641122   3.748   7.366   4.662  1.0598 -0.5090  0.2122
  114MOL   H21741123   3.697   7.392   4.833  1.3832  2.4838 -0.0201
  114MOL   C21841124   4.148   6.971   4.598  0.4813  0.8349  0.5498
  114MOL   C21941125   4.066   6.911   4.484 -0.1834 -0.6133  0.6921
  114MOL   C22041126   4.040   6.768   4.518  0.1920  0.8578  0.7551
  114MOL   C22141127   3.939   6.699   4.423  0.0816  0.1631  0.7496
  114MOL   C22241128   3.911   6.559   4.489 -0.7023  0.2753  0.0990
  114MOL   C22341129   3.820   6.475   4.399  0.9755 -0.1872 -0.0413
  114MOL   H22441130   4.166   7.077   4.584 -0.7082  0.8588 -0.9594
  114MOL   H22541131   4.247   6.926   4.586  0.8793  1.8721 -0.0595
  114MOL   H22641132   3.971   6.965   4.485  0.4753  0.5623  2.0435
  114MOL   H22741133   3.986   6.774   4.613 -1.8806 -1.2641 -0.2351
  114MOL   H22841134   4.132   6.710   4.526 -1.7633 -2.6491 -0.9701
  114MOL   H22941135   3.965   6.702   4.317 -1.6760 -1.0639  0.2634
  114MOL   H23041136   3.851   6.764   4.425 -1.1889 -1.4474 -1.0511
  114MOL   H23141137   4.004   6.503   4.485 -0.0934  1.3763 -2.3575
  114MOL   H23241138   3.879   6.580   4.591 -0.3472  0.4260  0.1793
  114MOL   H23341139   3.721   6.520   4.384  1.2636  0.3734 -0.3095
  114MOL   H23441140   3.808   6.375   4.438 -1.5193 -0.0683 -0.3865
  114MOL   H23541141   3.864   6.483   4.300 -0.4765  3.5117 -0.5109
  114MOL   C23641142   4.133   6.940   4.348 -0.2506 -0.3418  0.7801
  114MOL   C23741143   4.087   7.067   4.272 -0.0441  0.4283  0.7292
  114MOL   C23841144   4.146   7.198   4.327  0.1547  0.2577  0.9917
  114MOL   C23941145   4.161   7.312   4.222 -0.4190  0.1229 -0.0084
  114MOL   C24041146   4.247   7.434   4.279  0.0032 -0.2430 -0.0374
  114MOL   C24141147   4.281   7.536   4.180  0.6639 -0.2684  0.5741
  114MOL   H24241148   4.242   6.938   4.356  0.0211  2.9652 -0.9950
  114MOL   H24341149   4.126   6.860   4.274  0.4068 -0.1959  0.5509
  114MOL   H24441150   4.121   7.049   4.170  0.4841  0.8004  0.8399
  114MOL   H24541151   4.091   7.236   4.414 -0.3632 -0.6852  1.0783
  114MOL   H24641152   4.248   7.171   4.353  0.2118 -1.2026 -0.6727
  114MOL   H24741153   4.065   7.355   4.195 -1.5484 -0.8563  2.2997
  114MOL   H24841154   4.206   7.275   4.130  1.6935  0.8847  0.6878
  114MOL   H24941155   4.199   7.482   4.364 -1.2092 -0.4113 -0.6105
  114MOL   H25041156   4.341   7.390   4.312  0.3831  0.9346  0.4763
  114MOL   H25141157   4.348   7.496   4.104 -0.5358  1.1355 -1.2757
  114MOL   H25241158   4.188   7.553   4.124 -0.8168  2.7171  3.7668
  114MOL   H25341159   4.311   7.635   4.214 -2.6751  1.2323 -0.6124
  114MOL   C25441160   3.935   7.073   4.247  0.5667 -0.0654 -0.4080
  114MOL   C25541161   3.893   7.123   4.111  0.4064  0.5078  0.3973
  114MOL   C25641162   3.797   7.242   4.120 -0.2187  0.0450 -0.2459
  114MOL   C25741163   3.777   7.322   3.990  0.1590  0.8424 -0.1225
  114MOL   C25841164   3.659   7.427   3.989 -1.1361  0.6588 -0.3062
  114MOL   C25941165   3.668   7.524   4.113 -0.3416 -0.5479  0.5006
  114MOL   H26041166   3.881   7.137   4.316 -1.1386  1.1807 -2.8247
  114MOL   H26141167   3.904   6.973   4.276 -0.9921  0.7593  0.8279
  114MOL   H26241168   3.978   7.165   4.059  0.2181 -0.1307 -0.4431
  114MOL   H26341169   3.697   7.203   4.141 -0.7736 -0.1924 -3.0914
  114MOL   H26441170   3.825   7.301   4.207 -0.8969 -0.9511  0.6556
  114MOL   H26541171   3.868   7.382   3.976  0.8203  0.1082  0.9681
  114MOL   H26641172   3.756   7.257   3.905 -0.5129 -0.2100  0.8418
  114MOL   H26741173   3.564   7.374   3.984 -0.9027  0.1843  0.1807
  114MOL   H26841174   3.667   7.477   3.892 -1.0892 -0.9134 -1.1258
  114MOL   H26941175   3.586   7.595   4.116  0.7334  0.8880 -2.2634
  114MOL   H27041176   3.767   7.568   4.124 -0.9253  0.7553  0.5712
  114MOL   H27141177   3.653   7.467   4.205 -2.2033  1.7252  1.6309
  114MOL   C27241178   3.836   7.003   4.038  0.4303  0.6464  0.5693
  114MOL   C27341179   3.945   6.902   3.989  0.2829  0.1741  0.6359
  114MOL   C27441180   4.017   6.949   3.861  0.0436  0.6854 -1.3111
  114MOL   C27541181   3.934   6.987   3.740  0.2112  0.0329 -0.3241
  114MOL   C27641182   4.021   6.979   3.616  0.1836  0.1335  1.0899
  114MOL   C27741183   3.963   7.040   3.493  0.4871 -0.2358 -0.1349
  114MOL   H27841184   3.750   6.960   4.089 -0.9264  1.6551 -0.8346
  114MOL   H27941185   3.800   7.054   3.949  0.8293  0.0117  0.0319
  114MOL   H28041186   4.026   6.891   4.061  1.9452  0.2727 -1.1821
  114MOL   H28141187   4.086   6.871   3.829 -0.1868 -0.6139  1.1784
  114MOL   H28241188   4.083   7.035   3.877  2.6659 -2.0093  3.8828
  114MOL   H28341189   3.891   7.087   3.741 -1.7737 -0.7958  0.4592
  114MOL   H28441190   3.849   6.918   3.742 -0.9077  1.3967  0.9818
  114MOL   H28541191   4.113   7.037   3.631 -0.0620  1.1487 -1.0354
  114MOL   H28641192   4.054   6.876   3.603 -1.5888 -0.4021  0.7212
  114MOL   H28741193   3.925   7.142   3.500  2.2825  0.5564 -1.5954
  114MOL   H28841194   4.033   7.053   3.411 -1.2344  0.8421 -1.4600
  114MOL   H28941195   3.883   6.976   3.456  0.1980  1.4159 -2.4689
  114MOL   C29041196   3.873   6.763   3.977 -0.8771  0.1066  0.0785
  114MOL   C29141197   3.958   6.637   3.953  0.4554  0.4262  0.3710
  114MOL   C29241198   4.084   6.612   4.043 -0.3840  0.3036  1.1999
  114MOL   C29341199   4.191   6.513   3.986  0.2416 -0.2912  0.5935
  114MOL   C29441200   4.294   6.482   4.093  0.2209 -0.9376  0.1853
  114MOL   C29541201   4.399   6.372   4.048 -0.1951  0.1695 -0.3503
  114MOL   H29641202   3.799   6.779   3.899  1.6644  0.7438 -2.2690
  114MOL   H29741203   3.824   6.747   4.073 -0.6155  0.1548  0.2226
  114MOL   H29841204   4.004   6.649   3.855  0.7344 -1.5502  0.2564
  114MOL   H29941205   4.051   6.589   4.144 -2.0535 -2.1962  0.1203
  114MOL   H30041206   4.135   6.709   4.045 -1.2620  0.8495 -0.8416
  114MOL   H30141207   4.142   6.422   3.950 -0.2518 -0.0521  0.6560
  114MOL   H30241208   4.235   6.551   3.894 -0.2705  0.7179  0.7649
  114MOL   H30341209   4.241   6.436   4.177  0.1082  1.1427  1.2719
  114MOL   H30441210   4.338   6.568   4.143 -1.6107 -0.3817  0.8715
  114MOL   H30541211   4.501   6.387   4.085  0.1663  0.4781 -1.4302
  114MOL   H30641212   4.415   6.364   3.940  0.0290  0.7502 -0.3635
  114MOL   H30741213   4.372   6.274   4.086 -1.6558 -0.2627 -2.4385
  114MOL   C30841214   3.881   6.504   3.956 -0.2652 -0.2751  0.6945
  114MOL   C30941215   3.820   6.454   3.825  0.1465 -0.2383 -0.5159
  114MOL   C31041216   3.690   6.366   3.835  0.3159 -0.1205  0.3529
  114MOL   C31141217   3.573   6.450   3.880  0.0862 -0.2838  0.6170
  114MOL   C31241218   3.442   6.372   3.882 -0.4712  0.5141  0.4726
  114MOL   C31341219   3.319   6.458   3.907  0.1890  0.5462  0.3346
  114MOL   H31441220   3.931   6.430   4.019 -0.7294 -0.8200  0.4237
  114MOL   H31541221   3.801   6.524   4.028  0.4839  1.0161  1.1983
  114MOL   H31641222   3.780   6.540   3.770 -0.5165 -0.1582  0.0903
  114MOL   H31741223   3.717   6.284   3.902  1.2240 -0.0010  0.1414
  114MOL   H31841224   3.679   6.330   3.733  1.1238  2.1722 -0.5763
  114MOL   H31941225   3.557   6.546   3.829 -0.4988 -0.3461  0.6743
  114MOL   H32041226   3.601   6.460   3.985 -2.6761  0.7787  1.3227
  114MOL   H32141227   3.427   6.323   3.786  0.5172 -3.5106  2.2633
  114MOL   H32241228   3.447   6.291   3.955 -0.1146 -0.3797 -0.5395
  114MOL   H32341229   3.291   6.519   3.821 -2.4097  0.1220  0.8435
  114MOL   H32441230   3.321   6.514   4.000  1.2214  1.4907 -0.2491
  114MOL   H32541231   3.239   6.384   3.910  0.5107  0.2211  4.3323
  114MOL   C32641232   3.931   6.389   3.733  0.8167 -0.0568 -0.6805
  114MOL   C32741233   4.013   6.474   3.631  0.7445  0.2329  0.6401
  114MOL   C32841234   4.113   6.379   3.556  0.4287  0.0631 -0.3632
  114MOL   C32941235   4.260   6.423   3.559  0.1656  0.3497 -0.3391
  114MOL   C33041236   4.365   6.311   3.523 -0.2724 -0.0209  0.6533
  114MOL   C33141237   4.384   6.277   3.369  0.5582 -0.2277 -0.4182
  114MOL   H33241238   3.886   6.306   3.677 -1.6033  0.1041  0.9621
  114MOL   H33341239   3.992   6.324   3.796 -0.6832 -0.6357  0.2033
  114MOL   H33441240   4.064   6.548   3.693  1.7307  0.3484 -0.2927
  114MOL   H33541241   4.118   6.277   3.594  1.7073  0.2991  0.1454
  114MOL   H33641242   4.081   6.368   3.453  0.3885 -0.7917 -0.2564
  114MOL   H33741243   4.289   6.474   3.651  2.2558 -1.6488  0.1665
  114MOL   H33841244   4.275   6.500   3.483 -0.7981  0.0745 -0.8129
  114MOL   H33941245   4.463   6.342   3.561 -0.7859  0.3138  1.7199
  114MOL   H34041246   4.336   6.219   3.572  1.8932  0.5725  3.1587
  114MOL   H34141247   4.411   6.364   3.310  0.0677  0.9358  1.0243
  114MOL   H34241248   4.299   6.237   3.314  0.3134  0.3975 -0.5035
  114MOL   H34341249   4.455   6.195   3.359 -1.5748 -2.5650  2.3198
  114MOL   C34441250   3.915   6.543   3.537 -0.7386  0.7174 -0.0667
  114MOL   C34541251   3.988   6.623   3.430  0.5054 -0.0007 -0.1137
  114MOL   C34641252   3.886   6.714   3.353 -0.4887 -0.1096  1.2622
  114MOL   C34741253   3.963   6.796   3.240 -0.1115  0.6779  0.2863
  114MOL   C34841254   3.868   6.858   3.133 -0.5969  0.4584 -0.1854
  114MOL   C34941255   3.931   6.967   3.050  0.3297 -0.2596  0.2077
  114MOL   H35041256   3.850   6.478   3.480  1.9447 -1.3763 -0.8682
  114MOL   H35141257   3.845   6.611   3.586 -2.8656 -1.2453 -0.3384
  114MOL   H35241258   4.041   6.561   3.358 -1.4135 -0.2724 -1.3174
  114MOL   H35341259   3.834   6.639   3.293  0.5380  0.3293 -0.1976
  114MOL   H35441260   3.810   6.766   3.411  0.4889 -0.2888  2.7327
  114MOL   H35541261   4.033   6.870   3.281 -1.7838  1.9200  0.9465
  114MOL   H35641262   4.040   6.738   3.189  1.3285  1.5948  1.3382
  114MOL   H35741263   3.802   6.789   3.081 -2.0830  1.4486  0.3372
  114MOL   H35841264   3.792   6.916   3.187 -0.6682 -1.0161  1.3338
  114MOL   H35941265   3.846   7.010   2.998  0.7226  0.0093 -0.2205
  114MOL   H36041266   3.984   7.047   3.101 -0.6665  1.3924 -1.3050
  114MOL   H36141267   4.004   6.917   2.986  0.3944 -0.2458  0.2716
  114MOL   H36241268   4.062   6.682   3.486  0.3921 -0.2630  0.3154
  115MOL     C141269   5.304   7.711   7.048  0.4503  0.0726 -0.3829
  115MOL     C241270   5.183   7.669   7.131 -0.3250  0.0350  0.1805
  115MOL     C341271   5.121   7.532   7.093 -0.3018  0.1316  0.1278
  115MOL     C441272   5.222   7.422   7.051 -0.0867  0.3950 -0.6470
  115MOL     C541273   5.154   7.296   6.997  0.5322 -0.0031 -0.2649
  115MOL     C641274   5.245   7.180   6.975  0.6330  0.5013 -0.5233
  115MOL     H741275   5.275   0.001   6.944  0.5487 -1.7088 -0.7261
  115MOL     H841276   5.346   0.080   7.077 -0.2818 -0.1011  1.3183
  115MOL     H941277   5.214   7.663   7.236  0.4292  1.8111  0.0606
  115MOL    H1041278   5.052   7.544   7.010 -0.3327 -0.5958  0.0436
  115MOL    H1141279   5.068   7.490   7.179 -0.6286 -0.0009 -0.1408
  115MOL    H1241280   5.291   7.405   7.134 -1.1763 -0.8924  0.0292
  115MOL    H1341281   5.284   7.461   6.971  1.6369  1.4573  1.1503
  115MOL    H1441282   5.067   7.266   7.057  0.6974  1.4412  0.7229
  115MOL    H1541283   5.110   7.330   6.903  1.4684  1.3076 -0.2420
  115MOL    H1641284   5.274   7.134   7.069 -0.3324  2.6734  0.8617
  115MOL    H1741285   5.333   7.204   6.915 -0.2322  1.6865 -1.3426
  115MOL    H1841286   5.184   7.106   6.923  0.4025 -0.4684  1.0863
  115MOL    H1941287   5.390   7.643   7.044 -0.4521 -1.1136  0.0300
  115MOL    C2041288   5.060   0.042   7.113 -0.4071  1.3308  0.7412
  115MOL    C2141289   5.064   0.185   7.159 -0.2418 -0.4387 -1.0903
  115MOL    C2241290   4.941   0.260   7.109  0.0597  0.6165  0.0354
  115MOL    C2341291   4.803   0.221   7.171 -0.2765 -0.3928  0.1526
  115MOL    C2441292   4.702   0.326   7.137 -0.2468 -0.4526  0.1127
  115MOL    C2541293   4.724   0.449   7.225 -0.5555  0.6510  0.3275
  115MOL    H2641294   4.979   7.713   7.159 -0.0641  1.1991  1.1795
  115MOL    H2741295   5.037   0.048   7.006 -2.0281  0.4773  1.0308
  115MOL    H2841296   5.154   0.232   7.120  1.3415 -2.1139  0.4344
  115MOL    H2941297   4.925   0.253   7.001 -0.2944  0.8974  0.0681
  115MOL    H3041298   4.959   0.367   7.121 -2.4020  1.0439  0.2415
  115MOL    H3141299   4.810   0.211   7.279  0.6071  0.1643  0.1449
  115MOL    H3241300   4.762   0.129   7.129  1.4446 -0.5956 -1.1631
  115MOL    H3341301   4.709   0.351   7.031 -0.8540 -0.5723  0.0389
  115MOL    H3441302   4.599   0.292   7.153 -1.4105  3.3917  1.3379
  115MOL    H3541303   4.762   0.422   7.324 -1.8685 -0.0273  0.6592
  115MOL    H3641304   4.804   0.506   7.177  0.0423 -1.7688 -1.6463
  115MOL    H3741305   4.635   0.508   7.246 -2.6485 -1.4366 -2.4112
  115MOL    C3841306   5.085   0.188   7.317  0.0197  0.4069  0.3736
  115MOL    C3941307   5.106   0.335   7.373 -0.5044 -0.4245 -0.1831
  115MOL    C4041308   5.086   0.330   7.531  0.4881  0.0535 -0.2109
  115MOL    C4141309   4.947   0.288   7.581  0.4366 -0.5798 -0.7986
  115MOL    C4241310   4.920   0.324   0.003  0.4615  0.6809 -0.2101
  115MOL    C4341311   4.804   0.253   0.062 -0.8622 -0.0390 -0.0673
  115MOL    H4441312   5.166   0.120   7.345  1.2581  0.6553 -2.3581
  115MOL    H4541313   4.995   0.138   7.352  0.6583 -0.5992  0.6178
  115MOL    H4641314   5.033   0.399   7.322  1.0704  2.0142  0.5579
  115MOL    H4741315   5.163   0.271   7.580 -1.2142  0.5543  3.1839
  115MOL    H4841316   5.104   0.428   7.575  0.9438  0.5987 -1.5639
  115MOL    H4941317   4.868   0.326   7.516 -0.4330 -2.2701 -0.7598
  115MOL    H5041318   4.934   0.181   7.565  2.8637 -0.8397 -1.2931
  115MOL    H5141319   5.010   0.319   0.064  0.7318 -0.8439 -0.7211
  115MOL    H5241320   4.883   0.426   0.008 -0.3936  0.2665  3.2001
  115MOL    H5341321   4.782   0.305   0.155 -3.7700  2.8627 -2.2559
  115MOL    H5441322   4.827   0.148   0.081 -1.8438 -0.2289  0.0886
  115MOL    H5541323   4.718   0.263   7.723  0.7887  2.5441 -1.9020
  115MOL    C5641324   5.253   0.390   7.342  0.5401  0.5085 -0.6076
  115MOL    C5741325   5.276   0.541   7.375  0.1570 -0.6030  0.0264
  115MOL    C5841326   5.173   0.632   7.300 -0.5310  0.7838 -0.3915
  115MOL    C5941327   5.056   0.671   7.392 -0.5901 -0.5963  0.3342
  115MOL    C6041328   4.974   0.780   7.334  0.0176 -0.8498  0.0269
  115MOL    C6141329   4.854   0.825   7.431  0.1349 -0.4673 -0.1088
  115MOL    H6241330   5.306   0.323   7.410  0.4294  1.3264  0.2910
  115MOL    H6341331   5.282   0.359   7.241  0.3134 -0.3064 -0.4302
  115MOL    H6441332   5.260   0.550   7.483 -0.7752 -1.8204  0.0026
  115MOL    H6541333   5.232   0.721   7.277  3.2345 -1.5278 -0.1028
  115MOL    H6641334   5.143   0.586   7.206 -1.6402 -1.6122  1.1053
  115MOL    H6741335   5.099   0.717   7.481  1.5595 -0.1472 -0.9195
  115MOL    H6841336   5.005   0.581   7.429 -0.7690 -1.5499 -2.1542
  115MOL    H6941337   5.043   0.865   7.332  1.4455 -1.9890  0.1298
  115MOL    H7041338   4.935   0.756   7.236 -1.4325  1.6550 -0.0387
  115MOL    H7141339   4.790   0.748   7.474  0.9023 -0.7294  0.5770
  115MOL    H7241340   4.901   0.879   7.514 -0.5989  1.0951 -0.6773
  115MOL    H7341341   4.787   0.898   7.385  1.0306  0.5265  0.1219
  115MOL    C7441342   5.421   0.588   7.354 -0.4218 -0.3380 -0.2694
  115MOL    C7541343   5.525   0.509   7.435 -0.2033  0.1661  0.2088
  115MOL    C7641344   5.657   0.498   7.360  0.3238  0.1374  0.5175
  115MOL    C7741345   5.664   0.403   7.239  0.6098  0.0319 -0.0776
  115MOL    C7841346   5.687   0.261   7.288 -1.1868 -0.2379 -0.7210
  115MOL    C7941347   5.709   0.163   7.175  0.6194 -0.0281  0.5012
  115MOL    H8041348   5.455   0.580   7.250  1.9695 -0.5524  0.4938
  115MOL    H8141349   5.438   0.691   7.383  1.8122 -1.3245  2.1172
  115MOL    H8241350   5.498   0.404   7.447  0.6124 -0.1385 -0.5652
  115MOL    H8341351   5.686   0.592   7.313  2.7505 -1.8587 -2.2250
  115MOL    H8441352   5.744   0.481   7.423  0.3851 -0.5425  0.2560
  115MOL    H8541353   5.573   0.407   7.178 -0.3088  0.1145  1.2883
  115MOL    H8641354   5.746   0.431   7.172 -0.3803 -0.0392 -1.3549
  115MOL    H8741355   5.598   0.229   7.344  1.2780 -0.6172  3.1824
  115MOL    H8841356   5.775   0.256   7.352 -1.3461  1.2549 -0.3694
  115MOL    H8941357   5.795   0.185   7.112  0.2752 -0.3745 -0.0883
  115MOL    H9041358   5.730   0.065   7.217  0.7864 -1.3196 -2.5268
  115MOL    H9141359   5.620   0.150   7.115  1.4441 -0.6891 -0.6008
  115MOL    C9241360   5.537   0.583   7.573  0.1948  0.1654 -0.5392
  115MOL    C9341361   5.581   0.498   7.688 -0.0489  0.1630  0.5161
  115MOL    C9441362   5.637   0.575   0.081 -0.0160 -0.5796 -0.8754
  115MOL    C9541363   5.794   0.563   0.079  0.5463 -0.3291  0.1353
  115MOL    C9641364   5.870   0.635   0.189  0.6144 -0.1816  0.9727
  115MOL    C9741365   5.855   0.788   0.194  0.3286 -0.2229  0.0312
  115MOL    H9841366   5.612   0.661   7.574 -1.0574  1.4288 -2.9338
  115MOL    H9941367   5.447   0.620   7.623  1.4983  2.4168  0.2229
  115MOL   H10041368   5.664   0.435   7.657  0.6137  1.0479  0.4667
  115MOL   H10141369   5.604   0.541   0.179  1.2226  0.3073 -0.1397
  115MOL   H10241370   5.614   0.681   0.071 -2.8310 -1.2501 -1.8218
  115MOL   H10341371   5.820   0.457   0.085  0.2521 -0.4681 -0.8772
  115MOL   H10441372   5.839   0.597   7.712 -0.1176  0.3533  0.0608
  115MOL   H10541373   5.811   0.613   0.278  0.3231  1.7148  1.2624
  115MOL   H10641374   5.970   0.596   0.204  2.0361  2.3990 -1.3515
  115MOL   H10741375   5.913   0.837   0.116 -1.2376  0.4974 -0.7011
  115MOL   H10841376   5.757   0.835   0.207 -0.1137 -0.6644 -1.7035
  115MOL   H10941377   5.915   0.815   0.281  0.6454 -2.1625  0.4383
  115MOL   C11041378   5.468   0.404   0.004  0.1126  0.1665  0.1584
  115MOL   C11141379   5.520   0.275   0.075  0.1458  0.2742 -0.0146
  115MOL   C11241380   5.530   0.158   7.704 -0.6478 -0.0238  0.1744
  115MOL   C11341381   5.394   0.109   7.648  0.2229  0.5918 -0.2571
  115MOL   C11441382   5.389   7.685   7.631 -1.0263  0.4082  0.1475
  115MOL   C11541383   5.263   7.645   7.547  0.9799  0.5941  0.5052
  115MOL   H11641384   5.394   0.449   0.070  1.1887 -0.1671  1.6068
  115MOL   H11741385   5.415   0.365   7.644  3.4683  0.1186 -1.9784
  115MOL   H11841386   5.624   0.298   0.096 -0.7182  2.8708  1.7369
  115MOL   H11941387   5.577   0.082   0.039 -0.1780  1.5540  1.8102
  115MOL   H12041388   5.598   0.175   7.621 -1.0135  1.0839  0.0878
  115MOL   H12141389   5.373   0.155   7.552 -0.4226  1.1247  0.1398
  115MOL   H12241390   5.311   0.138   7.713 -0.9334 -3.4112  0.1599
  115MOL   H12341391   5.374   7.644   0.003 -0.0751  0.6767  0.4093
  115MOL   H12441392   5.479   7.641   7.587 -1.4236 -0.6661  0.3950
  115MOL   H12541393   5.262   7.696   7.451 -1.8514 -0.2387  0.0583
  115MOL   H12641394   5.259   7.537   7.534 -0.3549  0.6482  0.3997
  115MOL   H12741395   5.172   7.666   7.604  0.5858  0.7878 -0.1930
  115MOL   C12841396   5.453   0.235   0.209  0.4133 -0.3003 -0.6162
  115MOL   C12941397   5.481   0.312   0.332 -0.2253 -0.0997  0.0134
  115MOL   C13041398   5.634   0.306   0.381 -0.1553 -0.1159  0.0229
  115MOL   C13141399   5.681   0.163   0.409 -0.3017 -1.0283 -0.3233
  115MOL   C13241400   5.830   0.165   0.435  0.6165  0.5340 -0.4213
  115MOL   C13341401   5.877   0.030   0.477 -0.3915  0.1632  0.4725
  115MOL   H13441402   5.477   0.130   0.225  0.4741 -0.3234 -0.8478
  115MOL   H13541403   5.348   0.249   0.185 -0.5440 -0.6259  3.1736
  115MOL   H13641404   5.466   0.419   0.319  0.1402  0.2038  2.0004
  115MOL   H13741405   5.693   0.352   0.301  2.0677 -1.3409  0.9207
  115MOL   H13841406   5.669   0.363   0.467 -0.1787  1.1034 -0.7644
  115MOL   H13941407   5.652   0.094   0.330  0.0439 -1.8617  0.2731
  115MOL   H14041408   5.634   0.121   0.498  0.4185  0.3885  0.7412
  115MOL   H14141409   5.873   0.204   0.343 -1.4499 -0.2701 -1.7867
  115MOL   H14241410   5.855   0.236   0.514 -3.1005  0.4175  0.9604
  115MOL   H14341411   5.816   7.720   0.559  2.9556 -1.4812  2.2902
  115MOL   H14441412   5.982   0.033   0.506  0.3006 -0.2043 -1.8641
  115MOL   H14541413   5.864   7.695   0.388  0.3486  0.7123 -0.0301
  115MOL   C14641414   5.375   0.268   0.441 -0.3560 -0.0382 -0.0060
  115MOL   C14741415   5.370   0.354   0.570 -0.6575 -0.2072 -0.1778
  115MOL   C14841416   5.333   0.268   0.691  0.0039  0.2647 -0.4786
  115MOL   C14941417   5.440   0.175   0.743  0.1297  0.4522 -0.5056
  115MOL   C15041418   5.392   0.081   0.852 -0.0836  0.1966 -0.3416
  115MOL   C15141419   5.501   7.718   0.900  0.2830  0.6820  0.7103
  115MOL   H15241420   5.281   0.276   0.386  0.0647  0.6195 -0.6479
  115MOL   H15341421   5.381   0.162   0.463  1.7432  0.1637  0.5088
  115MOL   H15441422   5.469   0.396   0.585 -0.5086 -0.6849  0.1825
  115MOL   H15541423   5.239   0.212   0.693 -0.5068  1.1475  0.6301
  115MOL   H15641424   5.326   0.342   0.770  2.4910  0.6241 -0.5547
  115MOL   H15741425   5.478   0.114   0.661  0.1953 -0.1031 -0.0733
  115MOL   H15841426   5.528   0.222   0.786  2.2508 -1.9735 -2.0361
  115MOL   H15941427   5.316   0.009   0.822 -0.0965  0.8782 -1.9831
  115MOL   H16041428   5.356   0.126   0.946  0.1596  1.6331 -0.9158
  115MOL   H16141429   5.536   7.654   0.820 -0.5358  0.6354  0.3786
  115MOL   H16241430   5.588   0.049   0.929  0.8245 -0.5473  1.5810
  115MOL   H16341431   5.475   7.662   0.990  1.3353 -1.6232 -0.3884
  115MOL   C16441432   5.282   0.483   0.545 -0.4883 -0.1715  0.1903
  115MOL   C16541433   5.300   0.604   0.648  0.3214 -0.4844  0.6769
  115MOL   C16641434   5.428   0.698   0.614  0.1061  0.3931 -0.0454
  115MOL   C16741435   5.418   0.794   0.494  0.0979 -0.0999 -0.4659
  115MOL   C16841436   5.561   0.849   0.456  1.1016 -0.1660  0.3839
  115MOL   C16941437   5.561   0.972   0.374 -0.9154  0.1214  1.0047
  115MOL   H17041438   5.291   0.517   0.442 -2.7939  1.1729  0.4062
  115MOL   H17141439   5.176   0.461   0.537 -1.1123  2.7395  0.1092
  115MOL   H17241440   5.326   0.561   0.744  1.6328 -0.7233  0.2275
  115MOL   H17341441   5.508   0.628   0.590 -1.7635 -2.3894  1.5316
  115MOL   H17441442   5.470   0.741   0.705 -2.7289  0.9698  1.0510
  115MOL   H17541443   5.354   0.873   0.533 -0.8848 -0.2966 -1.6516
  115MOL   H17641444   5.368   0.748   0.409 -0.5517 -1.7433  0.7751
  115MOL   H17741445   5.611   0.770   0.399  1.0543  0.0751  0.0111
  115MOL   H17841446   5.623   0.874   0.542  0.4487 -0.2468  0.8786
  115MOL   H17941447   5.508   0.964   0.279 -0.4055 -0.8428  0.7933
  115MOL   H18041448   5.664   0.998   0.350 -1.2291  0.0272 -0.4779
  115MOL   H18141449   5.523   1.058   0.428  0.7345  1.6030 -0.1232
  115MOL   C18241450   5.175   0.687   0.662 -0.7195  0.3249  0.4383
  115MOL   C18341451   5.044   0.616   0.720 -0.3821  0.6030  0.3851
  115MOL   C18441452   4.916   0.701   0.700 -0.1718 -0.3045  0.0509
  115MOL   C18541453   4.922   0.846   0.754  0.3142 -0.3902 -0.6677
  115MOL   C18641454   4.793   0.919   0.723  0.0322 -0.1214  0.8381
  115MOL   C18741455   4.778   1.044   0.808  0.0151 -0.0852  0.3230
  115MOL   H18841456   5.192   0.787   0.704 -0.3050  0.8350 -0.9302
  115MOL   H18941457   5.152   0.731   0.565  2.8038  1.1667 -0.0735
  115MOL   H19041458   5.025   0.525   0.663 -0.3303 -0.8926  2.7072
  115MOL   H19141459   4.888   0.720   0.596  0.4090  3.9169  0.5882
  115MOL   H19241460   4.830   0.641   0.729  0.7452 -1.8550 -0.3551
  115MOL   H19341461   5.000   0.913   0.718 -0.3326  0.4522 -0.5247
  115MOL   H19441462   4.940   0.853   0.861 -3.3881 -0.4412  0.0272
  115MOL   H19541463   4.707   0.857   0.745 -0.2466  0.3975  1.2240
  115MOL   H19641464   4.793   0.952   0.619  0.3105  0.0484  0.8898
  115MOL   H19741465   4.845   1.124   0.776  2.6644 -1.1607  3.0218
  115MOL   H19841466   4.796   1.036   0.915  1.0220  2.4607  0.3742
  115MOL   H19941467   4.679   1.083   0.784  0.3621  0.7070  0.1456
  115MOL   C20041468   5.061   0.567   0.867 -0.1882 -0.6447  0.2235
  115MOL   C20141469   5.028   0.424   0.888  0.4105  0.9946  0.6595
  115MOL   C20241470   5.076   0.365   1.026  0.3801  0.3230 -0.3638
  115MOL   C20341471   5.017   0.440   1.143  0.9555 -0.7851 -0.3653
  115MOL   C20441472   5.057   0.387   1.277  0.2354  0.1667 -0.2675
  115MOL   C20541473   4.994   0.249   1.288  0.1832 -0.1407 -0.5602
  115MOL   H20641474   4.998   0.626   0.935  1.3404 -1.5663  2.5028
  115MOL   H20741475   5.160   0.585   0.908 -0.2047  1.6672 -0.6827
  115MOL   H20841476   5.088   0.368   0.817  0.2655  0.8882  0.6191
  115MOL   H20941477   5.185   0.363   1.028  0.4514  2.9086  0.5479
  115MOL   H21041478   5.051   0.259   1.029 -0.2041  0.4916  1.2544
  115MOL   H21141479   4.909   0.451   1.135  1.0749  0.7672  0.0844
  115MOL   H21241480   5.049   0.543   1.136 -0.0735 -0.4389 -0.0280
  115MOL   H21341481   5.031   0.457   1.356 -0.9147 -0.9591  0.3767
  115MOL   H21441482   5.165   0.374   1.289  0.1609 -1.0226 -0.8315
  115MOL   H21541483   5.017   0.193   1.379  1.9854  0.8039 -0.4096
  115MOL   H21641484   4.886   0.249   1.275  0.2016 -3.4774 -0.9848
  115MOL   H21741485   5.030   0.181   1.212  3.4404  1.3199 -0.3946
  115MOL   C21841486   4.881   0.386   0.854 -0.1326 -0.1097  0.3241
  115MOL   C21941487   4.830   0.238   0.828 -0.0479 -0.0580 -0.2268
  115MOL   C22041488   4.917   0.164   0.730 -0.0939  0.1663  0.8482
  115MOL   C22141489   4.892   0.203   0.579  1.1204  0.0788  0.1957
  115MOL   C22241490   5.015   0.175   0.486 -0.2979 -0.0614  0.6022
  115MOL   C22341491   4.987   0.222   0.343  0.2567  0.5919 -0.7280
  115MOL   H22441492   4.820   0.429   0.933  2.5861  0.3670  2.2470
  115MOL   H22541493   4.855   0.427   0.757  2.5945  1.8126  0.3376
  115MOL   H22641494   4.839   0.187   0.924  0.2426 -0.3689 -0.4221
  115MOL   H22741495   4.894   0.059   0.747  2.2019 -0.2111  1.7648
  115MOL   H22841496   5.020   0.178   0.761 -0.3348  3.3206  0.3674
  115MOL   H22941497   4.863   0.307   0.562  1.1512  0.2076  0.9196
  115MOL   H23041498   4.821   0.131   0.539 -0.9422  1.0019  2.0851
  115MOL   H23141499   5.100   0.231   0.524  1.1139 -0.7799 -1.3725
  115MOL   H23241500   5.039   0.068   0.487 -1.5374 -0.3480  0.6228
  115MOL   H23341501   5.079   0.223   0.285 -0.5768 -1.9091 -2.1913
  115MOL   H23441502   4.948   0.323   0.355 -0.8448  0.1331 -0.3955
  115MOL   H23541503   4.907   0.159   0.304  0.8530  0.0364 -1.0646
  115MOL   C23641504   4.681   0.233   0.784 -0.7516  0.0404 -0.0437
  115MOL   C23741505   4.564   0.289   0.879 -0.2426  0.5639  0.5860
  115MOL   C23841506   4.568   0.227   1.018  0.0059  0.6925 -0.0854
  115MOL   C23941507   4.531   0.080   1.011 -0.4988  0.0972 -0.8318
  115MOL   C24041508   4.552   0.001   1.137  0.6988  0.4875  0.1073
  115MOL   C24141509   4.525   7.582   1.101  0.4657 -0.4016 -0.1730
  115MOL   H24241510   4.667   0.296   0.696 -0.8834  0.6717  0.4312
  115MOL   H24341511   4.653   0.132   0.754  0.9088  0.2575 -2.5412
  115MOL   H24441512   4.605   0.390   0.884  2.2932 -0.2689 -1.9098
  115MOL   H24541513   4.667   0.242   1.062  0.4291 -0.9558 -0.4475
  115MOL   H24641514   4.493   0.275   1.081 -0.2077  0.1482  0.0765
  115MOL   H24741515   4.599   0.049   0.932  1.0739  0.5060  0.3368
  115MOL   H24841516   4.430   0.059   0.975 -0.0982 -0.4733 -1.6362
  115MOL   H24941517   4.648   0.027   1.180  1.2397 -0.3872 -0.5635
  115MOL   H25041518   4.483   0.042   1.212  0.9765 -0.1036  0.6851
  115MOL   H25141519   4.420   7.583   1.075  0.4696  0.3315 -0.1879
  115MOL   H25241520   4.599   7.556   1.026 -1.0879 -0.1752 -1.8131
  115MOL   H25341521   4.546   7.517   1.187 -1.6586 -0.3910  0.3768
  115MOL   C25441522   4.424   0.286   0.806 -0.3238 -0.6162  0.4295
  115MOL   C25541523   4.300   0.349   0.882 -0.7778  0.0174 -0.1973
  115MOL   C25641524   4.172   0.315   0.800  0.2692  0.0102 -0.4705
  115MOL   C25741525   4.118   0.175   0.828 -0.0526 -0.3019 -0.2008
  115MOL   C25841526   3.993   0.138   0.756  0.0249  0.1784 -0.0307
  115MOL   C25941527   3.906   0.030   0.813 -0.6399 -0.2064  0.1704
  115MOL   H26041528   4.403   0.188   0.765  0.4265 -1.1701  1.3567
  115MOL   H26141529   4.445   0.342   0.715 -0.7354 -0.8264  0.2037
  115MOL   H26241530   4.288   0.291   0.974 -2.5197 -1.1779 -1.1484
  115MOL   H26341531   4.091   0.383   0.825 -1.2175 -1.1947 -1.8975
  115MOL   H26441532   4.190   0.332   0.694  1.3217 -2.5992 -0.7439
  115MOL   H26541533   4.194   0.099   0.806 -0.0414 -0.3014 -0.1648
  115MOL   H26641534   4.090   0.169   0.933  2.0707 -1.1026  0.3371
  115MOL   H26741535   4.007   0.128   0.648  0.9874  1.1558 -0.0061
  115MOL   H26841536   3.934   0.230   0.761  2.2717  1.7571 -1.7823
  115MOL   H26941537   3.894   0.051   0.920 -2.0853  0.9651 -0.2051
  115MOL   H27041538   3.948   7.657   0.806 -1.6498 -0.6360  0.1162
  115MOL   H27141539   3.804   0.048   0.778 -1.0250  1.2093  1.9757
  115MOL   C27241540   4.319   0.503   0.909  0.4063  0.0358 -0.0181
  115MOL   C27341541   4.243   0.562   1.029  0.2255 -0.4198  0.2453
  115MOL   C27441542   4.261   0.710   1.035  0.0989  0.3971  0.5245
  115MOL   C27541543   4.210   0.798   0.923  0.2767  0.0541 -0.4509
  115MOL   C27641544   4.228   0.949   0.948 -0.8193  0.0206 -0.4144
  115MOL   C27741545   4.375   0.987   0.976 -0.0607 -0.2104  0.5736
  115MOL   H27841546   4.425   0.522   0.926 -0.4237  4.3942  0.8158
  115MOL   H27941547   4.288   0.548   0.815  2.7442 -0.1970 -0.9171
  115MOL   H28041548   4.137   0.545   1.010  0.4086  0.8115 -2.0345
  115MOL   H28141549   4.366   0.730   1.057  0.9111 -0.1328 -2.7050
  115MOL   H28241550   4.213   0.749   1.125  3.0908  1.5988  1.6954
  115MOL   H28341551   4.109   0.774   0.888 -0.2108  0.3017  0.7753
  115MOL   H28441552   4.275   0.771   0.840  2.6519  1.4244  0.9065
  115MOL   H28541553   4.210   1.001   0.854  1.9108  0.3402 -0.7839
  115MOL   H28641554   4.165   0.989   1.028 -0.8840 -1.3708  0.2323
  115MOL   H28741555   4.437   0.930   0.907  0.3617  3.2656 -2.0376
  115MOL   H28841556   4.389   1.094   0.959 -0.2959  0.0684  2.0471
  115MOL   H28941557   4.414   0.980   1.078  1.7649  2.2335  0.0821
  115MOL   C29041558   4.296   0.508   1.163  0.4455 -0.3014  0.6757
  115MOL   C29141559   4.201   0.528   1.278 -0.5398  0.6067  0.1387
  115MOL   C29241560   4.057   0.500   1.253  0.5009 -0.8359 -0.0714
  115MOL   C29341561   4.025   0.363   1.189  0.2462  0.2087 -0.1750
  115MOL   C29441562   3.871   0.338   1.187  0.2638  0.1734  0.5118
  115MOL   C29541563   3.802   0.421   1.074 -0.3769  0.6179 -0.0814
  115MOL   H29641564   4.396   0.547   1.183  1.4151 -1.9237 -0.8478
  115MOL   H29741565   4.300   0.400   1.151  0.4551 -0.0050 -2.2155
  115MOL   H29841566   4.204   0.635   1.301 -0.0156  0.4444  0.8277
  115MOL   H29941567   4.015   0.587   1.201  1.7426 -0.5379 -0.5795
  115MOL   H30041568   4.016   0.503   1.355 -0.5552 -1.6666 -0.4604
  115MOL   H30141569   4.058   0.353   1.086 -0.7151  2.4595 -0.7199
  115MOL   H30241570   4.077   0.292   1.254 -0.6918 -1.5109 -1.2675
  115MOL   H30341571   3.826   0.355   1.284 -2.1519 -1.5402 -0.2682
  115MOL   H30441572   3.859   0.232   1.162 -0.6020  0.1904  0.8347
  115MOL   H30541573   3.693   0.420   1.082 -0.4589 -3.6955 -0.5117
  115MOL   H30641574   3.834   0.375   0.981 -0.9851  1.3625 -0.6698
  115MOL   H30741575   3.830   0.526   1.083 -2.8852  1.3854 -0.6114
  115MOL   C30841576   4.261   0.477   1.406 -0.5276  0.1326  0.2648
  115MOL   C30941577   4.394   0.533   1.465  0.3256 -0.6412 -0.1258
  115MOL   C31041578   4.407   0.690   1.475 -0.1329  0.2030 -0.3103
  115MOL   C31141579   4.283   0.758   1.548 -0.2616  0.3283  0.0796
  115MOL   C31241580   4.310   0.916   1.572  0.0703  0.3495 -0.5666
  115MOL   C31341581   4.215   0.992   1.660  0.3404  0.4585 -0.6838
  115MOL   H31441582   4.184   0.479   1.483 -0.0954 -1.0050  0.7207
  115MOL   H31541583   4.264   0.368   1.403  2.8316  0.2057 -0.4863
  115MOL   H31641584   4.399   0.501   1.569  2.0897  1.4072  0.4563
  115MOL   H31741585   4.421   0.746   1.382 -1.6108  0.7047 -0.2330
  115MOL   H31841586   4.497   0.721   1.528  0.2078  0.3048 -0.9425
  115MOL   H31941587   4.277   0.710   1.646 -1.1301  0.8778  0.3015
  115MOL   H32041588   4.186   0.747   1.499 -0.2581  0.2259  0.0960
  115MOL   H32141589   4.415   0.928   1.599  0.4496 -1.6847 -1.0937
  115MOL   H32241590   4.300   0.965   1.475  0.4959 -1.6714 -1.6638
  115MOL   H32341591   4.269   1.085   1.676 -0.1739  0.7672 -0.7304
  115MOL   H32441592   4.196   0.941   1.754 -0.1262 -0.4356 -1.2486
  115MOL   H32541593   4.113   1.017   1.629 -0.4860 -1.5905  0.2195
  115MOL   C32641594   4.524   0.472   1.406 -0.8926 -0.0768  0.5209
  115MOL   C32741595   4.622   0.396   1.492 -0.0375 -0.6080 -0.0951
  115MOL   C32841596   4.688   0.480   1.605 -0.0532  0.0775  0.0688
  115MOL   C32941597   4.813   0.553   1.548  0.4065 -0.6330  0.1073
  115MOL   C33041598   4.902   0.643   1.632  0.6877  0.2912 -0.3481
  115MOL   C33141599   4.931   0.588   1.770 -0.5134  0.5475 -0.0386
  115MOL   H33241600   4.581   0.549   1.353 -2.4926  1.9811  1.7048
  115MOL   H33341601   4.503   0.398   1.329  0.3602  1.4710 -1.3675
  115MOL   H33441602   4.705   0.368   1.427  0.3136 -0.6552  0.3695
  115MOL   H33541603   4.621   0.550   1.656 -0.6424 -0.6424  0.2978
  115MOL   H33641604   4.707   0.413   1.689  1.9835 -0.0629 -0.4895
  115MOL   H33741605   4.790   0.594   1.450  2.2252 -4.2527 -1.9629
  115MOL   H33841606   4.881   0.473   1.518  0.3043 -1.2075  1.3670
  115MOL   H33941607   4.989   0.668   1.570  1.0639 -0.7541 -0.2621
  115MOL   H34041608   4.847   0.734   1.654 -1.1816 -0.8925  0.0127
  115MOL   H34141609   4.838   0.581   1.827 -0.3733 -2.7863 -0.1538
  115MOL   H34241610   5.000   0.654   1.824 -1.2802 -0.1108  1.8078
  115MOL   H34341611   4.966   0.485   1.774 -0.1519  0.6775  0.1524
  115MOL   C34441612   4.559   0.273   1.551  0.1314  0.5160  0.1088
  115MOL   C34541613   4.629   0.142   1.516 -0.0640  0.2956 -0.5660
  115MOL   C34641614   4.568   0.019   1.594 -0.4072 -0.5141 -0.3436
  115MOL   C34741615   4.632   7.616   1.557  0.2798  0.1641 -0.0159
  115MOL   C34841616   4.563   7.496   1.607 -0.5469 -0.1123 -0.0064
  115MOL   C34941617   4.575   7.474   1.760 -0.0970  0.3447 -0.3772
  115MOL   H35041618   4.538   0.281   1.658  1.8494 -0.3379  0.5267
  115MOL   H35141619   4.460   0.261   1.507  0.8046 -0.3839 -1.1858
  115MOL   H35241620   4.736   0.143   1.535  0.0014 -2.4861 -0.5693
  115MOL   H35341621   4.580   0.040   1.700 -1.2020  1.8647 -0.6848
  115MOL   H35441622   4.462   0.018   1.570  0.0044  0.2709 -2.3158
  115MOL   H35541623   4.622   7.617   1.448 -4.8154  2.1472  0.3543
  115MOL   H35641624   4.739   7.631   1.573  0.1417  0.4455  0.6568
  115MOL   H35741625   4.458   7.517   1.587 -0.3541 -0.2345 -1.1909
  115MOL   H35841626   4.572   7.408   1.544 -1.0129  0.5548 -1.0203
  115MOL   H35941627   4.497   7.409   1.799  1.4738 -0.3476  1.6819
  115MOL   H36041628   4.669   7.425   1.783 -0.3180  0.4433  0.7488
  115MOL   H36141629   4.579   7.572   1.809  2.6513 -0.5536  1.2362
  115MOL   H36241630   4.631   0.125   1.409  0.7133  0.4358 -0.5726
  116MOL     C141631   1.088   4.715   1.548 -0.0870  0.4797 -0.0424
  116MOL     C241632   1.107   4.657   1.690  0.9290 -0.2102  0.0149
  116MOL     C341633   0.967   4.616   1.737 -0.4861 -0.4976 -0.4816
  116MOL     C441634   0.869   4.739   1.747 -0.1961  0.0183  0.1672
  116MOL     C541635   0.726   4.695   1.728 -0.3215  0.3915  0.9608
  116MOL     C641636   0.669   4.630   1.858  0.5171  0.2457 -0.0784
  116MOL     H741637   1.080   4.823   1.545 -2.8101  0.2993 -0.6022
  116MOL     H841638   1.160   4.672   1.479 -0.6812  1.0184 -1.0086
  116MOL     H941639   1.170   4.568   1.684  2.0986  0.7242 -2.4745
  116MOL    H1041640   0.989   4.580   1.838  1.1095 -1.9244 -1.3406
  116MOL    H1141641   0.925   4.530   1.685 -1.8528  0.0305 -0.2946
  116MOL    H1241642   0.888   4.817   1.673  0.5318  0.2167  0.5591
  116MOL    H1341643   0.885   4.789   1.843  1.4204  2.1668 -1.1640
  116MOL    H1441644   0.668   4.787   1.721 -0.7960  0.1604  1.7231
  116MOL    H1541645   0.710   4.645   1.633  0.8035  2.3700 -0.3151
  116MOL    H1641646   0.657   4.701   1.940  2.2617  1.8714 -1.1774
  116MOL    H1741647   0.745   4.564   1.900 -0.8016  0.0509  2.0541
  116MOL    H1841648   0.581   4.569   1.838  1.2090  0.0337 -2.7007
  116MOL    H1941649   0.999   4.681   1.495  0.7966  1.5263 -2.2253
  116MOL    C2041650   1.188   4.767   1.775  0.5952  0.1298  0.6104
  116MOL    C2141651   1.238   4.724   1.915  0.0631  0.5662  0.5658
  116MOL    C2241652   1.362   4.632   1.896 -0.4918 -0.4798  0.7406
  116MOL    C2341653   1.408   4.551   2.013 -0.1711 -0.3084 -0.1578
  116MOL    C2441654   1.294   4.477   2.100  0.0868 -0.0812 -0.3940
  116MOL    C2541655   1.203   4.378   2.026  0.1058 -0.9440 -0.2819
  116MOL    H2641656   1.134   4.860   1.795  0.8397  0.5469 -0.6205
  116MOL    H2741657   1.274   4.803   1.718  0.9949 -0.3909  0.8751
  116MOL    H2841658   1.147   4.672   1.946  0.0814  1.4772  2.1801
  116MOL    H2941659   1.444   4.695   1.861 -0.8210 -0.5423 -0.1517
  116MOL    H3041660   1.338   4.559   1.820 -1.8167 -0.7099  1.3581
  116MOL    H3141661   1.490   4.590   2.074 -0.9632  2.5769 -0.8582
  116MOL    H3241662   1.457   4.466   1.965  1.0941  1.5317 -2.1805
  116MOL    H3341663   1.348   4.423   2.178 -0.9465 -1.5512 -0.6914
  116MOL    H3441664   1.244   4.556   2.158 -1.2658 -0.3287 -1.2060
  116MOL    H3541665   1.150   4.426   1.944 -1.5258 -1.0112  0.7161
  116MOL    H3641666   1.259   4.291   1.992 -0.6920 -1.5860  0.0186
  116MOL    H3741667   1.130   4.330   2.092 -1.4194  1.2987 -0.2837
  116MOL    C3841668   1.273   4.857   1.997  0.5378  0.2017  0.2097
  116MOL    C3941669   1.148   4.928   2.070  0.4042 -0.0148  0.7045
  116MOL    C4041670   1.068   4.828   2.161 -0.0874 -1.0142 -0.2117
  116MOL    C4141671   0.922   4.873   2.198  0.0202  0.2050  0.0764
  116MOL    C4241672   0.857   4.793   2.311  0.4819  0.1451 -0.7654
  116MOL    C4341673   0.713   4.827   2.335  0.2082 -0.4022  0.3735
  116MOL    H4441674   1.338   4.918   1.935  0.1393 -0.0576 -0.4764
  116MOL    H4541675   1.327   4.828   2.087 -0.5480 -0.5847  0.6140
  116MOL    H4641676   1.077   4.953   1.991 -2.6274 -0.7229  3.1029
  116MOL    H4741677   1.068   4.724   2.127 -1.3362 -0.9846 -0.3477
  116MOL    H4841678   1.129   4.822   2.250  2.4530  1.5941 -1.7080
  116MOL    H4941679   0.921   4.978   2.226  0.2835  0.2917 -0.2470
  116MOL    H5041680   0.870   4.867   2.103  0.6377 -1.1097 -0.1920
  116MOL    H5141681   0.866   4.687   2.290  1.4831  0.4400 -1.9177
  116MOL    H5241682   0.910   4.808   2.405  1.6374 -0.5278 -1.2944
  116MOL    H5341683   0.642   4.803   2.255  0.5288  0.5386 -0.1912
  116MOL    H5441684   0.704   4.933   2.358 -3.8560 -0.7678  0.9231
  116MOL    H5541685   0.684   4.779   2.429  3.1323  0.3342  1.7034
  116MOL    C5641686   1.186   5.049   2.148 -0.1475 -0.4656 -0.0802
  116MOL    C5741687   1.262   5.159   2.078  0.5417  0.4122  0.2905
  116MOL    C5841688   1.301   5.266   2.184  0.6270  0.6112 -0.1842
  116MOL    C5941689   1.411   5.358   2.139 -0.1003 -0.5337 -0.0219
  116MOL    C6041690   1.440   5.470   2.236 -0.3021  0.3786  0.3365
  116MOL    C6141691   1.553   5.557   2.185 -0.4483  0.2941  0.5924
  116MOL    H6241692   1.098   5.086   2.201 -1.2465 -0.6763 -1.7318
  116MOL    H6341693   1.256   5.019   2.226 -1.3533  0.5226  1.4202
  116MOL    H6441694   1.356   5.116   2.044 -0.0136 -1.5746  1.1853
  116MOL    H6541695   1.218   5.324   2.225 -0.1868  0.4926 -1.6555
  116MOL    H6641696   1.341   5.208   2.267 -0.1382  0.6529  0.2151
  116MOL    H6741697   1.379   5.401   2.043  0.9117 -1.1856 -0.6620
  116MOL    H6841698   1.495   5.294   2.113 -0.2543  0.0214 -2.0309
  116MOL    H6941699   1.344   5.513   2.268 -0.5519 -0.3344  0.5432
  116MOL    H7041700   1.472   5.429   2.331  1.4130 -2.1127 -1.2779
  116MOL    H7141701   1.639   5.493   2.164 -2.5592 -2.0995 -1.0375
  116MOL    H7241702   1.526   5.593   2.086  0.0998 -1.3548 -0.1697
  116MOL    H7341703   1.580   5.636   2.255  2.2902 -0.2419  0.2052
  116MOL    C7441704   1.167   5.223   1.970 -0.0656  0.0778 -0.0743
  116MOL    C7541705   1.206   5.188   1.824  0.4857  0.2607 -0.1732
  116MOL    C7641706   1.111   5.242   1.716  0.4946  0.2495 -0.2354
  116MOL    C7741707   0.998   5.147   1.692  0.0080  0.3309  0.5325
  116MOL    C7841708   0.902   5.210   1.587  0.2784 -0.8371  0.0131
  116MOL    C7941709   0.966   5.263   1.455  0.3085 -0.2133 -0.7674
  116MOL    H8041710   1.067   5.191   2.000 -0.8373  2.4299 -0.0103
  116MOL    H8141711   1.156   5.331   1.981  1.2738  0.6218 -3.4182
  116MOL    H8241712   1.205   5.079   1.812  1.4029  0.3169 -0.7858
  116MOL    H8341713   1.061   5.330   1.756  0.0761  1.1304 -2.6523
  116MOL    H8441714   1.165   5.257   1.622  0.5116  0.4413 -0.1960
  116MOL    H8541715   1.035   5.050   1.659  1.2339  0.9453  0.0697
  116MOL    H8641716   0.951   5.147   1.790  0.4747  0.9569  0.7615
  116MOL    H8741717   0.843   5.293   1.626  1.7256  0.3703 -0.2993
  116MOL    H8841718   0.824   5.136   1.567  1.5109 -1.9365 -0.8599
  116MOL    H8941719   0.902   5.247   1.369 -0.6401 -1.5567  0.1603
  116MOL    H9041720   1.007   5.364   1.461 -2.0085  0.8110 -1.6579
  116MOL    H9141721   1.050   5.199   1.426 -0.9275 -2.0550 -0.4095
  116MOL    C9241722   1.351   5.244   1.791 -0.0358 -0.0777  0.8226
  116MOL    C9341723   1.431   5.191   1.666  0.4109  0.0750  0.4489
  116MOL    C9441724   1.544   5.283   1.631  0.5859 -0.3064  0.2570
  116MOL    C9541725   1.651   5.308   1.739 -0.2168 -0.0347 -0.4143
  116MOL    C9641726   1.755   5.201   1.748 -0.3598 -0.3056  0.4610
  116MOL    C9741727   1.860   5.223   1.850 -0.3866  0.0642 -0.0881
  116MOL    H9841728   1.340   5.353   1.791 -0.6340 -0.1400 -0.4002
  116MOL    H9941729   1.421   5.219   1.871 -1.0015  0.0161  1.7129
  116MOL   H10041730   1.367   5.187   1.578 -0.4976 -1.6351  1.1609
  116MOL   H10141731   1.501   5.382   1.613  1.1723  0.0206  0.6357
  116MOL   H10241732   1.605   5.242   1.551 -1.1094 -0.2386 -1.1018
  116MOL   H10341733   1.707   5.399   1.718 -0.8460  0.6122  0.6469
  116MOL   H10441734   1.618   5.322   1.842  0.1681 -2.6477  0.1140
  116MOL   H10541735   1.712   5.106   1.778  2.4425 -1.6341  0.4796
  116MOL   H10641736   1.801   5.178   1.652 -1.4145 -2.3634  0.4328
  116MOL   H10741737   1.821   5.223   1.952 -0.8416  1.2961 -0.2499
  116MOL   H10841738   1.926   5.137   1.847  0.6233  0.6721  2.9938
  116MOL   H10941739   1.924   5.311   1.840  0.7751 -0.8996 -1.2471
  116MOL   C11041740   1.472   5.047   1.691 -0.7412  0.7624  0.1581
  116MOL   C11141741   1.557   4.970   1.580  0.3947 -0.1367 -0.0840
  116MOL   C11241742   1.490   4.984   1.442  0.5577  0.4287 -0.5684
  116MOL   C11341743   1.351   4.908   1.418 -0.7206  0.0919  0.0671
  116MOL   C11441744   1.264   4.979   1.313 -0.2371  0.3421 -0.1604
  116MOL   C11541745   1.190   4.864   1.241  0.8463 -0.1021  0.4493
  116MOL   H11641746   1.533   5.030   1.780  0.0371  1.5852 -0.2107
  116MOL   H11741747   1.383   4.988   1.710 -0.6335  0.6234  0.2331
  116MOL   H11841748   1.649   5.025   1.563  0.1364  0.4029  0.2698
  116MOL   H11941749   1.569   4.946   1.377  1.7067 -0.0587  1.0946
  116MOL   H12041750   1.467   5.089   1.420  1.5054  0.9984  1.1021
  116MOL   H12141751   1.296   4.904   1.512 -2.1103 -1.5050 -0.7978
  116MOL   H12241752   1.384   4.811   1.380 -1.0828 -0.3357  0.8339
  116MOL   H12341753   1.325   5.026   1.236 -0.5736  0.5218 -0.3187
  116MOL   H12441754   1.196   5.045   1.366 -0.0536 -0.7620  1.4927
  116MOL   H12541755   1.260   4.789   1.202  0.9962  0.3084 -0.0779
  116MOL   H12641756   1.111   4.819   1.301  0.3400 -1.9302 -1.5455
  116MOL   H12741757   1.131   4.898   1.156 -0.1744  2.5167  2.1627
  116MOL   C12841758   1.582   4.818   1.624  0.1859 -0.2377 -0.2670
  116MOL   C12941759   1.677   4.729   1.541 -0.5727 -0.2727 -0.4073
  116MOL   C13041760   1.653   4.585   1.589  0.1828  0.0032  0.6456
  116MOL   C13141761   1.694   4.556   1.734 -0.4803 -1.2180 -0.2443
  116MOL   C13241762   1.720   4.405   1.760  0.7219 -0.3637 -0.1735
  116MOL   C13341763   1.799   4.386   1.888  0.3047  0.2521  0.4260
  116MOL   H13441764   1.485   4.770   1.624 -0.4619  1.0393 -0.9888
  116MOL   H13541765   1.617   4.821   1.727 -0.1242 -1.3135 -0.1216
  116MOL   H13641766   1.641   4.724   1.439  2.6377 -1.1454 -1.5462
  116MOL   H13741767   1.556   4.546   1.559  0.2931 -1.1522  1.7673
  116MOL   H13841768   1.711   4.516   1.528 -1.3087 -1.6731  1.1029
  116MOL   H13941769   1.624   4.591   1.810 -2.0903 -0.0699 -2.2440
  116MOL   H14041770   1.788   4.604   1.763 -0.6318 -0.7142 -0.5899
  116MOL   H14141771   1.624   4.353   1.762  0.7513 -0.3838  1.1197
  116MOL   H14241772   1.779   4.368   1.676  2.1293  0.4484  0.4220
  116MOL   H14341773   1.763   4.440   1.976 -1.6759  0.7207 -0.6227
  116MOL   H14441774   1.901   4.418   1.869  0.9973 -2.5027 -0.6827
  116MOL   H14541775   1.797   4.281   1.917 -2.1130  0.0607 -0.3143
  116MOL   C14641776   1.827   4.765   1.559  0.3091  0.0267  0.2014
  116MOL   C14741777   1.933   4.698   1.461  0.0722 -0.1900  0.3550
  116MOL   C14841778   2.058   4.639   1.531  0.0933 -0.0450  0.0311
  116MOL   C14941779   2.146   4.739   1.606  0.5543 -0.7741 -0.7670
  116MOL   C15041780   2.211   4.672   1.726  0.8322  0.1472 -0.3584
  116MOL   C15141781   2.299   4.756   1.823  1.6203  0.1395  0.2209
  116MOL   H15241782   1.836   4.873   1.541  0.1762  0.2311  1.2954
  116MOL   H15341783   1.869   4.761   1.660  0.9070 -0.5458 -0.0667
  116MOL   H15441784   1.883   4.614   1.413 -0.7917  1.4140 -1.6642
  116MOL   H15541785   2.108   4.576   1.458 -1.9494  0.7248 -2.1312
  116MOL   H15641786   2.032   4.556   1.596 -0.3020 -0.0414 -0.1173
  116MOL   H15741787   2.221   4.774   1.534  0.1115  0.9984 -0.4024
  116MOL   H15841788   2.084   4.824   1.635  1.0105 -0.7817  0.2491
  116MOL   H15941789   2.292   4.605   1.697  1.8242  0.5581  1.3867
  116MOL   H16041790   2.137   4.616   1.782  0.3823 -0.0908 -1.1981
  116MOL   H16141791   2.373   4.803   1.758 -0.4306  1.1004 -1.4838
  116MOL   H16241792   2.240   4.823   1.885  1.1290  0.7719 -0.9161
  116MOL   H16341793   2.349   4.693   1.897  3.3110  0.9720 -0.1923
  116MOL   C16441794   1.976   4.793   1.346 -0.0809 -0.0550  0.1207
  116MOL   C16541795   2.048   4.725   1.231  0.5196  0.0981  0.4599
  116MOL   C16641796   1.946   4.637   1.145 -0.5341 -0.7760 -0.3881
  116MOL   C16741797   1.991   4.548   1.022 -0.0814  0.9203 -0.4257
  116MOL   C16841798   2.082   4.432   1.056 -0.8982  0.6304 -0.1343
  116MOL   C16941799   2.000   4.322   1.131  0.0991  0.6301  0.1835
  116MOL   H17041800   1.886   4.849   1.319 -0.6075 -0.4508  1.0456
  116MOL   H17141801   2.044   4.872   1.378  1.0304 -0.6407 -0.7816
  116MOL   H17241802   2.133   4.667   1.267 -1.2669 -3.1596 -0.4027
  116MOL   H17341803   1.869   4.705   1.108  0.5698 -0.1357 -1.5622
  116MOL   H17441804   1.890   4.581   1.220  1.0303  1.0716  2.2905
  116MOL   H17541805   2.044   4.598   0.941 -0.9265 -0.7489 -2.0552
  116MOL   H17641806   1.910   4.492   0.976  1.1584 -0.2734 -1.2284
  116MOL   H17741807   2.171   4.457   1.112  0.1390 -1.8688 -0.5750
  116MOL   H17841808   2.098   4.387   0.958  0.7811  1.6018 -0.3195
  116MOL   H17941809   2.055   4.228   1.141  0.9092  1.1460  0.6066
  116MOL   H18041810   1.905   4.297   1.083 -0.0097  2.3795 -0.5357
  116MOL   H18141811   1.986   4.347   1.236  2.1545  2.3481  0.0807
  116MOL   C18241812   2.100   4.831   1.131  0.9973  0.4427  0.6352
  116MOL   C18341813   2.198   4.935   1.185  0.5308 -0.1568 -0.6703
  116MOL   C18441814   2.128   5.077   1.213  0.1369  0.0355 -0.1826
  116MOL   C18541815   2.198   5.160   1.317 -0.5518  0.5208  0.6878
  116MOL   C18641816   2.188   5.117   1.466 -0.4086 -0.2020  0.1957
  116MOL   C18741817   2.056   5.163   1.525  0.6078  0.3856 -0.3556
  116MOL   H18841818   2.141   4.789   1.039 -0.8882  0.0519 -0.0675
  116MOL   H18941819   2.021   4.888   1.082  1.0323 -1.0730 -1.2663
  116MOL   H19041820   2.240   4.902   1.280  2.0703  1.4014 -0.7859
  116MOL   H19141821   2.114   5.127   1.117  2.1282  0.3050 -0.3681
  116MOL   H19241822   2.029   5.053   1.252  0.8134 -0.5524  1.2083
  116MOL   H19341823   2.144   5.253   1.298  0.1593  0.7983 -0.0306
  116MOL   H19441824   2.297   5.180   1.276  0.6220  0.7320  3.4856
  116MOL   H19541825   2.254   5.176   1.529 -0.4566  0.5088 -0.4049
  116MOL   H19641826   2.207   5.013   1.491  0.9665  0.3990  1.7114
  116MOL   H19741827   1.975   5.091   1.508 -2.5828  3.5080  1.0218
  116MOL   H19841828   2.025   5.263   1.497  0.0207 -0.4169 -2.6618
  116MOL   H19941829   2.062   5.175   1.633 -2.2726 -1.2209  0.0644
  116MOL   C20041830   2.314   4.957   1.086 -0.4752 -0.2862  0.1912
  116MOL   C20141831   2.423   4.843   1.074  0.0278  1.1570  0.0053
  116MOL   C20241832   2.508   4.863   0.952 -0.0888 -0.8412 -0.1888
  116MOL   C20341833   2.447   4.789   0.833 -0.4831  0.8466  0.5056
  116MOL   C20441834   2.532   4.802   0.699 -0.6059  0.1659 -0.4057
  116MOL   C20541835   2.671   4.730   0.712 -0.2054  0.0783 -0.0967
  116MOL   H20641836   2.369   5.048   1.110  1.4761 -1.5451  0.6112
  116MOL   H20741837   2.277   4.982   0.987  0.8601  0.4615 -0.1243
  116MOL   H20841838   2.375   4.746   1.063  0.0626  1.2223 -0.7479
  116MOL   H20941839   2.608   4.822   0.965  0.0339 -0.3899  0.2549
  116MOL   H21041840   2.517   4.964   0.915 -0.5643  0.3929  2.9048
  116MOL   H21141841   2.353   4.834   0.802 -0.4679 -1.3345 -2.8391
  116MOL   H21241842   2.423   4.686   0.856 -0.5162  0.4843 -1.1141
  116MOL   H21341843   2.547   4.906   0.672 -1.1160 -0.0036 -1.3838
  116MOL   H21441844   2.478   4.746   0.622  0.9890  0.1573 -1.5366
  116MOL   H21541845   2.728   4.710   0.621 -1.6401 -0.1787 -0.9588
  116MOL   H21641846   2.738   4.808   0.747 -1.5092  2.2396 -2.2958
  116MOL   H21741847   2.672   4.646   0.782 -0.8223  1.0130  1.0436
  116MOL   C21841848   2.519   4.836   1.200 -0.1754  0.7024  0.1086
  116MOL   C21941849   2.617   4.713   1.224  0.9335  0.3695  0.4961
  116MOL   C22041850   2.594   4.654   1.364  0.1677  0.1059 -0.2013
  116MOL   C22141851   2.459   4.568   1.377  0.2374 -0.4470  0.0657
  116MOL   C22241852   2.435   4.453   1.277 -0.3631 -0.9583 -1.0210
  116MOL   C22341853   2.323   4.357   1.338  0.2098 -0.0212  0.2864
  116MOL   H22441854   2.587   4.916   1.171 -0.0622  0.3036 -0.7323
  116MOL   H22541855   2.472   4.872   1.292  2.5691 -0.7362  2.1546
  116MOL   H22641856   2.592   4.646   1.142  0.5225  1.6475 -0.4249
  116MOL   H22741857   2.592   4.722   1.449  0.4718 -0.7233  0.4833
  116MOL   H22841858   2.672   4.582   1.391 -0.6389 -1.6858 -2.5379
  116MOL   H22941859   2.379   4.641   1.359  0.9409 -0.0818 -1.7623
  116MOL   H23041860   2.435   4.548   1.481 -1.0042  0.2919 -0.0585
  116MOL   H23141861   2.389   4.498   1.189 -1.1306 -1.1351 -0.7124
  116MOL   H23241862   2.527   4.409   1.238 -1.1603 -3.4001 -0.2547
  116MOL   H23341863   2.276   4.300   1.258 -0.5527 -0.6698  1.1869
  116MOL   H23441864   2.245   4.424   1.374  0.7946 -0.5532  2.6490
  116MOL   H23541865   2.368   4.283   1.405 -1.5468 -0.5254  0.9411
  116MOL   C23641866   2.765   4.749   1.207 -0.5300  0.7440 -0.3250
  116MOL   C23741867   2.866   4.641   1.172 -0.1418  0.1188  0.4043
  116MOL   C23841868   3.000   4.682   1.239 -0.6696  0.5063 -0.2325
  116MOL   C23941869   2.994   4.650   1.388 -0.3548 -0.3547 -0.0565
  116MOL   C24041870   3.107   4.723   1.460 -0.0182  0.0702  0.1672
  116MOL   C24141871   3.120   4.695   1.612 -0.0544  0.2175 -0.4468
  116MOL   H24241872   2.771   4.830   1.133 -0.9732 -0.1283 -1.3308
  116MOL   H24341873   2.801   4.805   1.293  0.7806  0.8524 -0.9272
  116MOL   H24441874   2.836   4.550   1.223 -1.6166  0.6709  0.5670
  116MOL   H24541875   3.085   4.627   1.197 -0.2607  2.7286 -2.4332
  116MOL   H24641876   3.022   4.789   1.235 -2.2790  0.8150 -1.0908
  116MOL   H24741877   3.024   4.546   1.399 -1.5296 -0.7384 -0.3417
  116MOL   H24841878   2.899   4.663   1.440 -0.4636  0.6961 -0.5038
  116MOL   H24941879   3.195   4.687   1.406 -0.4915  0.2618 -0.7425
  116MOL   H25041880   3.103   4.829   1.434 -2.3554 -0.5517 -2.1868
  116MOL   H25141881   3.146   4.589   1.624  1.1860  0.5740  0.1304
  116MOL   H25241882   3.208   4.753   1.639  0.9844 -1.2902 -0.5425
  116MOL   H25341883   3.037   4.722   1.677 -0.0069 -0.4673 -0.0884
  116MOL   C25441884   2.874   4.626   1.020 -0.5460  0.0532  0.2477
  116MOL   C25541885   2.967   4.509   0.971  0.8814 -0.5248 -0.7891
  116MOL   C25641886   2.985   4.521   0.820 -0.2185  0.6869 -0.3765
  116MOL   C25741887   3.100   4.610   0.768 -0.3710  0.6938 -0.4570
  116MOL   C25841888   3.101   4.604   0.611 -0.0941 -0.2674 -0.1718
  116MOL   C25941889   3.246   4.614   0.551  0.2403  0.1291 -0.2641
  116MOL   H26041890   2.922   4.715   0.979  0.5903 -1.6082 -2.1061
  116MOL   H26141891   2.772   4.608   0.988 -1.0244  1.4449  0.9109
  116MOL   H26241892   3.068   4.535   1.002  1.1972 -0.7339 -1.6268
  116MOL   H26341893   3.018   4.426   0.779  0.3117  0.6484  0.1343
  116MOL   H26441894   2.890   4.546   0.773 -0.4849  1.5731  0.6206
  116MOL   H26541895   3.088   4.715   0.793  0.2489  0.5279  0.5534
  116MOL   H26641896   3.193   4.570   0.809 -0.0731  1.3175 -0.5181
  116MOL   H26741897   3.058   4.694   0.567 -1.2273  0.3413  2.1016
  116MOL   H26841898   3.063   4.507   0.580  1.1578 -0.8903  0.2183
  116MOL   H26941899   3.287   4.715   0.556 -1.1478  0.7099 -0.2862
  116MOL   H27041900   3.238   4.578   0.448  1.5024  0.4706 -0.4973
  116MOL   H27141901   3.310   4.539   0.597 -1.9269 -2.1274 -0.8834
  116MOL   C27241902   2.930   4.364   1.011  0.1764  0.8208 -0.5162
  116MOL   C27341903   3.044   4.259   1.028  0.2563  0.7559 -0.0536
  116MOL   C27441904   3.045   4.147   0.922  0.5437 -0.5894  0.5901
  116MOL   C27541905   3.186   4.078   0.908  0.1145 -0.8243  0.2016
  116MOL   C27641906   3.177   3.932   0.868  0.2413  0.0443  0.4683
  116MOL   C27741907   3.312   3.863   0.854 -1.0728 -0.0606  0.5082
  116MOL   H27841908   2.883   4.355   1.109  0.6480 -0.3550 -0.3949
  116MOL   H27941909   2.862   4.322   0.937 -0.7441  0.5107  0.4879
  116MOL   H28041910   3.139   4.310   1.011  0.7098 -0.0940 -0.0560
  116MOL   H28141911   3.018   4.196   0.829 -0.1009 -0.8745  0.6234
  116MOL   H28241912   2.968   4.074   0.946 -0.8645 -0.1524 -2.3899
  116MOL   H28341913   3.240   4.083   1.003  1.6614  1.2015 -0.7451
  116MOL   H28441914   3.247   4.139   0.841 -0.7853 -0.9716 -0.7733
  116MOL   H28541915   3.108   3.875   0.929 -1.7211  2.2275  0.3563
  116MOL   H28641916   3.129   3.936   0.770  1.0827  1.1415  0.0837
  116MOL   H28741917   3.312   3.766   0.804  2.7085  0.0170  0.1730
  116MOL   H28841918   3.392   3.920   0.807 -0.2034 -2.5896 -1.1924
  116MOL   H28941919   3.342   3.840   0.957 -2.4466  2.2058  1.4396
  116MOL   C29041920   3.051   4.203   1.172  0.2073 -0.6413 -0.2643
  116MOL   C29141921   3.086   4.296   1.288 -0.8333  0.9221 -0.1164
  116MOL   C29241922   3.008   4.276   1.413 -0.5025 -0.1564  0.1759
  116MOL   C29341923   2.858   4.318   1.415  0.3583 -0.7950 -0.4726
  116MOL   C29441924   2.800   4.283   1.551 -0.1633  1.2086  0.0421
  116MOL   C29541925   2.653   4.307   1.562  0.4865 -0.1753  0.2234
  116MOL   H29641926   3.125   4.124   1.182  1.4851  0.4551 -0.8849
  116MOL   H29741927   2.954   4.158   1.189  0.6990 -1.3986  0.5703
  116MOL   H29841928   3.071   4.396   1.247 -0.3225  0.0190 -2.6061
  116MOL   H29941929   3.061   4.324   1.495 -3.2281  0.9981  1.3148
  116MOL   H30041930   3.012   4.169   1.437 -0.4893 -0.4299 -1.0193
  116MOL   H30141931   2.830   4.421   1.395 -1.1944 -1.1198 -0.0194
  116MOL   H30241932   2.794   4.268   1.342 -1.0236  0.7255 -0.3144
  116MOL   H30341933   2.850   4.355   1.616  0.5282  0.0768  0.7849
  116MOL   H30441934   2.827   4.180   1.574  0.2323  1.1040 -0.8700
  116MOL   H30541935   2.628   4.411   1.544 -0.7865 -0.5804 -0.3628
  116MOL   H30641936   2.612   4.264   1.654 -1.8179 -0.7400 -1.0249
  116MOL   H30741937   2.599   4.251   1.486  0.4534  0.8199 -0.4858
  116MOL   C30841938   3.242   4.298   1.318  0.3497 -0.2994 -0.7258
  116MOL   C30941939   3.351   4.318   1.210 -1.0926  0.0370 -0.4258
  116MOL   C31041940   3.494   4.291   1.273 -0.3428  0.0706 -0.1143
  116MOL   C31141941   3.528   4.144   1.254 -0.1817 -0.2241  0.6329
  116MOL   C31241942   3.664   4.098   1.309  0.4237  0.0500  0.2212
  116MOL   C31341943   3.720   3.966   1.244  0.5117  0.0292 -1.2064
  116MOL   H31441944   3.259   4.362   1.405  2.3252 -2.8683  0.8752
  116MOL   H31541945   3.272   4.208   1.373  0.2093 -0.2114 -0.5041
  116MOL   H31641946   3.329   4.257   1.123 -0.9355 -0.0532 -0.4009
  116MOL   H31741947   3.497   4.322   1.377 -0.3612  2.4602 -0.7858
  116MOL   H31841948   3.569   4.346   1.216  0.0595  2.3609  2.5376
  116MOL   H31941949   3.517   4.132   1.146  1.3291  0.3909  0.3894
  116MOL   H32041950   3.449   4.083   1.296 -0.2207 -0.0543  0.8036
  116MOL   H32141951   3.738   4.178   1.310 -0.7758  1.1956 -0.1849
  116MOL   H32241952   3.653   4.083   1.416 -0.9732  2.1414  0.4143
  116MOL   H32341953   3.747   3.981   1.139  0.7560 -1.1109 -1.3132
  116MOL   H32441954   3.645   3.887   1.257  0.6783  0.0847  0.1648
  116MOL   H32541955   3.806   3.936   1.303  0.7811  3.0759  0.0231
  116MOL   C32641956   3.337   4.464   1.166  0.3489  0.7107  0.2812
  116MOL   C32741957   3.412   4.529   1.042 -0.4396 -0.3276 -0.3218
  116MOL   C32841958   3.403   4.433   0.920  0.2493 -0.0430  0.5957
  116MOL   C32941959   3.499   4.481   0.807 -0.1486  1.0756 -0.8530
  116MOL   C33041960   3.513   4.378   0.692 -0.2982 -0.2507 -0.3427
  116MOL   C33141961   3.597   4.450   0.584  0.4671  0.4373  0.8370
  116MOL   H33241962   3.342   4.540   1.245 -0.3382  0.8816  0.1586
  116MOL   H33341963   3.235   4.468   1.129  0.1950 -2.1466  0.3535
  116MOL   H33441964   3.516   4.536   1.073 -0.8488  1.4604  0.6959
  116MOL   H33541965   3.432   4.331   0.946 -1.2354 -1.0250 -1.3661
  116MOL   H33641966   3.298   4.413   0.894  0.6052 -1.7995  0.4643
  116MOL   H33741967   3.593   4.505   0.856 -0.1984  0.5007 -0.4660
  116MOL   H33841968   3.462   4.576   0.768  0.7677  0.8604 -2.3006
  116MOL   H33941969   3.573   4.289   0.715  0.4285 -0.1950 -1.9809
  116MOL   H34041970   3.416   4.359   0.647 -0.9636 -1.1483  1.4063
  116MOL   H34141971   3.562   4.543   0.539  0.1745 -0.5688 -1.0611
  116MOL   H34241972   3.588   4.376   0.504  3.3463  1.3462 -0.3774
  116MOL   H34341973   3.703   4.451   0.607  0.1869 -0.7300  2.2738
  116MOL   C34441974   3.347   4.671   1.011 -0.0278 -0.2672  0.3074
  116MOL   C34541975   3.359   4.780   1.127  0.2459  0.6100  0.0735
  116MOL   C34641976   3.341   4.919   1.065  0.2184 -0.8574 -0.8377
  116MOL   C34741977   3.348   5.033   1.177  0.8532  0.3143  1.0913
  116MOL   C34841978   3.471   5.042   1.263  0.2113 -0.3145 -0.3082
  116MOL   C34941979   3.601   5.050   1.182  0.3139  0.6868  0.0837
  116MOL   H35041980   3.393   4.706   0.919  0.9638 -2.1156  0.0844
  116MOL   H35141981   3.239   4.665   0.998  0.0807 -0.6393 -0.3950
  116MOL   H35241982   3.459   4.766   1.168  0.2619 -0.5348 -0.3276
  116MOL   H35341983   3.416   4.948   0.992 -0.9044  0.7108 -1.4071
  116MOL   H35441984   3.243   4.926   1.018 -0.0534 -2.1282 -0.4689
  116MOL   H35541985   3.341   5.125   1.119 -1.3073 -0.9247 -0.7102
  116MOL   H35641986   3.256   5.029   1.235 -0.1878  0.9956 -0.4690
  116MOL   H35741987   3.468   5.131   1.326 -0.7534 -0.2108 -0.4872
  116MOL   H35841988   3.479   4.958   1.333 -0.1145  1.1386  1.5225
  116MOL   H35941989   3.687   5.033   1.246  0.0249 -1.7047 -0.0999
  116MOL   H36041990   3.609   4.972   1.106  1.1639  0.0852  0.7823
  116MOL   H36141991   3.605   5.147   1.134 -1.8881  0.9324  0.3471
  116MOL   H36241992   3.299   4.759   1.216 -2.3568  1.0842 -1.5016
  117MOL     C141993   6.625   3.302   4.745 -0.2720 -0.6852 -0.2362
  117MOL     C241994   6.759   3.337   4.687 -0.2282  0.6416  0.5673
  117MOL     C341995   6.818   3.445   4.779  0.3238  0.0356 -0.2454
  117MOL     C441996   6.876   3.399   4.910 -0.0155  0.1007  0.7794
  117MOL     C541997   6.943   3.517   4.987 -0.8701 -0.2527 -0.2016
  117MOL     C641998   7.003   3.487   5.123  0.6253 -0.2554  0.4272
  117MOL     H741999   6.625   3.289   4.853 -1.2602 -0.2861 -0.1812
  117MOL     H842000   6.552   3.381   4.728 -0.5488 -0.9909 -0.4800
  117MOL     H942001   6.815   3.244   4.681 -0.5527  0.4990 -0.2527
  117MOL    H1042002   6.741   3.517   4.805  0.2019 -0.1885  0.0112
  117MOL    H1142003   6.894   3.496   4.721  0.8613 -1.1286 -0.5881
  117MOL    H1242004   6.958   3.331   4.886  1.3499  2.5555 -1.7972
  117MOL    H1342005   6.805   3.338   4.967 -0.3014 -0.6077 -0.3235
  117MOL    H1442006   7.032   3.546   4.931  0.2242  1.1145  2.1846
  117MOL    H1542007   6.873   3.601   4.983 -1.6490 -0.9003 -0.5183
  117MOL    H1642008   6.933   3.435   5.188  0.8707 -0.5081  0.4895
  117MOL    H1742009   7.045   3.577   5.169  0.7607 -0.1660  0.1294
  117MOL    H1842010   7.087   3.419   5.109  0.1777 -0.7477  0.0849
  117MOL    H1942011   6.589   3.207   4.704 -0.1324 -0.5339 -0.7130
  117MOL    C2042012   6.744   3.385   4.544 -0.3368  0.9411  0.3613
  117MOL    C2142013   6.877   3.403   4.458  0.5385 -0.7804 -0.2700
  117MOL    C2242014   6.974   3.277   4.462  0.0910 -1.1476 -0.0162
  117MOL    C2342015   7.087   3.286   4.568 -0.5538  0.9103 -0.7629
  117MOL    C2442016   7.176   3.155   4.561  0.4253 -0.1184  0.2951
  117MOL    C2542017   7.283   3.155   4.671  0.0926 -0.6151 -0.2271
  117MOL    H2642018   6.674   3.469   4.544  0.8936  1.9990  1.9671
  117MOL    H2742019   6.691   3.305   4.492 -1.7297  0.5536  2.3322
  117MOL    H2842020   6.928   3.494   4.491  0.4254  0.9004 -4.4934
  117MOL    H2942021   7.024   3.264   4.366 -1.8999  1.0791 -1.4202
  117MOL    H3042022   6.910   3.193   4.488 -2.5682 -0.1010 -2.8663
  117MOL    H3142023   7.030   3.281   4.660 -0.8691  2.3559 -0.8664
  117MOL    H3242024   7.132   3.385   4.569 -0.7397  0.9859  1.1264
  117MOL    H3342025   7.106   3.072   4.568 -0.5286  0.8077  2.1196
  117MOL    H3442026   7.231   3.154   4.467 -0.9116 -0.2484 -0.4912
  117MOL    H3542027   7.355   3.075   4.655  2.5823  1.6806 -0.9716
  117MOL    H3642028   7.335   3.250   4.657 -0.0315 -0.3193  1.3041
  117MOL    H3742029   7.233   3.156   4.768  0.3047  0.5974 -0.1190
  117MOL    C3842030   6.836   3.439   4.310  0.4394  0.4255  0.9345
  117MOL    C3942031   6.960   3.472   4.211  0.4331 -0.0040  0.0542
  117MOL    C4042032   6.904   3.499   4.071 -0.6353 -0.0428 -0.2404
  117MOL    C4142033   6.804   3.619   4.065 -0.3906  0.0542  0.2954
  117MOL    C4242034   6.758   3.642   3.926 -0.0214  0.4297  0.2465
  117MOL    C4342035   6.634   3.731   3.930  0.4318 -0.4723 -0.2710
  117MOL    H4442036   6.768   3.524   4.318 -0.2369 -0.1754  1.5955
  117MOL    H4542037   6.777   3.359   4.265  1.8507 -0.3721  0.4818
  117MOL    H4642038   7.014   3.379   4.196 -0.1859 -0.2179 -0.9093
  117MOL    H4742039   6.988   3.528   4.007 -1.0609  1.1259 -0.2742
  117MOL    H4842040   6.861   3.411   4.022 -0.8653 -0.3666  0.5433
  117MOL    H4942041   6.711   3.610   4.122 -0.1302 -0.8764  0.5872
  117MOL    H5042042   6.849   3.707   4.110  1.5063 -0.4640 -0.5452
  117MOL    H5142043   6.838   3.671   3.858 -1.3797  1.0967 -1.1079
  117MOL    H5242044   6.707   3.557   3.880  0.0305  1.2460 -1.3681
  117MOL    H5342045   6.623   3.775   3.831 -1.5407  0.0079  0.1427
  117MOL    H5442046   6.635   3.806   4.009 -0.4064 -0.6855 -0.0516
  117MOL    H5542047   6.545   3.669   3.941  0.8464 -1.4119 -1.8492
  117MOL    C5642048   7.045   3.586   4.266 -0.6477 -0.7791 -0.3085
  117MOL    C5742049   7.175   3.635   4.190 -0.2080  0.3642 -0.2179
  117MOL    C5842050   7.146   3.750   4.078  0.4835  0.1307 -0.0402
  117MOL    C5942051   7.255   3.856   4.070  0.2365 -0.1139 -0.7275
  117MOL    C6042052   7.221   3.968   3.966 -0.3945 -0.0911 -0.8770
  117MOL    C6142053   7.234   3.912   3.826 -0.2110  0.2992  0.4288
  117MOL    H6242054   6.977   3.668   4.288  1.3821  0.9363 -0.2733
  117MOL    H6342055   7.083   3.553   4.363  0.8299  0.9373 -0.2816
  117MOL    H6442056   7.229   3.689   4.268  0.6023  0.2611 -0.7018
  117MOL    H6542057   7.133   3.698   3.983 -0.3615 -2.0232  1.2139
  117MOL    H6642058   7.053   3.802   4.102  1.1684  2.7210 -2.7087
  117MOL    H6742059   7.352   3.811   4.050  0.5343 -0.2786  1.0200
  117MOL    H6842060   7.259   3.894   4.172 -1.6480  1.5282 -1.2266
  117MOL    H6942061   7.124   4.015   3.985  1.9593  4.1050  1.5034
  117MOL    H7042062   7.287   4.051   3.991 -0.9305 -0.1367  0.7793
  117MOL    H7142063   7.154   3.846   3.794 -1.0927  1.1155  0.9391
  117MOL    H7242064   7.240   3.983   3.744  1.3737 -1.7314 -1.2762
  117MOL    H7342065   7.318   3.845   3.804 -0.0291  1.0628 -1.3097
  117MOL    C7442066   7.268   3.530   4.143 -0.1053  0.3232 -0.0203
  117MOL    C7542067   7.305   3.417   4.242  0.5742 -0.4532 -0.4707
  117MOL    C7642068   7.359   3.289   4.173 -0.3057 -0.5710  0.6332
  117MOL    C7742069   7.246   3.194   4.122  0.5631  0.4216  0.4888
  117MOL    C7842070   7.279   3.052   4.075  0.0836  0.0928 -0.2330
  117MOL    C7942071   7.393   3.045   3.965 -0.1914 -0.5466  0.2282
  117MOL    H8042072   7.229   3.483   4.052  2.4389 -0.1749 -0.9190
  117MOL    H8142073   7.361   3.579   4.114 -0.0979 -0.0159 -0.5911
  117MOL    H8242074   7.216   3.374   4.288  0.8916 -0.3884  0.2085
  117MOL    H8342075   7.425   3.315   4.091  0.6922 -0.3826  1.4954
  117MOL    H8442076   7.412   3.225   4.244  0.9715  0.9399  1.0615
  117MOL    H8542077   7.158   3.188   4.187 -0.5574 -0.5452 -1.0854
  117MOL    H8642078   7.216   3.250   4.034 -1.9919 -0.8186  0.5098
  117MOL    H8742079   7.187   3.007   4.037  1.3437  0.0155 -3.3501
  117MOL    H8842080   7.315   2.995   4.161  1.7082 -0.7369 -1.4431
  117MOL    H8942081   7.489   3.073   4.009 -0.0555  0.4570 -0.7113
  117MOL    H9042082   7.409   2.945   3.924  1.7888 -1.0432  2.1067
  117MOL    H9142083   7.384   3.118   3.885 -0.7631  1.6577  2.2396
  117MOL    C9242084   7.390   3.459   4.366 -0.3532 -0.3023  0.0416
  117MOL    C9342085   7.540   3.504   4.337  0.1930  0.1876  0.0624
  117MOL    C9442086   7.544   3.653   4.334  0.6615  0.2545 -0.2410
  117MOL    C9542087   7.513   3.719   4.474  0.7552  0.6698 -0.1091
  117MOL    C9642088   7.522   3.865   4.493 -0.5286 -0.9692 -0.2281
  117MOL    C9742089   7.659   3.933   4.501  0.0001 -0.2033  0.4015
  117MOL    H9842090   7.330   3.520   4.433  0.4237  0.8117 -0.2597
  117MOL    H9942091   7.397   3.380   4.440 -1.2088  2.3938  3.0930
  117MOL   H10042092   7.569   3.482   4.235 -2.1486  3.8466 -1.5186
  117MOL   H10142093   7.477   3.701   4.262 -1.9142 -1.0385  1.1990
  117MOL   H10242094   7.643   3.684   4.302  0.3711 -0.4747 -1.9163
  117MOL   H10342095   7.416   3.690   4.513 -0.3443  0.8946 -2.6270
  117MOL   H10442096   7.581   3.675   4.548 -0.5618  1.5474  1.6648
  117MOL   H10542097   7.464   3.917   4.417  1.5368  0.8580 -0.6004
  117MOL   H10642098   7.469   3.883   4.587 -1.3974 -2.2546 -0.4685
  117MOL   H10742099   7.642   4.041   4.506  3.2295  0.4596 -1.2406
  117MOL   H10842100   7.710   3.905   4.593  2.6789  1.2344 -0.5611
  117MOL   H10942101   7.721   3.906   4.415  1.5948  1.1571  1.0942
  117MOL   C11042102   7.629   3.429   4.436  0.4782  0.2210  0.3578
  117MOL   C11142103   0.056   3.440   4.422  0.2450  0.7257  0.0170
  117MOL   C11242104   0.097   3.396   4.279 -0.3870  0.6261 -0.0518
  117MOL   C11342105   0.061   3.250   4.251 -0.2881  0.3371  0.1580
  117MOL   C11442106   0.111   3.206   4.113  0.4965 -0.4389  0.0269
  117MOL   C11542107   0.088   3.052   4.081 -0.9247 -0.3572 -0.6609
  117MOL   H11642108   7.589   3.433   4.538 -2.2171 -0.9421 -0.5886
  117MOL   H11742109   7.606   3.322   4.433 -0.8771  0.5520 -2.3541
  117MOL   H11842110   0.081   3.546   4.429  0.2218  0.6505  1.6186
  117MOL   H11942111   0.202   3.419   4.259  0.1537 -2.9617 -1.7892
  117MOL   H12042112   0.050   3.455   4.200 -2.7142 -2.8909 -1.4162
  117MOL   H12142113   7.679   3.240   4.254 -0.4916  1.9535 -1.2486
  117MOL   H12242114   0.109   3.187   4.326 -0.2532 -0.1513 -0.2726
  117MOL   H12342115   0.218   3.228   4.115  0.2049  1.2068 -1.3813
  117MOL   H12442116   0.057   3.272   4.045 -1.0831  0.9158  2.5262
  117MOL   H12542117   0.141   3.023   3.990 -0.0098  2.3776 -1.0253
  117MOL   H12642118   0.126   2.994   4.165 -0.6782  0.0453 -0.4933
  117MOL   H12742119   7.714   3.013   4.069 -1.5407  1.1353 -0.3759
  117MOL   C12842120   0.131   3.365   4.535  0.3441 -0.1377 -0.4302
  117MOL   C12942121   0.105   3.399   4.689  0.1364 -0.0887  0.8489
  117MOL   C13042122   0.125   3.544   4.726  0.3754  0.3159 -0.0390
  117MOL   C13142123   0.095   3.575   4.882 -0.3181 -0.3041 -0.1773
  117MOL   C13242124   0.158   3.704   4.927 -0.0824 -0.0163 -0.1625
  117MOL   C13342125   0.079   3.827   4.886 -0.2247  0.0431  0.0042
  117MOL   H13442126   0.238   3.383   4.523  0.1963  3.2465  2.4314
  117MOL   H13542127   0.112   3.258   4.531  1.7791 -0.4365  0.6105
  117MOL   H13642128   0.003   3.372   4.715 -0.5785  0.8718 -0.8605
  117MOL   H13742129   0.229   3.568   4.705  0.9048 -0.9027  1.0518
  117MOL   H13842130   0.054   3.599   4.666  1.1372  0.7951 -0.4984
  117MOL   H13942131   0.136   3.503   4.952 -1.4696 -0.7845  0.0233
  117MOL   H14042132   7.720   3.596   4.914 -0.1754 -0.1453  0.1749
  117MOL   H14142133   0.163   3.701   5.035 -0.0285 -3.0218 -0.2131
  117MOL   H14242134   0.264   3.711   4.903  0.3632 -1.5702  1.3116
  117MOL   H14342135   0.091   3.845   4.779 -1.0791  1.3024  0.1056
  117MOL   H14442136   0.113   3.915   4.940  1.7254 -0.3342 -0.5742
  117MOL   H14542137   7.699   3.815   4.904  0.3516 -1.9004  2.3523
  117MOL   C14642138   0.208   3.312   4.771 -0.8385 -0.1262  0.2875
  117MOL   C14742139   0.149   3.235   4.894  0.4803 -0.1701 -0.1296
  117MOL   C14842140   0.260   3.180   4.995 -0.1985 -0.7287 -0.1462
  117MOL   C14942141   0.343   3.294   5.061 -0.6968  0.5621  0.1934
  117MOL   C15042142   0.279   3.367   5.184 -0.5408  0.7258 -0.2580
  117MOL   C15142143   0.364   3.478   5.245 -0.1781  1.2762  0.1124
  117MOL   H15242144   0.246   3.236   4.704  1.0068  1.0669 -0.0506
  117MOL   H15342145   0.295   3.374   4.793 -0.2190 -0.6193 -0.7677
  117MOL   H15442146   0.090   3.310   4.946  0.2109 -0.3727 -0.1421
  117MOL   H15542147   0.319   3.097   4.955 -0.6564 -1.1750  0.0885
  117MOL   H15642148   0.208   3.129   5.077  1.3280 -0.4960  0.9983
  117MOL   H15742149   0.443   3.267   5.093 -1.5596 -1.5586  1.1412
  117MOL   H15842150   0.365   3.370   4.986  0.7670  1.6525  1.6893
  117MOL   H15942151   0.252   3.289   5.256  1.4149  1.1011  0.9156
  117MOL   H16042152   0.184   3.416   5.167 -0.9333 -0.0516 -0.3411
  117MOL   H16142153   0.322   3.551   5.315  0.8960  1.8273  0.1949
  117MOL   H16242154   0.439   3.430   5.307 -0.9115 -0.8794 -0.6256
  117MOL   H16342155   0.419   3.542   5.176 -1.6558  1.5070 -0.8877
  117MOL   C16442156   0.068   3.117   4.843 -0.0360  1.1736  0.1121
  117MOL   C16542157   7.692   3.049   4.936 -0.5085 -0.1362 -0.3598
  117MOL   C16642158   7.615   3.152   5.014 -0.6454 -0.3070  1.0289
  117MOL   C16742159   7.498   3.100   5.095  0.0397 -0.3625 -0.0703
  117MOL   C16842160   7.491   3.179   5.231 -0.8088 -0.4731 -0.4566
  117MOL   C16942161   7.459   3.328   5.215  0.4295  0.0512  0.9811
  117MOL   H17042162   0.023   3.142   4.747 -1.3093  1.5742  0.8014
  117MOL   H17142163   0.138   3.039   4.810 -0.1371  1.5821 -1.0794
  117MOL   H17242164   0.022   2.995   5.011 -1.0721 -1.7475 -1.0660
  117MOL   H17342165   7.568   3.228   4.952 -1.4745 -1.2972  0.4319
  117MOL   H17442166   7.683   3.208   5.079 -0.7090  2.9467 -1.5823
  117MOL   H17542167   7.509   2.995   5.121  2.2876 -0.3855 -0.9328
  117MOL   H17642168   7.407   3.099   5.036  0.7826  0.9621 -1.2772
  117MOL   H17742169   7.592   3.183   5.273 -1.9007  0.7431  2.1946
  117MOL   H17842170   7.421   3.135   5.302  1.0035 -2.1977  0.3233
  117MOL   H17942171   7.512   3.381   5.136 -0.4533 -1.4941 -0.6815
  117MOL   H18042172   7.470   3.371   5.315  3.4549 -0.0034  0.7128
  117MOL   H18142173   7.352   3.333   5.193  0.4615  3.4663  1.3121
  117MOL   C18242174   7.602   2.951   4.857  0.1086  0.1897 -0.1453
  117MOL   C18342175   7.676   2.823   4.803 -0.4266  0.3522  0.2172
  117MOL   C18442176   7.597   2.750   4.684  0.6071  0.1114 -0.2858
  117MOL   C18542177   7.613   2.819   4.544  0.0155 -0.1664 -0.1520
  117MOL   C18642178   7.519   2.768   4.439 -0.3789 -0.2892 -0.0475
  117MOL   C18742179   7.572   2.777   4.298  0.3376  0.0077 -0.1641
  117MOL   H18842180   7.515   2.911   4.910 -1.5297  0.9853 -2.1834
  117MOL   H18942181   7.547   3.008   4.782 -1.0638 -0.3574  0.2718
  117MOL   H19042182   0.047   2.852   4.764  0.0815  1.5702  2.3199
  117MOL   H19142183   7.626   2.646   4.668  0.4206 -0.1866  1.2026
  117MOL   H19242184   7.492   2.737   4.711  0.6607 -1.9760 -0.9639
  117MOL   H19342185   7.714   2.804   4.506 -0.1383  0.7896 -0.9380
  117MOL   H19442186   7.599   2.927   4.546  0.2634 -0.0795 -2.0595
  117MOL   H19542187   7.426   2.825   4.440 -0.2096  0.0919 -2.1716
  117MOL   H19642188   7.491   2.664   4.457  2.9727 -1.6193 -1.9383
  117MOL   H19742189   7.493   2.804   4.228 -0.6388  0.1745  0.9768
  117MOL   H19842190   7.618   2.685   4.262  1.0545  0.6611 -0.9526
  117MOL   H19942191   7.663   2.837   4.288  1.7592 -2.0913 -0.2026
  117MOL   C20042192   7.698   2.726   4.922 -0.2244 -0.2182 -0.8876
  117MOL   C20142193   0.078   2.607   4.902  0.2295 -0.3252  0.0376
  117MOL   C20242194   0.219   2.665   4.880  0.2049 -0.1789 -0.0818
  117MOL   C20342195   0.276   2.735   5.011 -0.8246 -0.2516 -0.3617
  117MOL   C20442196   0.397   2.819   4.978  0.0141  0.1538  0.1622
  117MOL   C20542197   0.523   2.733   4.962  0.0102 -0.7410  0.4550
  117MOL   H20642198   7.603   2.674   4.927  0.7233 -1.8557  0.3358
  117MOL   H20742199   7.720   2.781   5.014 -0.2387  1.7341 -2.0263
  117MOL   H20842200   0.047   2.562   4.807 -0.3790  0.2631 -0.0467
  117MOL   H20942201   0.216   2.754   4.817  1.0011 -0.6270 -0.7646
  117MOL   H21042202   0.277   2.587   4.831  1.0009  0.6569 -0.5083
  117MOL   H21142203   0.301   2.678   5.100 -2.1469  1.6663  1.2610
  117MOL   H21242204   0.201   2.803   5.051 -1.2668 -0.2749 -1.1392
  117MOL   H21342205   0.404   2.897   5.053 -0.3140  0.2527  0.0934
  117MOL   H21442206   0.378   2.879   4.889 -0.6442 -2.1124 -1.2586
  117MOL   H21542207   0.610   2.798   4.954 -1.6472  1.5803  0.8140
  117MOL   H21642208   0.536   2.651   5.033  1.6237 -0.7844  0.1208
  117MOL   H21742209   0.527   2.685   4.864 -0.5016  0.8610 -0.3742
  117MOL   C21842210   0.072   2.499   5.007  0.2345  0.0639 -0.5633
  117MOL   C21942211   0.183   2.390   4.993  0.5368  0.6025 -0.3839
  117MOL   C22042212   0.170   2.305   4.861  0.3532  0.2819  0.2149
  117MOL   C22142213   0.034   2.233   4.827  0.2778  0.2285 -0.1961
  117MOL   C22242214   0.034   2.120   4.724  0.3425 -0.3883  0.4602
  117MOL   C22342215   7.644   2.020   4.755  0.4775  0.1135 -0.8649
  117MOL   H22442216   0.098   2.550   5.099  1.2775  0.1974 -0.9211
  117MOL   H22542217   7.704   2.445   5.007  0.1589  0.1817 -1.6895
  117MOL   H22642218   0.282   2.434   4.989  0.8910  0.0120  1.4790
  117MOL   H22742219   0.251   2.231   4.857  1.1912  1.1166  1.5886
  117MOL   H22842220   0.204   2.368   4.779  1.6939 -1.0607 -0.2973
  117MOL   H22942221   7.680   2.305   4.812 -1.2825 -1.7985 -1.8880
  117MOL   H23042222   0.001   2.196   4.924  0.4013  0.7836  0.0573
  117MOL   H23142223   0.020   2.156   4.622  0.1847 -1.2604  0.1761
  117MOL   H23242224   0.130   2.069   4.730  1.4910  1.3949 -1.7328
  117MOL   H23342225   7.663   1.967   4.848 -1.2704  2.6643  1.0142
  117MOL   H23442226   7.618   1.942   4.684 -3.0744  0.2907  0.1454
  117MOL   H23542227   7.548   2.069   4.774  0.6239 -0.0968  0.4140
  117MOL   C23642228   0.192   2.296   5.122  0.0691  0.3484  0.6040
  117MOL   C23742229   0.226   2.348   5.258 -0.0732  0.2922  0.5507
  117MOL   C23842230   0.350   2.435   5.264 -0.4883  0.2479 -0.6734
  117MOL   C23942231   0.364   2.527   5.383 -0.0471  0.4718  0.4727
  117MOL   C24042232   0.489   2.616   5.387 -0.4175  0.0006  0.1638
  117MOL   C24142233   0.507   2.666   5.528  0.3297 -0.6116 -0.4886
  117MOL   H24242234   0.105   2.232   5.120  0.0658  0.3562  0.4879
  117MOL   H24342235   0.273   2.225   5.103 -0.0228  0.0312  1.3911
  117MOL   H24442236   0.147   2.415   5.292 -0.7463 -0.1782 -0.0742
  117MOL   H24542237   0.445   2.382   5.256 -1.3091 -1.0490 -2.3174
  117MOL   H24642238   0.369   2.493   5.173 -0.6872 -1.8942 -2.1216
  117MOL   H24742239   0.346   2.472   5.475 -1.0316 -0.0390 -0.0279
  117MOL   H24842240   0.280   2.596   5.378 -1.1660 -0.9661 -0.6569
  117MOL   H24942241   0.569   2.558   5.342 -0.9537 -0.6610  0.0476
  117MOL   H25042242   0.476   2.702   5.321 -0.8986 -0.8906 -0.9316
  117MOL   H25142243   0.507   2.586   5.601 -1.1977  0.0462  0.2494
  117MOL   H25242244   0.598   2.726   5.535  0.4066 -0.9386  1.3137
  117MOL   H25342245   0.417   2.725   5.549 -0.5931 -2.4012  0.6564
  117MOL   C25442246   0.241   2.229   5.362  0.1537 -0.2828  0.0679
  117MOL   C25542247   0.111   2.163   5.405 -0.0349 -0.4481 -0.2110
  117MOL   C25642248   0.054   2.227   5.528 -0.1906  0.3937  0.1343
  117MOL   C25742249   7.629   2.206   5.552  0.5898 -0.9417  1.2435
  117MOL   C25842250   7.535   2.301   5.467  0.0340 -0.0591 -0.4387
  117MOL   C25942251   7.389   2.267   5.485  0.0092  0.1506 -0.0928
  117MOL   H26042252   0.291   2.261   5.453  0.8055 -1.2018  0.0405
  117MOL   H26142253   0.308   2.155   5.318 -0.5942 -1.3240  0.6592
  117MOL   H26242254   0.042   2.187   5.324 -0.9926 -1.0602  0.4092
  117MOL   H26342255   0.109   2.184   5.611  0.5107  2.0421  0.5596
  117MOL   H26442256   0.073   2.335   5.522  0.0339  0.2848 -1.5541
  117MOL   H26542257   7.592   2.105   5.537  0.3710 -0.7319  0.3452
  117MOL   H26642258   7.603   2.229   5.655 -1.2366  2.3308  0.1632
  117MOL   H26742259   7.572   2.304   5.365  2.5771  1.0734  0.4784
  117MOL   H26842260   7.546   2.403   5.502 -0.2280 -0.3491  0.5150
  117MOL   H26942261   7.367   2.180   5.423  0.8624  0.5125 -0.9013
  117MOL   H27042262   7.339   2.361   5.464  0.7388  0.6796  0.5131
  117MOL   H27142263   7.368   2.227   5.585 -2.0197  0.6653 -0.2863
  117MOL   C27242264   0.114   2.011   5.406 -0.4236  0.0779  0.1695
  117MOL   C27342265   0.122   1.953   5.261  0.7333 -0.0118 -0.2175
  117MOL   C27442266   7.713   1.956   5.183  0.4455 -0.3775 -0.4121
  117MOL   C27542267   7.600   1.875   5.253 -0.3275 -0.0099 -0.2028
  117MOL   C27642268   7.479   1.845   5.164 -0.7635 -0.6480  0.1354
  117MOL   C27742269   7.361   1.788   5.243 -0.1882  0.6145 -0.5857
  117MOL   H27842270   0.200   1.980   5.466 -1.8719 -0.9494  1.7573
  117MOL   H27942271   0.022   1.976   5.454  0.3580 -2.2323  0.0170
  117MOL   H28042272   0.190   2.015   5.203 -0.7944  0.3818 -1.6181
  117MOL   H28142273   7.715   1.923   5.080  0.2942  1.5438 -1.0470
  117MOL   H28242274   7.670   2.056   5.191 -1.1315 -1.1603  1.4073
  117MOL   H28342275   7.584   1.918   5.352  2.4140 -1.1017  0.7747
  117MOL   H28442276   7.641   1.782   5.293 -2.0867 -0.7733 -0.1008
  117MOL   H28542277   7.438   1.935   5.119  2.1670 -0.4940 -2.4194
  117MOL   H28642278   7.512   1.780   5.083  0.4971  1.2519 -0.8930
  117MOL   H28742279   7.392   1.686   5.264 -0.2334  0.7903  0.3692
  117MOL   H28842280   7.355   1.841   5.339 -0.3053 -1.9379  0.8556
  117MOL   H28942281   7.267   1.788   5.188 -1.7373 -2.5227  1.8700
  117MOL   C29042282   0.199   1.813   5.255  0.2493  0.3045 -0.3957
  117MOL   C29142283   0.329   1.800   5.171 -0.2902  0.2775 -0.0382
  117MOL   C29242284   0.419   1.683   5.207 -0.0518  0.0863  0.6440
  117MOL   C29342285   0.365   1.536   5.200 -0.1978 -0.4179  0.4409
  117MOL   C29442286   0.468   1.447   5.267 -0.2430 -0.1932 -0.0160
  117MOL   C29542287   0.420   1.302   5.278  0.3747  0.1255 -0.8688
  117MOL   H29642288   0.119   1.749   5.219 -1.8071  1.9651  1.0597
  117MOL   H29742289   0.214   1.782   5.358  1.7544 -2.1253 -1.3035
  117MOL   H29842290   0.380   1.893   5.195 -0.2539 -0.2359  1.9335
  117MOL   H29942291   0.457   1.707   5.306 -0.8587  1.4610  0.6350
  117MOL   H30042292   0.509   1.699   5.148 -0.5567 -0.9957 -0.4311
  117MOL   H30142293   0.273   1.546   5.257  0.0470  0.8988  0.6219
  117MOL   H30242294   0.350   1.502   5.097  0.6373  0.9461 -0.1404
  117MOL   H30342295   0.489   1.488   5.365  0.2550 -0.2496 -0.0970
  117MOL   H30442296   0.557   1.459   5.205 -0.7223 -0.3276 -0.7421
  117MOL   H30542297   0.397   1.262   5.179 -1.5774 -0.1616 -0.3194
  117MOL   H30642298   0.333   1.281   5.340  2.0532 -0.3514  1.3906
  117MOL   H30742299   0.503   1.256   5.331  0.9530 -0.4232 -2.2114
  117MOL   C30842300   0.289   1.799   5.019 -0.0366  0.5423 -0.2193
  117MOL   C30942301   0.395   1.789   4.911 -0.3758 -1.1187  0.0114
  117MOL   C31042302   0.511   1.894   4.921  1.0456 -0.7989  0.6682
  117MOL   C31142303   0.478   2.043   4.902 -0.5019 -0.1128 -0.2657
  117MOL   C31242304   0.598   2.140   4.927 -0.6225  0.0474  0.6604
  117MOL   C31342305   0.564   2.288   4.953 -0.2135  0.4998 -0.5880
  117MOL   H31442306   0.223   1.714   4.998  1.7423 -0.2194 -2.9739
  117MOL   H31542307   0.222   1.884   5.002 -0.5384  0.2460  0.2609
  117MOL   H31642308   0.427   1.686   4.922 -1.8858 -1.5849  0.1857
  117MOL   H31742309   0.579   1.867   4.840  3.0947 -0.6817  2.3120
  117MOL   H31842310   0.565   1.885   5.015  0.5670  1.2533  1.1655
  117MOL   H31942311   0.387   2.066   4.958  0.4735  0.9596  0.9204
  117MOL   H32042312   0.449   2.068   4.800 -0.8239 -0.3056 -0.2221
  117MOL   H32142313   0.663   2.113   5.010  3.3925  2.8189 -1.4072
  117MOL   H32242314   0.668   2.131   4.844 -0.5672 -1.6619  0.8799
  117MOL   H32342315   0.655   2.343   4.974 -0.1392 -0.0715  0.6934
  117MOL   H32442316   0.504   2.280   5.044 -0.6853  0.3073 -0.9162
  117MOL   H32542317   0.507   2.341   4.877 -1.6631  0.3518  0.3810
  117MOL   C32642318   0.317   1.801   4.775 -0.6179  0.0537 -0.0448
  117MOL   C32742319   0.391   1.745   4.651 -0.1861 -0.5954  0.3680
  117MOL   C32842320   0.452   1.601   4.676  0.3225 -0.0717  0.1124
  117MOL   C32942321   0.344   1.489   4.684 -0.0389 -0.0985 -0.0340
  117MOL   C33042322   0.410   1.367   4.744 -0.8163  0.2456  0.0591
  117MOL   C33142323   0.309   1.247   4.761 -0.8751 -0.0879  0.1249
  117MOL   H33242324   0.282   1.904   4.760 -1.5056 -0.4216 -1.3859
  117MOL   H33342325   0.221   1.750   4.781  0.1376 -1.3860 -0.0587
  117MOL   H33442326   0.475   1.812   4.632 -1.0753 -0.3953 -3.2055
  117MOL   H33542327   0.506   1.567   4.588 -0.7242  0.0115 -0.5757
  117MOL   H33642328   0.525   1.607   4.757 -0.6019  0.1998  0.9394
  117MOL   H33742329   0.298   1.469   4.587  0.9879 -3.4474  0.1116
  117MOL   H33842330   0.260   1.517   4.747 -1.3276 -0.0990 -1.7170
  117MOL   H33942331   0.496   1.335   4.684 -0.2501  0.4925  0.7362
  117MOL   H34042332   0.447   1.379   4.846 -1.2138 -0.8201  0.3396
  117MOL   H34142333   0.358   1.151   4.778  0.4546  0.5671  0.0257
  117MOL   H34242334   0.247   1.236   4.672  0.5713 -1.6744 -0.7238
  117MOL   H34342335   0.229   1.269   4.832 -0.3399 -0.5742  0.8897
  117MOL   C34442336   0.312   1.757   4.513  0.4232 -0.1487 -0.3536
  117MOL   C34542337   0.272   1.900   4.470 -1.1834  0.1950  0.2377
  117MOL   C34642338   0.168   1.906   4.356  0.3121 -0.0021  0.6045
  117MOL   C34742339   0.152   2.044   4.291 -0.4424  0.2555 -0.4704
  117MOL   C34842340   0.053   2.039   4.173  0.7559 -0.2085  0.1883
  117MOL   C34942341   0.021   2.177   4.116  0.7657 -0.1267  0.7458
  117MOL   H35042342   0.361   1.698   4.436  1.5684  1.0905 -0.5991
  117MOL   H35142343   0.221   1.698   4.523  0.1535  0.4502  0.8554
  117MOL   H35242344   0.369   1.941   4.442 -2.3627  1.0080 -2.9441
  117MOL   H35342345   0.191   1.832   4.279 -0.1953  0.1896  0.2663
  117MOL   H35442346   0.068   1.876   4.388  0.1903  1.9185  2.1645
  117MOL   H35542347   0.114   2.098   4.378  1.4381 -0.2251  0.6888
  117MOL   H35642348   0.250   2.090   4.276  0.9907 -1.6645  2.6402
  117MOL   H35742349   0.106   1.977   4.101  1.1123  1.7602 -1.2935
  117MOL   H35842350   7.690   1.981   4.190  0.4496  0.5204  1.1314
  117MOL   H35942351   7.656   2.230   4.141  0.2453 -0.1180 -1.1195
  117MOL   H36042352   0.108   2.241   4.131  0.7722  0.0886 -0.1649
  117MOL   H36142353   0.006   2.152   4.011 -0.5004  1.0254  0.6403
  117MOL   H36242354   0.244   1.963   4.553  1.2631  1.0534  0.4429
  118MOL     C142355   5.250   3.976   1.135 -0.2311  0.2309 -0.8127
  118MOL     C242356   5.134   3.984   1.242 -0.5935  0.2485  0.1316
  118MOL     C342357   5.123   3.837   1.288 -0.0109  0.0520 -0.1019
  118MOL     C442358   5.242   3.762   1.348  0.1966 -0.8426 -0.0737
  118MOL     C542359   5.209   3.614   1.403 -0.2000 -0.4243 -0.0397
  118MOL     C642360   5.170   3.518   1.292 -0.4734 -0.5926 -0.1032
  118MOL     H742361   5.257   4.068   1.077  1.9274  0.2730 -0.5208
  118MOL     H842362   5.346   3.971   1.186  0.2557  3.2666 -1.3562
  118MOL     H942363   5.161   4.047   1.326 -2.8783 -1.3730  2.1714
  118MOL    H1042364   5.076   3.769   1.217  3.8136 -2.1047 -0.6904
  118MOL    H1142365   5.044   3.847   1.363 -1.8298  0.3032 -2.0352
  118MOL    H1242366   5.284   3.833   1.418  0.4409 -1.7194  0.6818
  118MOL    H1342367   5.319   3.750   1.272  0.5676 -1.1664  0.3500
  118MOL    H1442368   5.303   3.581   1.448 -0.0160  0.0250 -0.0869
  118MOL    H1542369   5.142   3.619   1.488  1.1771  1.8576  0.9401
  118MOL    H1642370   5.231   3.544   1.206 -1.9594  2.6409 -0.2099
  118MOL    H1742371   5.069   3.516   1.253 -0.2122 -1.0992 -0.7631
  118MOL    H1842372   5.210   3.417   1.307 -0.9896 -0.9905 -1.3723
  118MOL    H1942373   5.243   3.885   1.075 -0.7899 -0.4027  0.2024
  118MOL    C2042374   5.004   4.035   1.187  0.3078  0.4030  0.5245
  118MOL    C2142375   4.959   4.176   1.231  0.1011  0.1467  0.1056
  118MOL    C2242376   4.833   4.219   1.162  0.4114  0.2519  0.3388
  118MOL    C2342377   4.857   4.267   1.016  0.4159 -0.1400 -0.0720
  118MOL    C2442378   4.951   4.387   0.989  0.0856  0.0056  0.1969
  118MOL    C2542379   4.893   4.510   1.070 -0.5474  0.2803  0.0747
  118MOL    H2642380   4.921   3.968   1.206  1.0221 -1.2048 -1.7661
  118MOL    H2742381   5.017   4.036   1.079 -1.1345  1.8505  0.3610
  118MOL    H2842382   5.045   4.237   1.203 -0.0914  0.5467  0.3874
  118MOL    H2942383   4.797   4.305   1.218 -2.0796 -0.4094 -0.2032
  118MOL    H3042384   4.761   4.137   1.159 -0.3706  0.9733 -1.1338
  118MOL    H3142385   4.758   4.293   0.979 -0.5875 -1.3034  1.7236
  118MOL    H3242386   4.890   4.184   0.955  0.6332  0.9502 -1.4688
  118MOL    H3342387   5.055   4.379   1.022  0.6343  1.0312 -1.2220
  118MOL    H3442388   4.975   4.416   0.887  1.6604  0.3101  0.6339
  118MOL    H3542389   4.915   4.506   1.177 -0.3252 -3.0366 -0.0454
  118MOL    H3642390   4.942   4.602   1.037 -2.5049  1.6416  0.8518
  118MOL    H3742391   4.785   4.523   1.065 -0.5702  0.4785  0.8991
  118MOL    C3842392   4.934   4.187   1.381  0.6405  0.3558  0.0102
  118MOL    C3942393   4.977   4.322   1.442  0.7476 -0.2369  0.3856
  118MOL    C4042394   4.921   4.344   1.586 -0.1421 -0.6258  0.0046
  118MOL    C4142395   4.849   4.475   1.600  0.6879  0.4007  0.2568
  118MOL    C4242396   4.762   4.485   1.731  0.0500  0.1190  0.4848
  118MOL    C4342397   4.849   4.537   1.851 -0.1691 -0.3269 -0.8863
  118MOL    H4442398   4.974   4.102   1.436  0.8740  0.4082 -0.0775
  118MOL    H4542399   4.828   4.188   1.408  0.3171 -1.4065 -1.1125
  118MOL    H4642400   4.947   4.406   1.380  1.2757 -0.7676 -0.6004
  118MOL    H4742401   4.856   4.260   1.611 -0.9338  0.2104  0.8443
  118MOL    H4842402   5.000   4.348   1.661  0.5052  0.7693 -0.7331
  118MOL    H4942403   4.913   4.564   1.600  1.0946  0.1181  1.0928
  118MOL    H5042404   4.790   4.490   1.510  1.0204  1.4207  0.2032
  118MOL    H5142405   4.677   4.554   1.730  0.0728  0.1405 -0.0414
  118MOL    H5242406   4.704   4.395   1.754 -2.2078  1.7101  1.2293
  118MOL    H5342407   4.896   4.633   1.832  0.4530 -0.4648 -0.0530
  118MOL    H5442408   4.928   4.461   1.856 -0.3234 -0.5683 -1.8957
  118MOL    H5542409   4.794   4.539   1.945 -0.9565 -1.2211 -1.3160
  118MOL    C5642410   5.133   4.336   1.455 -0.3480  0.1877  0.0898
  118MOL    C5742411   5.188   4.480   1.446  0.3075 -0.0190  0.7611
  118MOL    C5842412   5.221   4.504   1.295  0.7736  0.3769  0.4363
  118MOL    C5942413   5.354   4.428   1.242 -0.6458 -0.0710 -0.7804
  118MOL    C6042414   5.343   4.399   1.090  0.5781  0.4658 -0.1559
  118MOL    C6142415   5.319   4.521   0.998 -1.4459  0.7140 -0.4001
  118MOL    H6242416   5.177   4.293   1.545  0.7401 -1.0995 -1.0234
  118MOL    H6342417   5.183   4.269   1.384 -2.6594 -0.4403 -1.0121
  118MOL    H6442418   5.106   4.547   1.471 -0.7144 -1.0611  0.2391
  118MOL    H6542419   5.138   4.468   1.234  2.2373 -2.3626 -0.0117
  118MOL    H6642420   5.230   4.612   1.284 -1.7936  0.6988  1.1482
  118MOL    H6742421   5.354   4.331   1.291  1.3573  1.3135  2.1418
  118MOL    H6842422   5.444   4.483   1.270 -0.2884 -0.3097 -1.4454
  118MOL    H6942423   5.441   4.358   1.069 -0.4223 -0.1328 -4.0987
  118MOL    H7042424   5.267   4.324   1.067 -0.5502  1.4545  0.3077
  118MOL    H7142425   5.232   4.579   1.027 -1.2299 -0.2877  2.4345
  118MOL    H7242426   5.402   4.591   0.996 -0.4693 -0.4357 -2.2326
  118MOL    H7342427   5.293   4.490   0.897 -0.9004  2.4845 -1.0912
  118MOL    C7442428   5.308   4.508   1.547 -0.2197  0.7593  0.5795
  118MOL    C7542429   5.334   4.654   1.587  0.2270 -0.3299 -0.1369
  118MOL    C7642430   5.373   4.669   1.738 -0.4099  0.1001  0.0926
  118MOL    C7742431   5.255   4.682   1.837 -0.2866 -0.2468 -0.2385
  118MOL    C7842432   5.283   4.605   1.970 -0.0649  0.2619 -0.3097
  118MOL    C7942433   5.167   4.582   2.056 -0.0164  0.3750 -0.3191
  118MOL    H8042434   5.277   4.460   1.640 -0.4178 -0.4116 -0.0822
  118MOL    H8142435   5.401   4.458   1.521 -0.1746  1.4004 -0.5082
  118MOL    H8242436   5.241   4.707   1.564  0.3888  0.1987  0.4000
  118MOL    H8342437   5.432   4.581   1.763 -1.0960 -0.4731 -0.3000
  118MOL    H8442438   5.433   4.759   1.752  2.1467 -1.3552 -1.1967
  118MOL    H8542439   5.236   4.785   1.867  2.5759 -0.5425  2.9907
  118MOL    H8642440   5.160   4.642   1.802 -0.5027 -0.0791  0.1614
  118MOL    H8742441   5.360   4.662   2.021 -0.2742 -0.0976  0.4118
  118MOL    H8842442   5.334   4.512   1.944 -0.8283 -0.4857  0.8331
  118MOL    H8942443   5.105   4.501   2.018  0.0395  0.5071 -0.6867
  118MOL    H9042444   5.205   4.547   2.152 -2.7252 -0.6554  0.4292
  118MOL    H9142445   5.115   4.677   2.071 -0.2442  0.2972 -0.6101
  118MOL    C9242446   5.438   4.730   1.495  0.0284 -0.1409 -0.1581
  118MOL    C9342447   5.453   4.884   1.519 -0.4221 -0.3315 -0.7780
  118MOL    C9442448   5.590   4.938   1.472  0.1397  0.8547 -0.2631
  118MOL    C9542449   5.706   4.906   1.564 -0.0003 -0.4781 -0.0957
  118MOL    C9642450   5.842   4.940   1.497 -0.0427  0.3361  0.8373
  118MOL    C9742451   5.963   4.891   1.587 -0.4655 -0.2124 -0.1622
  118MOL    H9842452   5.535   4.679   1.495  1.3517  2.2209  1.9280
  118MOL    H9942453   5.416   4.717   1.389  1.3493  0.5776 -0.5338
  118MOL   H10042454   5.435   4.906   1.624 -0.1786  1.6493 -1.1354
  118MOL   H10142455   5.582   5.047   1.467  0.4076  0.8179 -1.9144
  118MOL   H10242456   5.604   4.885   1.378  2.1039 -1.1403  1.1185
  118MOL   H10342457   5.705   4.960   1.658 -0.7294 -0.2766 -0.2168
  118MOL   H10442458   5.699   4.799   1.585 -2.7563 -0.3523 -0.1705
  118MOL   H10542459   5.856   4.895   1.399 -0.3523  0.9572  0.5063
  118MOL   H10642460   5.847   5.048   1.482 -3.8706  0.2045 -2.4160
  118MOL   H10742461   5.963   4.782   1.585 -0.0184 -0.2285  0.4384
  118MOL   H10842462   6.062   4.926   1.557 -1.3864  0.6389 -2.2774
  118MOL   H10942463   5.959   4.926   1.690 -2.4880  2.8801 -1.2426
  118MOL   C11042464   5.340   4.954   1.431  0.7199 -0.2883 -0.8459
  118MOL   C11142465   5.322   5.104   1.441 -0.0054 -0.4189 -0.9194
  118MOL   C11242466   5.312   5.156   1.583  0.0743 -1.0423  0.1654
  118MOL   C11342467   5.175   5.127   1.646 -0.5840 -0.1606 -0.3106
  118MOL   C11442468   5.158   5.167   1.791 -0.7852  0.1646  0.6893
  118MOL   C11542469   5.153   5.323   1.799  0.4137 -0.0856  0.4752
  118MOL   H11642470   5.345   4.916   1.329 -0.5607 -3.8350  0.3450
  118MOL   H11742471   5.245   4.911   1.462 -0.7978  0.6230 -3.9802
  118MOL   H11842472   5.410   5.151   1.397 -1.6062  1.8830 -1.7482
  118MOL   H11942473   5.338   5.261   1.589  0.7558 -0.9634 -2.8915
  118MOL   H12042474   5.390   5.107   1.642  2.6324  0.1346 -2.1006
  118MOL   H12142475   5.154   5.020   1.634 -0.5944 -0.0308 -1.5093
  118MOL   H12242476   5.103   5.175   1.580 -1.5761  0.5109  1.2277
  118MOL   H12342477   5.241   5.118   1.841 -0.4370  1.1484  1.0911
  118MOL   H12442478   5.067   5.117   1.824 -1.5131 -0.1477 -1.7016
  118MOL   H12542479   5.109   5.352   1.894 -1.2946 -0.9512 -0.0444
  118MOL   H12642480   5.256   5.360   1.797 -1.1246  4.3729 -1.4708
  118MOL   H12742481   5.089   5.370   1.725  2.0176  0.0070 -0.8905
  118MOL   C12842482   5.198   5.153   1.352 -0.1690  0.1196 -0.1640
  118MOL   C12942483   5.245   5.179   1.213 -0.3599  0.0041 -0.1082
  118MOL   C13042484   5.345   5.295   1.191 -0.0315 -0.7828 -0.1732
  118MOL   C13142485   5.291   5.436   1.215 -0.1302  0.0138  0.6839
  118MOL   C13242486   5.393   5.549   1.177 -0.1737  0.2758 -0.2853
  118MOL   C13342487   5.339   5.684   1.160 -0.4119  0.2834  0.0589
  118MOL   H13442488   5.142   5.239   1.390 -0.1839  0.7004 -1.4733
  118MOL   H13542489   5.122   5.075   1.349 -3.0638  2.8764 -0.5049
  118MOL   H13642490   5.296   5.090   1.177  0.3208  0.2017  0.3639
  118MOL   H13742491   5.445   5.286   1.235 -1.0699 -3.5183  1.7329
  118MOL   H13842492   5.359   5.303   1.083 -0.1561 -3.0967 -0.3842
  118MOL   H13942493   5.242   5.448   1.311 -1.2348 -1.0808  0.2734
  118MOL   H14042494   5.204   5.447   1.150  0.0064 -1.0679  0.3041
  118MOL   H14142495   5.480   5.556   1.243  0.9087 -1.7998 -1.4451
  118MOL   H14242496   5.438   5.522   1.082 -1.8367 -1.0348 -0.7084
  118MOL   H14342497   5.277   5.690   1.070 -1.4858  0.2625  0.7847
  118MOL   H14442498   5.420   5.753   1.138  0.7272 -1.4649 -1.3508
  118MOL   H14542499   5.279   5.709   1.247 -1.1877 -0.4229 -0.2642
  118MOL   C14642500   5.118   5.193   1.126  0.3725  0.3053  0.6138
  118MOL   C14742501   5.046   5.060   1.084 -0.4420  0.6269  0.3259
  118MOL   C14842502   5.130   4.974   0.982  0.2759 -0.7819  0.4103
  118MOL   C14942503   5.150   5.049   0.844  0.1348  0.5837  0.2114
  118MOL   C15042504   5.245   4.973   0.754  0.0981 -0.6390  0.3476
  118MOL   C15142505   5.230   5.022   0.608 -0.6658  0.3423  0.2698
  118MOL   H15242506   5.054   5.246   1.198 -2.8444  0.1907 -2.0285
  118MOL   H15342507   5.122   5.264   1.043  0.9657 -0.5067 -0.0518
  118MOL   H15442508   5.034   4.995   1.171  2.7814 -4.1202 -2.4818
  118MOL   H15542509   5.094   4.872   0.970  1.6487 -1.1657 -0.5855
  118MOL   H15642510   5.228   4.955   1.026  0.7885  0.8387  0.0155
  118MOL   H15742511   5.054   5.058   0.792  0.2401  0.4961 -0.0018
  118MOL   H15842512   5.203   5.143   0.861 -0.7534  0.9767  0.8649
  118MOL   H15942513   5.225   4.867   0.771  0.1700 -0.9171 -1.1991
  118MOL   H16042514   5.350   4.988   0.781 -0.0816 -0.4362  0.9311
  118MOL   H16142515   5.258   5.127   0.599  1.1179 -0.1251  0.1752
  118MOL   H16242516   5.287   4.958   0.541 -1.1894 -0.7198  0.8345
  118MOL   H16342517   5.130   5.008   0.568 -0.3967  1.5120 -0.8710
  118MOL   C16442518   4.899   5.088   1.028  0.3546 -0.5000 -0.3446
  118MOL   C16542519   4.800   4.978   1.058 -0.7705  0.4224 -0.3462
  118MOL   C16642520   4.794   4.943   1.203  0.4327  0.0480  0.7189
  118MOL   C16742521   4.864   4.820   1.252  0.3417 -0.2353 -0.4578
  118MOL   C16842522   4.904   4.816   1.400 -0.0605 -0.2681 -0.5075
  118MOL   C16942523   4.789   4.849   1.502  0.2991  0.2117 -0.6394
  118MOL   H17042524   4.863   5.178   1.078  1.2071 -0.7142  0.6753
  118MOL   H17142525   4.897   5.124   0.925  0.8724 -2.2011 -0.9756
  118MOL   H17242526   4.835   4.890   1.005 -0.0539 -0.4075  1.4712
  118MOL   H17342527   4.688   4.927   1.224  0.1743  1.0979  0.2708
  118MOL   H17442528   4.820   5.038   1.251  0.3113  0.6250 -0.3289
  118MOL   H17542529   4.951   4.791   1.193 -0.0730  0.5480 -1.4597
  118MOL   H17642530   4.783   4.748   1.239  0.2853 -0.8196  2.7031
  118MOL   H17742531   4.988   4.886   1.409  0.1850 -0.7877  1.5154
  118MOL   H17842532   4.945   4.716   1.416 -0.4022 -0.5671 -1.4969
  118MOL   H17942533   4.834   4.844   1.601  0.6146  0.5824 -0.7629
  118MOL   H18042534   4.712   4.773   1.505  1.4689 -0.9685 -0.0466
  118MOL   H18142535   4.759   4.952   1.481 -1.8468 -0.2134  0.2605
  118MOL   C18242536   4.659   5.021   1.008  0.3466 -0.3555  0.0196
  118MOL   C18342537   4.550   4.911   0.989 -0.2869 -0.0647 -0.0411
  118MOL   C18442538   4.599   4.807   0.885 -0.0686  0.7069 -0.1612
  118MOL   C18542539   4.540   4.664   0.910 -0.4057  0.4194 -0.3389
  118MOL   C18642540   4.596   4.564   0.809  0.0524 -0.0068  0.4032
  118MOL   C18742541   4.527   4.418   0.831  0.0284 -0.4836 -0.2647
  118MOL   H18842542   4.626   5.110   1.061  3.6644  1.8597 -1.4219
  118MOL   H18942543   4.663   5.067   0.908 -0.9738 -1.1188 -0.3892
  118MOL   H19042544   4.529   4.860   1.082  1.1987  0.2793  0.5013
  118MOL   H19142545   4.574   4.845   0.787 -0.0208  0.1214 -0.4044
  118MOL   H19242546   4.706   4.791   0.874 -0.3516 -1.6694  0.1432
  118MOL   H19342547   4.431   4.670   0.906 -0.6058 -2.4701  0.1315
  118MOL   H19442548   4.570   4.633   1.010  0.9137  0.5191 -0.6884
  118MOL   H19542549   4.702   4.545   0.823  0.2390 -0.0891 -1.0710
  118MOL   H19642550   4.577   4.600   0.708  0.9558 -1.4177 -0.2733
  118MOL   H19742551   4.436   4.408   0.772  1.4994  0.1045 -2.6850
  118MOL   H19842552   4.508   4.396   0.936  0.2250 -2.4045 -0.6269
  118MOL   H19942553   4.594   4.347   0.784  1.3232  1.5039 -1.4976
  118MOL   C20042554   4.417   4.976   0.956  0.0537 -0.2525 -0.4206
  118MOL   C20142555   4.347   5.081   1.046  0.2721  0.1333  0.1459
  118MOL   C20242556   4.374   5.231   0.995  0.2380  0.8206  0.1187
  118MOL   C20342557   4.336   5.338   1.102  0.1462 -0.1295  0.4911
  118MOL   C20442558   4.378   5.482   1.068  0.4466 -0.5755  0.0541
  118MOL   C20542559   4.379   5.572   1.182  0.3466 -0.7013  0.1509
  118MOL   H20642560   4.345   4.894   0.956 -0.8023  0.4339  2.6582
  118MOL   H20742561   4.431   5.022   0.858  1.8415 -1.0726 -0.5783
  118MOL   H20842562   4.385   5.091   1.147  0.2968 -0.9935  0.2461
  118MOL   H20942563   4.336   5.250   0.895 -1.3565 -1.0556  0.3285
  118MOL   H21042564   4.481   5.238   0.973  0.4287 -2.9381 -0.4411
  118MOL   H21142565   4.376   5.317   1.201 -3.1982  1.9039  2.3553
  118MOL   H21242566   4.228   5.330   1.115 -0.1429 -0.9516 -2.0165
  118MOL   H21342567   4.333   5.532   0.983  2.5285  1.2036 -0.0648
  118MOL   H21442568   4.485   5.463   1.060  0.9101  0.4107  3.0464
  118MOL   H21542569   4.283   5.586   1.232  0.3496 -0.8947  0.2129
  118MOL   H21642570   4.448   5.532   1.257  0.1379 -1.1826  0.0928
  118MOL   H21742571   4.429   5.665   1.157 -0.7069 -0.1104  0.2203
  118MOL   C21842572   4.192   5.051   1.057 -0.2135 -0.2617  0.6735
  118MOL   C21942573   4.159   4.940   1.166  0.3345 -0.1631  0.3179
  118MOL   C22042574   4.011   4.901   1.156 -0.0126  0.4424 -0.1892
  118MOL   C22142575   3.957   4.780   1.235 -0.4193 -0.0912  0.5212
  118MOL   C22242576   3.817   4.732   1.189 -0.1875  0.0702  0.2374
  118MOL   C22342577   3.772   4.615   1.273  0.4074  0.5270 -0.5085
  118MOL   H22442578   4.132   5.139   1.081  1.7129  1.1043  0.5882
  118MOL   H22542579   4.143   5.015   0.967  1.3605  0.0837 -0.3394
  118MOL   H22642580   4.211   4.845   1.151 -2.1388 -1.4786 -0.0942
  118MOL   H22742581   4.001   4.880   1.050 -0.3626  2.0025 -0.4804
  118MOL   H22842582   3.943   4.983   1.181 -0.0106  0.0954  1.0286
  118MOL   H22942583   3.951   4.802   1.342  0.8412 -1.5632  0.9021
  118MOL   H23042584   4.022   4.693   1.234 -0.1662  0.1045 -0.2822
  118MOL   H23142585   3.751   4.818   1.201 -0.9698 -0.5790  0.6434
  118MOL   H23242586   3.812   4.698   1.085 -0.7394 -2.3286  1.0293
  118MOL   H23342587   3.666   4.600   1.251  0.2269  1.1389 -0.0642
  118MOL   H23442588   3.776   4.631   1.380  0.5563 -1.9864 -0.1082
  118MOL   H23542589   3.828   4.528   1.238  0.2153  0.9018 -1.7942
  118MOL   C23642590   4.190   4.981   1.315  0.4480  0.9791 -0.0849
  118MOL   C23742591   4.329   4.939   1.373  0.0171 -0.2204 -1.0397
  118MOL   C23842592   4.334   4.782   1.400 -0.2697  0.6125  0.1339
  118MOL   C23942593   4.443   4.704   1.321 -0.0488 -0.4826  0.8671
  118MOL   C24042594   4.477   4.568   1.372 -0.1230 -0.4617 -0.3514
  118MOL   C24142595   4.609   4.506   1.307  0.3078 -0.2971 -0.0525
  118MOL   H24242596   4.163   5.085   1.331 -1.4165  0.1806  2.2468
  118MOL   H24342597   4.123   4.920   1.376  0.9636  0.7587  0.2677
  118MOL   H24442598   4.406   4.951   1.296  0.1013  0.3654 -0.8624
  118MOL   H24542599   4.357   4.771   1.506  1.3608 -0.3990 -0.3057
  118MOL   H24642600   4.243   4.728   1.373 -1.3792  1.0485  2.8710
  118MOL   H24742601   4.538   4.758   1.311  0.6658 -1.7683  0.6019
  118MOL   H24842602   4.415   4.712   1.216  0.2924  1.7215  0.9262
  118MOL   H24942603   4.503   4.574   1.478 -0.6497 -1.9997 -0.1234
  118MOL   H25042604   4.393   4.504   1.342 -0.2406  1.2222 -3.9017
  118MOL   H25142605   4.694   4.574   1.300  1.3039 -1.4488  0.7371
  118MOL   H25242606   4.639   4.418   1.364  0.3633  0.4181  1.0288
  118MOL   H25342607   4.579   4.476   1.206  1.5459 -1.7375 -0.0090
  118MOL   C25442608   4.361   5.011   1.501  0.1982 -0.5182 -0.2325
  118MOL   C25542609   4.407   5.155   1.470 -0.4762  0.1662 -0.0281
  118MOL   C25642610   4.560   5.165   1.439 -0.0419 -0.2976 -0.0525
  118MOL   C25742611   4.609   5.313   1.417  0.2173 -0.0646  0.1407
  118MOL   C25842612   4.725   5.309   1.311  0.2837 -0.1332  0.2718
  118MOL   C25942613   4.805   5.439   1.307 -0.1153  0.3112 -0.0664
  118MOL   H26042614   4.439   4.962   1.558  1.5513  2.3670  0.4622
  118MOL   H26142615   4.282   5.012   1.576 -0.4158  1.1676 -0.8765
  118MOL   H26242616   4.347   5.194   1.388  0.7402  1.7277 -0.1961
  118MOL   H26342617   4.618   5.131   1.525 -0.6360  3.2271  1.8074
  118MOL   H26442618   4.592   5.097   1.359 -0.4124 -1.3438  0.6726
  118MOL   H26542619   4.524   5.376   1.391  0.6081  0.3303 -0.1931
  118MOL   H26642620   4.648   5.357   1.509 -0.5952  0.7474  0.0978
  118MOL   H26742621   4.674   5.272   1.222  1.6971  0.8065 -0.9385
  118MOL   H26842622   4.797   5.232   1.338 -1.2400 -2.1375 -1.2454
  118MOL   H26942623   4.860   5.462   1.398 -1.8490 -1.7609  1.5562
  118MOL   H27042624   4.736   5.519   1.282 -2.0736 -1.3256 -0.0199
  118MOL   H27142625   4.887   5.430   1.236 -1.1000  1.2061 -1.3449
  118MOL   C27242626   4.367   5.245   1.587  0.5756 -0.2910 -0.3424
  118MOL   C27342627   4.232   5.317   1.561  0.4757 -0.2583 -0.0389
  118MOL   C27442628   4.216   5.426   1.663  0.1100 -0.3357 -0.2579
  118MOL   C27542629   4.308   5.539   1.636 -0.0811  0.2572 -0.2712
  118MOL   C27642630   4.269   5.661   1.733  0.1714  0.1726  0.0683
  118MOL   C27742631   4.294   5.626   1.882 -0.1207  0.1309  0.0450
  118MOL   H27842632   4.364   5.179   1.674  3.4943 -1.3787 -1.0137
  118MOL   H27942633   4.440   5.318   1.620 -0.5713  0.9552 -0.4973
  118MOL   H28042634   4.232   5.361   1.462  0.4626 -1.0601 -0.3917
  118MOL   H28142635   4.229   5.376   1.758  1.4355 -0.0422 -0.2699
  118MOL   H28242636   4.119   5.474   1.656 -0.6246 -1.6837  0.7019
  118MOL   H28342637   4.296   5.575   1.533 -1.7305  1.9412  0.4766
  118MOL   H28442638   4.414   5.522   1.656 -0.3521  1.0418  2.0060
  118MOL   H28542639   4.328   5.747   1.701 -1.3213  1.6536  1.2218
  118MOL   H28642640   4.167   5.691   1.709 -0.2872 -1.8387 -0.6209
  118MOL   H28742641   4.400   5.604   1.886  0.2608  1.9311  0.3787
  118MOL   H28842642   4.264   5.706   1.950 -2.1998 -0.7304  0.1928
  118MOL   H28942643   4.233   5.541   1.914 -0.7672  1.4118  2.3043
  118MOL   C29042644   4.100   5.222   1.569 -0.0095  0.1658  0.5986
  118MOL   C29142645   3.966   5.279   1.501  0.2244 -0.4051 -0.2045
  118MOL   C29242646   3.980   5.285   1.347  0.4993  0.0795  0.5127
  118MOL   C29342647   3.891   5.389   1.276  0.4993  0.1935  0.2414
  118MOL   C29442648   3.903   5.391   1.122 -0.3740 -0.4735  1.2472
  118MOL   C29542649   3.799   5.490   1.063  0.2942 -0.2795  0.5659
  118MOL   H29642650   4.088   5.202   1.676 -2.4055  4.8467  1.3540
  118MOL   H29742651   4.122   5.132   1.511  0.7354  1.4926 -1.2303
  118MOL   H29842652   3.965   5.385   1.526 -0.5945 -0.0658 -1.5578
  118MOL   H29942653   3.955   5.186   1.310 -1.4486  1.5667 -2.3779
  118MOL   H30042654   4.082   5.302   1.312  0.3670  1.2826  0.7021
  118MOL   H30142655   3.786   5.380   1.303 -0.0594 -0.1099 -1.8896
  118MOL   H30242656   3.921   5.489   1.306  0.1964  0.3447  0.0503
  118MOL   H30342657   3.895   5.294   1.074 -2.4038  0.5221 -0.4849
  118MOL   H30442658   4.001   5.426   1.088 -1.4626  1.5629  0.0866
  118MOL   H30542659   3.801   5.472   0.956  1.5830  0.8278  0.3800
  118MOL   H30642660   3.822   5.592   1.095  0.7534  0.1145 -0.9791
  118MOL   H30742661   3.697   5.453   1.076  0.2536  0.1206  1.4175
  118MOL   C30842662   3.838   5.215   1.550  0.2602 -0.0651  0.4134
  118MOL   C30942663   3.808   5.222   1.701  0.0800  0.4086  0.6036
  118MOL   C31042664   3.683   5.131   1.734  0.2743  0.1831  0.3984
  118MOL   C31142665   3.553   5.176   1.692 -0.0211  1.0105 -0.3476
  118MOL   C31242666   3.434   5.092   1.748 -0.2692  0.3928 -0.5071
  118MOL   C31342667   3.388   5.140   1.882 -0.4236  0.1153 -0.6236
  118MOL   H31442668   3.759   5.275   1.505 -0.6943 -0.3662  1.6487
  118MOL   H31542669   3.834   5.113   1.511 -1.8318  1.0689 -2.5012
  118MOL   H31642670   3.890   5.165   1.744  0.7092  0.8003 -0.0777
  118MOL   H31742671   3.687   5.106   1.840  0.9664  1.5158  0.7030
  118MOL   H31842672   3.700   5.031   1.694 -1.8951  0.1693 -0.5726
  118MOL   H31942673   3.544   5.164   1.584  0.8649 -0.9937 -0.2285
  118MOL   H32042674   3.536   5.280   1.716  0.9995  0.4177  3.1467
  118MOL   H32142675   3.354   5.094   1.674  0.2231 -0.7630 -1.0809
  118MOL   H32242676   3.473   4.990   1.754  1.0457  0.8386 -1.3102
  118MOL   H32342677   3.347   5.241   1.874 -0.5963 -0.0016 -1.2204
  118MOL   H32442678   3.473   5.131   1.950  1.0863 -0.0323 -2.5123
  118MOL   H32542679   3.311   5.077   1.925  0.3214 -0.6553 -0.4111
  118MOL   C32642680   3.802   5.364   1.758 -0.1250 -0.0351  0.0708
  118MOL   C32742681   3.803   5.369   1.911 -0.4271  0.3108 -0.0837
  118MOL   C32842682   3.943   5.330   1.970  0.8149  1.4485 -0.7858
  118MOL   C32942683   3.937   5.311   2.128  0.3073  0.2761 -0.6605
  118MOL   C33042684   4.078   5.264   2.183  0.1709 -0.3256 -0.3912
  118MOL   C33142685   4.175   5.385   2.207 -0.0317  0.2811  0.2931
  118MOL   H33242686   3.708   5.410   1.727  0.3260  0.5890 -0.3816
  118MOL   H33342687   3.878   5.435   1.723 -2.0432  1.5260 -1.0325
  118MOL   H33442688   3.731   5.297   1.948  0.1857  0.0083  0.5169
  118MOL   H33542689   3.975   5.241   1.915  0.6719  2.2312 -2.1800
  118MOL   H33642690   4.011   5.414   1.957 -1.8348  3.7038 -0.5359
  118MOL   H33742691   3.868   5.235   2.167 -0.6227  1.4126 -0.0772
  118MOL   H33842692   3.906   5.406   2.172  1.0212 -0.6018  1.8537
  118MOL   H33942693   4.061   5.210   2.276  0.6229  1.3404  0.6792
  118MOL   H34042694   4.121   5.190   2.115  1.1334 -0.6138  0.5241
  118MOL   H34142695   4.278   5.349   2.216  0.2510  0.7721 -0.9716
  118MOL   H34242696   4.156   5.435   2.302 -0.2229  2.5445 -0.9154
  118MOL   H34342697   4.172   5.459   2.128 -1.7344 -0.8680 -0.7366
  118MOL   C34442698   3.762   5.505   1.960 -0.0358 -0.2080 -0.2790
  118MOL   C34542699   3.851   5.623   1.922  0.0816  0.6344  0.0021
  118MOL   C34642700   3.783   5.748   1.954 -0.1609  0.0037 -0.4680
  118MOL   C34742701   3.871   5.872   1.952 -0.0512 -0.6198  0.7322
  118MOL   C34842702   3.797   6.010   1.951  0.1729 -0.3181 -0.2048
  118MOL   C34942703   3.727   6.040   1.815  1.2836 -0.3346  0.0443
  118MOL   H35042704   3.660   5.518   1.923 -0.9475  3.3332  3.1376
  118MOL   H35142705   3.748   5.506   2.068  0.5562 -0.4717 -0.2002
  118MOL   H35242706   3.873   5.625   1.815 -1.0738 -2.0101 -0.3259
  118MOL   H35342707   3.711   5.758   1.872  0.0485 -1.4577 -0.8387
  118MOL   H35442708   3.723   5.749   2.045  1.5704 -1.1028  0.6932
  118MOL   H35542709   3.925   5.872   2.047  1.4578 -3.6446 -0.0696
  118MOL   H35642710   3.949   5.862   1.877  0.2894 -0.0540  1.0025
  118MOL   H35742711   3.729   6.024   2.035  0.1327 -0.6438 -0.1828
  118MOL   H35842712   3.880   6.080   1.964 -1.8553  2.1387 -0.2054
  118MOL   H35942713   3.785   6.031   1.723  2.2921  1.9780  0.4189
  118MOL   H36042714   3.640   5.976   1.805  1.6049 -0.4337 -2.2665
  118MOL   H36142715   3.686   6.140   1.799  0.7905 -0.7717 -1.5321
  118MOL   H36242716   3.945   5.623   1.977  0.4283 -1.1583 -0.5459
  119MOL     C142717   2.001   6.881   7.562  0.2540  0.1519 -0.6071
  119MOL     C242718   1.940   7.000   7.625  0.0255  0.3157 -0.1028
  119MOL     C342719   1.816   7.059   7.555  0.3800  0.3940  0.3118
  119MOL     C442720   1.705   6.955   7.506  0.6070  0.0077 -0.4787
  119MOL     C542721   1.570   7.018   7.452 -0.1752  1.2496  0.0673
  119MOL     C642722   1.483   6.910   7.380  0.2499  0.5539  0.4534
  119MOL     H742723   2.074   6.833   7.627  1.2516 -1.4103 -2.8035
  119MOL     H842724   1.928   6.801   7.553  0.9630 -0.4317 -1.2909
  119MOL     H942725   1.900   6.973   7.722 -1.4404  1.2313 -0.4317
  119MOL    H1042726   1.838   7.123   7.469 -1.3577  1.4031  0.5938
  119MOL    H1142727   1.764   7.123   7.626  1.2455 -0.3846  1.6733
  119MOL    H1242728   1.691   6.871   7.574 -0.2641 -0.0696 -0.7388
  119MOL    H1342729   1.746   6.904   7.419  2.3676  2.3827 -1.1021
  119MOL    H1442730   1.507   7.038   7.538 -0.8177  1.4587 -0.4441
  119MOL    H1542731   1.588   7.105   7.389 -0.1299  1.4179  0.3119
  119MOL    H1642732   1.520   6.856   7.293 -1.2831 -0.9802  0.7238
  119MOL    H1742733   1.385   6.953   7.365 -0.4303 -1.2075 -0.3329
  119MOL    H1842734   1.465   6.839   7.462  1.1835  1.7723  1.7323
  119MOL    H1942735   2.039   6.906   7.463  1.2091  1.9756  0.1994
  119MOL    C2042736   2.044   7.117   7.647 -0.3963  0.4791 -0.6351
  119MOL    C2142737   2.021   7.209   0.046 -0.6578  0.3086 -1.1702
  119MOL    C2242738   2.075   7.140   0.176 -0.2030  1.1250  0.4888
  119MOL    C2342739   2.228   7.141   0.196 -0.2384  0.3604  0.0267
  119MOL    C2442740   2.266   7.056   0.315  0.2467  0.3050 -0.1029
  119MOL    C2542741   2.416   7.068   0.334  0.1875  0.0011 -0.3104
  119MOL    H2642742   2.062   7.183   7.562  1.6072  1.5897  0.6066
  119MOL    H2742743   2.143   7.078   7.671  0.3703  1.9136 -1.3746
  119MOL    H2842744   1.913   7.207   0.064 -0.8869 -0.4940 -2.5350
  119MOL    H2942745   2.037   7.037   0.173 -1.6584  1.6779 -0.4745
  119MOL    H3042746   2.027   7.181   0.265 -2.5896 -0.9894  0.2435
  119MOL    H3142747   2.267   7.242   0.207  0.1624  0.3220 -0.9754
  119MOL    H3242748   2.281   7.109   0.106 -0.1580 -0.5770  0.4005
  119MOL    H3342749   2.213   7.072   0.409 -0.0072 -1.3893  0.0591
  119MOL    H3442750   2.245   6.956   0.277  0.0538  0.5654 -0.6826
  119MOL    H3542751   2.478   7.086   0.247  1.5984  1.2699  0.9307
  119MOL    H3642752   2.435   7.157   0.395 -2.3621  0.2977  0.1266
  119MOL    H3742753   2.456   6.980   0.385  0.0548 -0.7027 -1.4051
  119MOL    C3842754   2.076   7.355   0.012 -0.0649 -0.4260  0.3962
  119MOL    C3942755   1.971   7.469   7.726 -0.4657  0.1524 -0.0611
  119MOL    C4042756   1.885   7.470   7.599  0.1142  0.0956  0.7183
  119MOL    C4142757   1.974   7.497   7.473 -0.3734 -0.1696 -0.4360
  119MOL    C4242758   1.882   7.522   7.349  0.3740  0.0526 -0.8581
  119MOL    C4342759   1.961   7.609   7.238  0.6055  0.1550 -0.0792
  119MOL    H4442760   2.142   7.360   7.652 -1.5568  2.4320 -0.6108
  119MOL    H4542761   2.142   7.383   0.095  2.6954 -0.2787 -1.7639
  119MOL    H4642762   2.032   7.560   7.723  0.8260 -0.6884  0.2247
  119MOL    H4742763   1.842   7.371   7.595 -1.7621  0.8244  2.1374
  119MOL    H4842764   1.791   7.526   7.593  0.5697  0.8162  0.2116
  119MOL    H4942765   2.025   7.592   7.488  2.6368 -2.1936  3.0519
  119MOL    H5042766   2.047   7.418   7.457  0.1693  0.0170  1.0205
  119MOL    H5142767   1.867   7.423   7.307  0.7593  0.5801 -2.2639
  119MOL    H5242768   1.790   7.571   7.380  1.8239  2.2598  0.1248
  119MOL    H5342769   1.894   7.638   7.157 -0.3758 -2.2564 -0.1887
  119MOL    H5442770   2.048   7.556   7.199  1.1883  1.5652 -0.7109
  119MOL    H5542771   2.002   7.703   7.274  0.1585  0.3251 -0.0132
  119MOL    C5642772   1.895   7.481   0.138  0.2153 -0.3909  0.5437
  119MOL    C5742773   1.777   7.585   0.141 -0.6333 -0.1736  0.5602
  119MOL    C5842774   1.830   7.720   0.089 -0.0466 -0.3124  0.0435
  119MOL    C5942775   1.735   0.112   0.078  0.4827 -0.2370 -0.2040
  119MOL    C6042776   1.793   0.215   7.709 -0.6422  0.2676 -0.1005
  119MOL    C6142777   1.706   0.343   7.697 -0.0492  0.3535 -0.4909
  119MOL    H6242778   1.854   7.382   0.160 -0.9070 -0.4266 -1.5860
  119MOL    H6342779   1.976   7.511   0.204  0.7351  1.6012 -0.9578
  119MOL    H6442780   1.699   7.541   0.080  0.2358 -0.1524 -0.5771
  119MOL    H6542781   1.917   0.027   0.146 -1.1792  1.6701  0.6378
  119MOL    H6642782   1.861   7.706   7.712 -3.1343  1.4917 -1.1853
  119MOL    H6742783   1.732   0.148   0.181 -3.7264 -2.7828  0.6844
  119MOL    H6842784   1.633   0.081   0.057 -0.0756  1.2821  0.2386
  119MOL    H6942785   1.893   0.251   0.006  0.2642 -1.5595 -1.0409
  119MOL    H7042786   1.818   0.181   7.608 -0.6960 -0.4725  0.1350
  119MOL    H7142787   1.763   0.411   7.634 -2.2777 -0.4833 -3.5632
  119MOL    H7242788   1.611   0.326   7.645 -0.8621 -0.3143  1.1726
  119MOL    H7342789   1.690   0.394   0.065 -1.2738 -2.3780  0.8395
  119MOL    C7442790   1.732   7.605   0.291 -0.5160 -0.5486  0.1628
  119MOL    C7542791   1.690   7.473   0.359 -0.1295 -0.1610  1.1921
  119MOL    C7642792   1.688   7.482   0.511  0.6377 -0.6469 -0.2815
  119MOL    C7742793   1.788   7.403   0.590 -0.4491 -0.2711  0.1394
  119MOL    C7842794   1.780   7.418   0.742 -0.0162  0.3834 -0.5041
  119MOL    C7942795   1.904   7.364   0.806  0.0359 -0.4198  0.2275
  119MOL    H8042796   1.805   7.653   0.356  1.2081 -2.1441 -0.5315
  119MOL    H8142797   1.649   7.675   0.292 -0.4672 -0.5063  1.9500
  119MOL    H8242798   1.757   7.389   0.341 -1.2413 -0.7967 -0.0647
  119MOL    H8342799   1.685   7.585   0.546  2.0312 -0.7038  0.0378
  119MOL    H8442800   1.594   7.435   0.540 -0.8723  2.7714  0.5888
  119MOL    H8542801   1.768   7.299   0.564  1.6444 -0.4635 -0.7826
  119MOL    H8642802   1.889   7.431   0.562  0.8825 -0.8672  4.0652
  119MOL    H8742803   1.685   7.371   0.768  1.3429 -2.0508  0.1930
  119MOL    H8842804   1.776   7.524   0.764  2.3861  0.4677 -0.3308
  119MOL    H8942805   1.995   7.403   0.762  1.3425 -1.7631  1.6856
  119MOL    H9042806   1.911   7.398   0.909  1.3982 -1.3677  0.4476
  119MOL    H9142807   1.908   7.255   0.813 -1.1092 -0.4206  0.9038
  119MOL    C9242808   1.554   7.426   0.298 -0.6529 -0.3352 -0.3301
  119MOL    C9342809   1.485   7.298   0.365 -0.3340  0.0837 -0.6681
  119MOL    C9442810   1.354   7.329   0.445 -0.0740  0.1147 -0.1278
  119MOL    C9542811   1.318   7.221   0.553 -0.5650 -0.4829 -0.1269
  119MOL    C9642812   1.425   7.211   0.664 -0.1990 -0.9529  0.1167
  119MOL    C9742813   1.385   7.114   0.771  0.2579 -0.9115  0.9238
  119MOL    H9842814   1.483   7.509   0.295  0.9217  1.0551  0.4732
  119MOL    H9942815   1.578   7.406   0.193 -2.3114 -0.5779 -0.6724
  119MOL   H10042816   1.564   7.267   0.434  0.4151  1.2599 -0.9828
  119MOL   H10142817   1.263   7.345   0.387 -0.7751  2.7042  1.5854
  119MOL   H10242818   1.378   7.425   0.490  1.0648  0.0933 -0.6645
  119MOL   H10342819   1.223   7.239   0.602  0.0321 -2.7728  2.0193
  119MOL   H10442820   1.305   7.121   0.512  2.6695 -0.2630 -1.8936
  119MOL   H10542821   1.520   7.173   0.630 -0.2167 -1.6408  0.8159
  119MOL   H10642822   1.432   7.312   0.706 -0.8076 -2.0557  3.0300
  119MOL   H10742823   1.454   7.113   0.856  0.6494 -1.3050  0.6033
  119MOL   H10842824   1.290   7.139   0.817 -0.3847 -2.3563  0.4048
  119MOL   H10942825   1.365   7.015   0.731 -2.3950 -0.0785  0.0701
  119MOL   C11042826   1.476   7.181   0.259  0.3534  0.2936 -0.2969
  119MOL   C11142827   1.548   7.045   0.286  0.3364  0.0111  0.3791
  119MOL   C11242828   1.696   7.071   0.305 -0.5218 -0.2647 -0.3094
  119MOL   C11342829   1.746   7.003   0.439 -0.4936 -0.0423 -0.0890
  119MOL   C11442830   1.896   7.042   0.480  0.1699 -0.2525 -0.0857
  119MOL   C11542831   1.937   6.977   0.614 -0.0234  0.4670  0.6700
  119MOL   H11642832   1.370   7.160   0.244  0.0430  0.7403  1.2575
  119MOL   H11742833   1.516   7.208   0.161 -0.3870  0.4281 -0.5613
  119MOL   H11842834   1.507   7.006   0.380  1.8605 -0.2837  0.9260
  119MOL   H11942835   1.716   7.177   0.322  0.0759 -0.1647 -1.5126
  119MOL   H12042836   1.755   7.027   0.224 -1.8784 -3.9519  0.6057
  119MOL   H12142837   1.729   6.896   0.429  2.3204 -0.7446  1.7508
  119MOL   H12242838   1.678   7.043   0.514 -0.0732  2.6603 -1.1027
  119MOL   H12342839   1.917   7.148   0.470  2.2151 -0.8190 -2.1818
  119MOL   H12442840   1.965   6.992   0.411 -3.0296 -1.6790 -2.3967
  119MOL   H12542841   2.041   7.002   0.634  0.0611  0.7160 -0.0724
  119MOL   H12642842   1.886   7.028   0.696 -0.3577 -1.6651  1.8412
  119MOL   H12742843   1.922   6.869   0.619  0.3556  0.3846  0.0559
  119MOL   C12842844   1.527   6.938   0.183  0.1768  0.1452 -0.1941
  119MOL   C12942845   1.384   6.895   0.175 -0.1772 -0.4821  0.3703
  119MOL   C13042846   1.378   6.737   0.183  0.2321 -0.4230 -0.3075
  119MOL   C13142847   1.466   6.652   0.084 -0.6214  0.4129 -0.5510
  119MOL   C13242848   1.427   6.503   0.097  0.0490  0.4446  0.2691
  119MOL   C13342849   1.437   6.447   0.240  0.5138 -0.1917  0.1097
  119MOL   H13442850   1.589   6.857   0.221  1.6268  0.8365 -1.0639
  119MOL   H13542851   1.562   6.974   0.087 -2.6407  3.9666  0.0845
  119MOL   H13642852   1.328   6.927   0.264  0.5479 -0.3475  0.7824
  119MOL   H13742853   1.411   6.714   0.284 -1.3013 -2.4982 -0.2684
  119MOL   H13842854   1.277   6.697   0.177 -0.4425  1.4428 -2.1588
  119MOL   H13942855   1.572   6.642   0.107  0.2345  0.8866 -3.9730
  119MOL   H14042856   1.464   6.689   7.708  2.3325 -1.4212 -1.3258
  119MOL   H14142857   1.324   6.490   0.064 -0.4087 -0.9963  2.1734
  119MOL   H14242858   1.484   6.444   0.026 -1.4931 -0.8504  0.0842
  119MOL   H14342859   1.355   6.476   0.306  0.4525 -0.3896  0.1223
  119MOL   H14442860   1.539   6.461   0.277  0.5101 -3.1412  1.4124
  119MOL   H14542861   1.431   6.340   0.222  1.2874 -0.1303 -0.5167
  119MOL   C14642862   1.308   6.953   0.054 -0.3247 -0.4145 -0.1101
  119MOL   C14742863   1.155   6.936   0.045  0.0450  0.3132  0.3123
  119MOL   C14842864   1.102   6.974   7.634 -0.3616  0.0968  0.6643
  119MOL   C14942865   1.129   6.860   7.521 -0.1484  0.7632 -0.4560
  119MOL   C15042866   1.078   6.908   7.379 -0.4932 -0.2289  0.6703
  119MOL   C15142867   1.120   6.804   7.274  0.4179  0.5358  0.5431
  119MOL   H15242868   1.324   7.056   0.024 -1.2731 -0.3699 -0.4802
  119MOL   H15342869   1.354   6.896   7.700 -1.8409 -1.1760 -0.4605
  119MOL   H15442870   1.133   6.831   0.063 -3.3790  1.2116  1.7563
  119MOL   H15542871   1.140   7.074   7.613 -3.5255  1.4111  0.9368
  119MOL   H15642872   0.993   6.982   7.625 -0.1442  1.2905 -1.1776
  119MOL   H15742873   1.238   6.850   7.518 -0.1210 -0.0565  2.2974
  119MOL   H15842874   1.073   6.770   7.543  1.3702 -0.2966 -0.8271
  119MOL   H15942875   1.122   7.002   7.344  0.3624 -1.1115 -0.6714
  119MOL   H16042876   0.971   6.922   7.398 -0.5693 -1.3421  1.0780
  119MOL   H16142877   1.228   6.794   7.276  0.7718  2.2443 -3.6771
  119MOL   H16242878   1.063   6.712   7.288 -0.0656  0.3923 -2.0593
  119MOL   H16342879   1.096   6.844   7.175  3.0984  0.2119 -0.2667
  119MOL   C16442880   1.084   7.021   0.151  0.5188  0.6142  0.1339
  119MOL   C16542881   1.016   6.933   0.259 -0.7340  0.1859  1.0894
  119MOL   C16642882   0.993   7.012   0.384 -0.2407 -0.1530 -0.1855
  119MOL   C16742883   0.912   7.141   0.369 -0.0703 -0.1010  0.1183
  119MOL   C16842884   0.891   7.226   0.497  0.4058 -0.1049 -0.2562
  119MOL   C16942885   0.752   7.290   0.513 -0.0172 -0.2509  0.3415
  119MOL   H17042886   1.154   7.097   0.184 -1.2444  2.6277 -0.6074
  119MOL   H17142887   1.010   7.090   0.108  0.9642 -0.2855 -2.1757
  119MOL   H17242888   1.090   6.862   0.296  1.5564  2.3845  0.8755
  119MOL   H17342889   1.094   7.026   0.423 -0.8689 -0.0983  1.4396
  119MOL   H17442890   0.943   6.954   0.461  0.3306 -0.4263 -0.0165
  119MOL   H17542891   0.810   7.104   0.351 -0.0063 -0.0592 -0.3326
  119MOL   H17642892   0.934   7.203   0.282  1.3086 -1.8263 -0.7881
  119MOL   H17742893   0.975   7.293   0.516  2.1022 -2.2418 -0.0401
  119MOL   H17842894   0.912   7.156   0.578  1.7646 -2.3730 -2.5361
  119MOL   H17942895   0.747   7.331   0.614 -0.6742 -1.5487  0.8511
  119MOL   H18042896   0.665   7.225   0.518 -0.5089  0.3164 -0.7845
  119MOL   H18142897   0.730   7.364   0.436  0.6296  1.4858  1.7889
  119MOL   C18242898   0.887   6.864   0.212 -0.3980 -0.3899  0.2222
  119MOL   C18342899   0.819   6.758   0.299 -0.0729 -0.0504 -0.0723
  119MOL   C18442900   0.860   6.612   0.256  0.1997 -0.1322 -0.0432
  119MOL   C18542901   0.813   6.507   0.360  0.5590  0.3717 -0.0148
  119MOL   C18642902   0.874   6.366   0.336  0.0010  0.3440 -1.0015
  119MOL   C18742903   0.807   6.254   0.416  0.1158  0.7213 -0.5988
  119MOL   H18842904   0.828   6.949   0.178 -0.1048  0.4160  1.7167
  119MOL   H18942905   0.900   6.820   0.113 -0.2173 -2.4726  1.1387
  119MOL   H19042906   0.851   6.765   0.403 -2.0215  1.4607  0.4596
  119MOL   H19142907   0.827   6.600   0.153 -1.3687  1.6401  0.2337
  119MOL   H19242908   0.968   6.607   0.250  0.0763 -0.8979 -1.7700
  119MOL   H19342909   0.704   6.499   0.358  0.5777  0.2358 -2.2640
  119MOL   H19442910   0.838   6.546   0.458  0.8705 -0.1936  0.1332
  119MOL   H19542911   0.981   6.369   0.360  0.1044  2.1986 -1.5740
  119MOL   H19642912   0.846   6.332   0.236  3.2949 -0.7908 -1.6159
  119MOL   H19742913   0.877   6.173   0.438  2.1458  2.8702  1.1780
  119MOL   H19842914   0.716   6.223   0.364 -0.9480  1.6479  0.6718
  119MOL   H19942915   0.771   6.282   0.515  0.9837  0.2783 -0.1536
  119MOL   C20042916   0.667   6.776   0.292 -0.0176 -0.2079  0.9313
  119MOL   C20142917   0.595   6.754   0.427  0.6993 -0.0066  0.3168
  119MOL   C20242918   0.617   6.873   0.516 -0.2295  0.3389 -0.6760
  119MOL   C20342919   0.692   6.842   0.648  0.1491 -1.4020 -0.7809
  119MOL   C20442920   0.708   6.957   0.741 -0.0895 -0.2698  0.0607
  119MOL   C20542921   0.573   7.001   0.804 -0.5864  0.4653 -0.0949
  119MOL   H20642922   0.620   6.708   0.220  2.3265 -1.6581  0.7361
  119MOL   H20742923   0.642   6.873   0.250 -1.6884 -0.7608  0.5863
  119MOL   H20842924   0.635   6.671   0.485 -1.3510 -1.8951 -0.9040
  119MOL   H20942925   0.520   6.921   0.529  0.2613  1.1490  0.1065
  119MOL   H21042926   0.675   6.949   0.463  3.3652 -1.6424  0.2334
  119MOL   H21142927   0.798   6.823   0.635  0.4987 -0.2087  0.2105
  119MOL   H21242928   0.655   6.755   0.703  0.5350 -1.0372  0.0681
  119MOL   H21342929   0.746   7.046   0.690  1.2778 -1.1116 -0.4123
  119MOL   H21442930   0.776   6.933   0.823 -1.6853 -1.9180  0.9258
  119MOL   H21542931   0.504   7.011   0.721  0.9980 -1.8507 -1.7572
  119MOL   H21642932   0.537   6.919   0.868 -0.2390  1.2342  1.1086
  119MOL   H21742933   0.585   7.088   0.869 -0.5833  0.2413  0.2095
  119MOL   C21842934   0.441   6.726   0.418  0.5979 -0.5850  0.3941
  119MOL   C21942935   0.360   6.678   0.548 -0.2606  0.1148 -0.1612
  119MOL   C22042936   0.399   6.531   0.589  0.1478 -0.1131  0.9353
  119MOL   C22142937   0.396   6.425   0.470 -1.3549  0.3519  0.3633
  119MOL   C22242938   0.451   6.280   0.501  0.0855 -0.0517 -0.1356
  119MOL   C22342939   0.454   6.176   0.382  0.4214 -0.1157  0.7436
  119MOL   H22442940   0.396   6.817   0.379  1.6356 -0.9262 -1.6903
  119MOL   H22542941   0.427   6.659   0.333  1.2131  0.5358 -0.6101
  119MOL   H22642942   0.376   6.746   0.633  3.4651 -0.1043 -0.6113
  119MOL   H22742943   0.335   6.491   0.668 -0.5910 -0.4549  0.1738
  119MOL   H22842944   0.501   6.528   0.630 -0.1040  0.8148  1.6496
  119MOL   H22942945   0.459   6.464   0.390 -0.1139 -0.2935  1.0134
  119MOL   H23042946   0.299   6.411   0.421 -0.2778  2.4974 -2.5799
  119MOL   H23142947   0.548   6.293   0.549  0.1173 -0.8091  0.0259
  119MOL   H23242948   0.393   6.235   0.582  1.3997  0.5154  1.1319
  119MOL   H23342949   0.503   6.227   0.299 -0.1872  0.0928  0.5141
  119MOL   H23442950   0.353   6.153   0.349  1.6336 -0.3313 -3.1426
  119MOL   H23542951   0.507   6.084   0.409 -1.6635 -1.1442  1.4012
  119MOL   C23642952   0.214   6.691   0.518  0.0935 -0.5254  0.0833
  119MOL   C23742953   0.148   6.829   0.510  0.0981  0.2534  0.2236
  119MOL   C23842954   0.187   6.933   0.613  0.6576 -0.0682 -0.1436
  119MOL   C23942955   0.155   6.907   0.759  0.4129 -0.6810  0.0617
  119MOL   C24042956   0.199   7.023   0.856  0.5660  0.4008  0.1260
  119MOL   C24142957   0.103   7.140   0.866  0.3132  0.0929 -0.0941
  119MOL   H24242958   0.201   6.637   0.424  1.8293 -0.0422 -0.4570
  119MOL   H24342959   0.154   6.634   0.589  1.9151 -1.9235  0.5350
  119MOL   H24442960   0.187   6.883   0.423  0.2750  0.9007  0.6973
  119MOL   H24542961   0.293   6.960   0.604  0.7861 -0.3362  0.5610
  119MOL   H24642962   0.142   7.031   0.594  0.5332 -0.4992 -2.2143
  119MOL   H24742963   0.198   6.809   0.780  0.5933 -0.8470 -1.0076
  119MOL   H24842964   0.047   6.897   0.760  0.1041  2.1377  0.1060
  119MOL   H24942965   0.210   6.983   0.957  2.3946  0.3326 -0.0892
  119MOL   H25042966   0.295   7.062   0.822  0.3909 -1.5711 -2.9079
  119MOL   H25142967   0.166   7.229   0.877  1.1233 -0.4499 -0.3294
  119MOL   H25242968   0.039   7.164   0.781 -3.6145 -0.8338  2.5027
  119MOL   H25342969   0.041   7.129   0.955  0.9074 -1.2099  0.1731
  119MOL   C25442970   7.722   6.827   0.504 -0.2745 -0.1055 -0.0419
  119MOL   C25542971   7.659   6.773   0.376 -0.3663 -0.7101  0.1692
  119MOL   C25642972   7.699   6.859   0.253  0.7359  0.2936  0.3899
  119MOL   C25742973   0.062   6.784   0.156 -0.2779  1.0328  0.5675
  119MOL   C25842974   0.050   6.842   0.010  0.1780 -0.3573  0.1176
  119MOL   C25942975   0.144   6.958   7.722  0.9260 -0.2500  0.5117
  119MOL   H26042976   7.676   6.926   0.507 -0.7872 -0.3030 -1.0204
  119MOL   H26142977   7.684   6.767   0.587 -0.1636 -0.5516 -0.3100
  119MOL   H26242978   7.706   6.676   0.357  1.8619  0.7421 -1.9864
  119MOL   H26342979   7.614   6.891   0.192  0.2385 -1.0871  0.3309
  119MOL   H26442980   0.022   6.951   0.283  1.4603  0.1120 -0.2414
  119MOL   H26542981   0.165   6.767   0.187 -0.3772  0.1493  0.4313
  119MOL   H26642982   0.019   6.684   0.143 -3.3987  2.6899 -2.6900
  119MOL   H26742983   7.675   6.872   7.716  0.1229 -0.8932 -0.4004
  119MOL   H26842984   0.063   6.769   7.656 -1.1209  0.9067 -1.2731
  119MOL   H26942985   0.124   7.022   0.080 -1.4701 -0.1247 -0.1283
  119MOL   H27042986   0.119   7.018   7.635 -1.0939 -1.9639 -0.1372
  119MOL   H27142987   0.248   6.923   7.717  0.4011 -1.6699 -1.0615
  119MOL   C27242988   7.507   6.760   0.400  0.6881  0.1293 -0.0064
  119MOL   C27342989   7.423   6.669   0.304  0.1079  0.4540 -0.0408
  119MOL   C27442990   7.485   6.539   0.262 -0.6194  0.8778  0.5661
  119MOL   C27542991   7.510   6.435   0.373 -0.7769  0.7962  0.4303
  119MOL   C27642992   7.612   6.324   0.326  0.4336  0.4335 -0.1057
  119MOL   C27742993   0.029   6.372   0.301  0.3101  0.3767  0.1154
  119MOL   H27842994   7.496   6.717   0.500  0.6959 -1.3877 -0.6456
  119MOL   H27942995   7.464   6.860   0.397  0.7396  0.0990 -2.1214
  119MOL   H28042996   7.330   6.647   0.356  0.4259  0.0702  0.3708
  119MOL   H28142997   7.584   6.566   0.227 -1.0612 -0.0161 -1.4238
  119MOL   H28242998   7.430   6.487   0.184  0.3484  1.1020 -0.2631
  119MOL   H28342999   7.417   6.393   0.413 -0.8325 -0.2517 -0.7708
  119MOL   H28443000   7.556   6.480   0.461  0.0323 -0.5924  0.7364
  119MOL   H28543001   7.601   6.257   0.411 -2.8539 -2.7363 -2.8623
  119MOL   H28643002   7.572   6.277   0.236  0.4113  1.0686 -0.4301
  119MOL   H28743003   0.071   6.413   0.392  0.0340  1.8746 -0.4211
  119MOL   H28843004   0.089   6.283   0.279  2.5085  0.7612  4.0840
  119MOL   H28943005   0.039   6.436   0.213  0.9673 -0.8319 -0.7199
  119MOL   C29043006   7.385   6.746   0.175  0.6183  0.1767  0.6993
  119MOL   C29143007   7.256   6.706   0.101  1.0006  0.4153  0.1205
  119MOL   C29243008   7.135   6.768   0.182  0.0347  0.0247 -0.1650
  119MOL   C29343009   7.003   6.694   0.177 -0.1708 -0.1450  0.1516
  119MOL   C29443010   6.885   6.769   0.245  0.6210  0.8322 -0.1260
  119MOL   C29543011   6.906   6.805   0.393 -0.3039 -0.3850  0.2071
  119MOL   H29643012   7.472   6.742   0.111  0.0959  0.1419 -0.0136
  119MOL   H29743013   7.384   6.854   0.193  0.8192  0.2874  0.0406
  119MOL   H29843014   7.239   6.598   0.096  1.2467  0.2920  1.6850
  119MOL   H29943015   7.140   6.870   0.144 -0.5843  1.2840  2.9705
  119MOL   H30043016   7.160   6.788   0.286 -0.8899  2.4029 -0.3588
  119MOL   H30143017   6.982   6.680   0.070 -2.1796  1.6292  0.2949
  119MOL   H30243018   7.019   6.601   0.232  1.5693 -0.1007 -0.2463
  119MOL   H30343019   6.798   6.703   0.242  0.9424  0.3249  1.1903
  119MOL   H30443020   6.866   6.863   0.192  0.4882 -0.0135 -1.5729
  119MOL   H30543021   7.008   6.839   0.412 -0.5459 -0.9552  2.6521
  119MOL   H30643022   6.889   6.713   0.448  1.8396  0.0760  1.7139
  119MOL   H30743023   6.835   6.876   0.435 -1.1629 -1.5245  0.7122
  119MOL   C30843024   7.261   6.744   7.677  0.3860  0.6845 -0.1959
  119MOL   C30943025   7.354   6.645   7.590  0.8437  0.5242  0.3947
  119MOL   C31043026   7.380   6.702   7.451 -0.4396  0.2841 -0.1200
  119MOL   C31143027   7.262   6.752   7.370 -0.1320  0.3044  0.0425
  119MOL   C31243028   7.310   6.813   7.240 -0.1143  0.1840 -0.0607
  119MOL   C31343029   7.322   6.693   7.140  0.1284  0.5789  0.4063
  119MOL   H31443030   7.160   6.743   7.635  0.8219 -1.3425 -1.2724
  119MOL   H31543031   7.281   6.851   7.673 -0.3898  0.9202  1.6586
  119MOL   H31643032   7.449   6.650   7.644  1.3751 -0.0973 -0.4612
  119MOL   H31743033   7.437   6.629   7.394 -1.7630  0.9057 -2.3283
  119MOL   H31843034   7.448   6.783   7.476  2.1398 -1.8612 -0.0801
  119MOL   H31943035   7.214   6.833   7.426  0.1637 -1.1005  2.4326
  119MOL   H32043036   7.176   6.687   7.358 -0.2794  0.0614  2.2047
  119MOL   H32143037   7.230   6.871   7.194  0.6886  0.5714 -0.9783
  119MOL   H32243038   7.399   6.875   7.249 -0.9576  1.3442  0.3035
  119MOL   H32343039   7.346   6.732   7.041 -1.1376 -1.6101 -0.7854
  119MOL   H32443040   7.238   6.625   7.144  0.5980 -0.0902 -0.9058
  119MOL   H32543041   7.401   6.622   7.164  0.3063  0.1766 -1.3459
  119MOL   C32643042   7.278   6.512   7.577 -0.1566 -0.1260  0.2259
  119MOL   C32743043   7.371   6.393   7.613  0.7326 -0.1258 -0.2468
  119MOL   C32843044   7.280   6.267   7.639 -0.1759 -0.5619  0.2660
  119MOL   C32943045   7.350   6.146   7.687  0.7811 -0.6126 -0.1064
  119MOL   C33043046   7.258   6.032   0.012  0.3704  0.2033 -0.4240
  119MOL   C33143047   7.161   6.081   0.124 -0.1855  0.4083  0.1720
  119MOL   H33243048   7.245   6.499   7.474  4.1427 -1.7281 -1.0714
  119MOL   H33343049   7.184   6.510   7.632 -0.5635 -0.2212 -0.4731
  119MOL   H33443050   7.417   6.413   7.709 -2.8427 -0.4113  1.6184
  119MOL   H33543051   7.200   6.299   7.706  0.6039 -1.1540  1.5075
  119MOL   H33643052   7.228   6.238   7.548 -0.9992  2.1157 -0.1641
  119MOL   H33743053   7.425   6.170   0.035 -0.0990  0.2727  0.5127
  119MOL   H33843054   7.413   6.097   7.613  2.6632 -0.7084  1.5151
  119MOL   H33943055   7.190   6.004   7.659 -1.2153 -1.2310  1.3730
  119MOL   H34043056   7.311   5.944   0.048  1.2319 -0.1790 -2.5315
  119MOL   H34143057   7.077   6.138   0.084  0.4797  0.8608 -0.5774
  119MOL   H34243058   7.216   6.149   0.189  0.4439  1.3278 -1.3086
  119MOL   H34343059   7.115   6.001   0.182  0.3744  0.5158  0.7716
  119MOL   C34443060   7.489   6.366   7.511  0.4348 -0.0750 -0.4328
  119MOL   C34543061   7.448   6.300   7.378  0.4498 -0.0886 -0.1348
  119MOL   C34643062   7.568   6.264   7.285 -0.0793 -0.4004 -0.5492
  119MOL   C34743063   7.530   6.197   7.157  0.3707  0.7324 -0.2094
  119MOL   C34843064   7.470   6.295   7.058 -0.0181 -0.1103  0.8313
  119MOL   C34943065   7.456   6.244   6.911 -0.3495 -0.2017 -0.7546
  119MOL   H35043066   7.536   6.462   7.492 -1.4904  1.1768  0.9640
  119MOL   H35143067   7.564   6.305   7.563  0.0755 -0.5655 -0.4827
  119MOL   H35243068   7.372   6.363   7.331 -1.1387 -0.3249  2.0601
  119MOL   H35343069   7.624   6.356   7.268 -2.4092  1.1927  0.2297
  119MOL   H35443070   7.641   6.202   7.337  3.2276  2.2346 -1.8469
  119MOL   H35543071   7.615   6.155   7.104 -0.0497  2.1637 -2.0917
  119MOL   H35643072   7.460   6.117   7.180  2.3722 -1.2545 -0.9146
  119MOL   H35743073   7.376   6.342   7.086 -0.5380 -0.6787  0.0769
  119MOL   H35843074   7.542   6.376   7.046 -0.0450  0.0529  1.7548
  119MOL   H35943075   7.422   6.323   6.844 -0.3991  1.7011  1.4953
  119MOL   H36043076   7.554   6.213   6.875 -0.0071  0.7424 -0.6473
  119MOL   H36143077   7.390   6.159   6.891 -0.6175 -0.7473  2.2477
  119MOL   H36243078   7.403   6.203   7.399  3.5801 -1.9981 -1.9440
  120MOL     C143079   3.807   4.224   0.950 -0.7157  0.2494 -0.3112
  120MOL     C243080   3.803   4.130   0.820 -0.5233 -0.2605 -0.1944
  120MOL     C343081   3.700   4.020   0.842 -0.6624  0.6092  0.1601
  120MOL     C443082   3.667   3.939   0.719 -0.0729  0.8195  0.0542
  120MOL     C543083   3.580   4.009   0.613 -0.0908 -0.0926 -0.1521
  120MOL     C643084   3.540   3.921   0.493 -0.0691  0.5052  0.5022
  120MOL     H743085   3.712   4.261   0.990  0.8339  0.6720  3.1014
  120MOL     H843086   3.851   4.180   1.039  0.3605  4.3556  1.3162
  120MOL     H943087   3.784   4.191   0.732 -0.1519 -2.1693 -1.6033
  120MOL    H1043088   3.605   4.065   0.872 -1.0274 -0.6971  1.0136
  120MOL    H1143089   3.735   3.959   0.925  2.7322 -0.2261 -1.8155
  120MOL    H1243090   3.607   3.859   0.763  2.1090 -0.8481  0.0649
  120MOL    H1343091   3.755   3.893   0.674 -0.9561 -1.7982  0.8635
  120MOL    H1443092   3.489   4.048   0.660 -0.3768 -1.8542  0.8150
  120MOL    H1543093   3.615   4.107   0.580 -0.5300  1.0368  2.5922
  120MOL    H1643094   3.624   3.880   0.438 -0.1969 -0.9699  1.3809
  120MOL    H1743095   3.483   3.984   0.424  0.0808  1.3949  1.1734
  120MOL    H1843096   3.498   3.834   0.543  2.3894 -0.3460  1.1344
  120MOL    H1943097   3.863   4.317   0.939  0.2991 -0.1255  1.5378
  120MOL    C2043098   3.939   4.065   0.788 -0.1323  0.3564  0.7920
  120MOL    C2143099   4.069   4.153   0.788  0.2642  0.9302 -0.6227
  120MOL    C2243100   4.200   4.072   0.773 -0.1524  0.1646  0.2089
  120MOL    C2343101   4.237   3.985   0.894 -0.1348 -0.0074 -0.5138
  120MOL    C2443102   4.370   3.909   0.882  0.2399  0.5437 -0.0966
  120MOL    C2543103   4.495   3.999   0.876 -0.1712 -0.2825 -0.4965
  120MOL    H2643104   3.933   4.020   0.689  0.0431 -0.2848  1.0730
  120MOL    H2743105   3.952   3.982   0.857  0.0614 -0.8557 -0.6862
  120MOL    H2843106   4.066   4.187   0.892 -2.4288  0.2200 -0.4213
  120MOL    H2943107   4.285   4.140   0.765 -0.0715  0.1546  0.9698
  120MOL    H3043108   4.196   4.016   0.679  0.5671 -1.0578  0.8831
  120MOL    H3143109   4.160   3.908   0.905  0.8765 -0.6860  2.1486
  120MOL    H3243110   4.230   4.040   0.987 -0.6814 -1.3032  0.2304
  120MOL    H3343111   4.366   3.838   0.964  1.9288  0.6447  0.0864
  120MOL    H3443112   4.373   3.840   0.797 -1.8946  0.5597 -0.2066
  120MOL    H3543113   4.580   3.937   0.850  0.5126 -0.1254  1.3207
  120MOL    H3643114   4.492   4.065   0.789 -0.4476  0.2580 -0.0786
  120MOL    H3743115   4.511   4.059   0.966  1.3075 -1.4821  0.0549
  120MOL    C3843116   4.066   4.276   0.691 -0.3537 -0.2808  0.3154
  120MOL    C3943117   4.071   4.265   0.537  0.3411 -0.2009 -0.8080
  120MOL    C4043118   3.932   4.252   0.476  0.2227  0.3563 -0.3178
  120MOL    C4143119   3.931   4.169   0.345 -1.1538  0.7128  0.9465
  120MOL    C4243120   3.957   4.019   0.356 -0.1121 -0.2641  0.0112
  120MOL    C4343121   3.980   3.965   0.211  0.1654  0.1191 -0.0657
  120MOL    H4443122   4.150   4.341   0.717 -1.8401  2.0170 -0.4284
  120MOL    H4543123   3.985   4.348   0.701 -1.3157 -1.3149  0.0753
  120MOL    H4643124   4.127   4.173   0.518 -0.5631 -0.6287 -1.4394
  120MOL    H4743125   3.859   4.204   0.541 -0.0519  1.2264  0.0263
  120MOL    H4843126   3.895   4.347   0.436  1.2438  1.1037  0.4954
  120MOL    H4943127   3.840   4.180   0.287 -0.2787  1.0362 -0.3905
  120MOL    H5043128   4.013   4.207   0.283 -1.3062  0.0765  0.3532
  120MOL    H5143129   4.045   3.995   0.415 -1.1527 -0.2592  1.5922
  120MOL    H5243130   3.871   3.967   0.398 -0.9339  1.8732  1.1081
  120MOL    H5343131   4.007   3.859   0.214 -1.3197 -0.2267  1.3207
  120MOL    H5443132   4.061   4.028   0.172  0.4721 -0.7496 -0.8693
  120MOL    H5543133   3.902   3.979   0.136 -0.0195  0.4193  0.1867
  120MOL    C5643134   4.136   4.391   0.472  0.0542 -0.6874 -0.1223
  120MOL    C5743135   4.293   4.377   0.459 -0.4598 -0.6771 -0.0101
  120MOL    C5843136   4.361   4.511   0.455  0.2338 -0.5596 -0.3327
  120MOL    C5943137   4.341   4.586   0.316  0.7227 -0.4029  0.1043
  120MOL    C6043138   4.418   4.717   0.308  0.7240 -0.3259 -0.5227
  120MOL    C6143139   4.571   4.710   0.277  0.0101 -0.1094  0.7683
  120MOL    H6243140   4.099   4.410   0.371  2.7864 -0.3320 -1.0932
  120MOL    H6343141   4.107   4.472   0.539 -3.2434 -0.2189 -2.0325
  120MOL    H6443142   4.318   4.342   0.559 -2.1240  0.2660  0.7668
  120MOL    H6543143   4.339   4.571   0.543 -1.0110  0.3683 -1.2673
  120MOL    H6643144   4.467   4.491   0.470  0.2355 -1.1545 -1.0991
  120MOL    H6743145   4.236   4.607   0.292  0.8113 -1.9857 -1.8491
  120MOL    H6843146   4.374   4.522   0.233  0.4279 -3.4272  2.2214
  120MOL    H6943147   4.374   4.785   0.235 -0.4422  0.4052  0.8308
  120MOL    H7043148   4.414   4.768   0.404 -0.8585 -2.5299  0.6428
  120MOL    H7143149   4.609   4.644   0.355  3.1041 -1.7745 -2.0575
  120MOL    H7243150   4.581   4.664   0.179 -0.9166  1.2077  0.0363
  120MOL    H7343151   4.624   4.805   0.274  0.3276 -0.3378 -2.0981
  120MOL    C7443152   4.338   4.273   0.347 -0.1386 -0.3185 -1.0037
  120MOL    C7543153   4.495   4.265   0.324  0.8454 -0.1534  0.0592
  120MOL    C7643154   4.573   4.222   0.453 -0.1821 -0.2606 -0.0392
  120MOL    C7743155   4.723   4.236   0.449 -0.7571 -1.1394 -0.1108
  120MOL    C7843156   4.787   4.177   0.582  0.6337 -0.0271  0.1583
  120MOL    C7943157   4.926   4.229   0.633 -0.1864 -0.6766 -0.3699
  120MOL    H8043158   4.310   4.170   0.369  1.4693 -0.5301  0.1877
  120MOL    H8143159   4.289   4.311   0.257 -0.1181 -2.9990 -2.1692
  120MOL    H8243160   4.532   4.366   0.308 -0.9866  0.8682  2.0821
  120MOL    H8343161   4.544   4.292   0.532 -3.4184 -1.6484  0.0544
  120MOL    H8443162   4.545   4.123   0.488 -1.3215  0.2875  0.6204
  120MOL    H8543163   4.765   4.179   0.366  3.2270  1.4042  0.0158
  120MOL    H8643164   4.758   4.338   0.434 -0.6455 -0.5790  3.5023
  120MOL    H8743165   4.800   4.069   0.577  0.1842 -0.1299  1.0341
  120MOL    H8843166   4.717   4.185   0.665  0.1575 -3.0933  0.1278
  120MOL    H8943167   5.004   4.231   0.557  0.5990 -2.4612  0.3730
  120MOL    H9043168   4.920   4.329   0.675 -3.6350 -0.1719 -1.8793
  120MOL    H9143169   4.964   4.165   0.712  1.1255  0.9870  0.3716
  120MOL    C9243170   4.533   4.160   0.210  0.6165  0.9840 -0.5483
  120MOL    C9343171   4.528   4.217   0.067 -1.1097 -0.1952 -0.3062
  120MOL    C9443172   4.638   4.325   0.042 -0.3535  0.0596  0.5006
  120MOL    C9543173   4.780   4.269   0.056  0.1439 -0.0636  0.6833
  120MOL    C9643174   4.885   4.377   0.097 -0.2944  0.8021 -0.7516
  120MOL    C9743175   5.021   4.313   0.139  0.1088 -0.7998 -0.0817
  120MOL    H9843176   4.627   4.106   0.218  0.3987  0.7072  0.2473
  120MOL    H9943177   4.461   4.080   0.223  0.5811  1.6890  4.8771
  120MOL   H10043178   4.429   4.260   0.052 -0.2837  1.6561 -0.5155
  120MOL   H10143179   4.610   4.408   0.107 -1.4697 -1.7980  2.4721
  120MOL   H10243180   4.630   4.363   7.668 -0.5675 -2.1112 -0.3389
  120MOL   H10343181   4.794   4.187   0.126  1.3624 -0.4931 -0.0451
  120MOL   H10443182   4.801   4.218   7.689 -0.4424 -2.3277  1.7428
  120MOL   H10543183   4.903   4.459   0.027 -1.6724  2.3890  0.6953
  120MOL   H10643184   4.845   4.425   0.187 -0.2269 -0.2783 -0.1374
  120MOL   H10743185   5.090   4.320   0.055 -0.9936  0.9715 -0.8725
  120MOL   H10843186   5.066   4.380   0.212 -2.7742  0.1825  0.8415
  120MOL   H10943187   5.015   4.207   0.167 -0.6885 -1.4287 -2.5018
  120MOL   C11043188   4.539   4.104   7.688  0.6211  0.3964  0.5132
  120MOL   C11143189   4.422   4.013   7.666 -0.4754 -0.7248 -0.5999
  120MOL   C11243190   4.454   3.901   7.554 -0.4298 -0.4402 -0.6768
  120MOL   C11343191   4.357   3.778   7.559 -0.1723 -0.9340  0.7853
  120MOL   C11443192   4.384   3.701   7.427 -0.3346 -0.0451 -0.6434
  120MOL   C11543193   4.272   3.612   7.383  0.2035 -0.1339  0.5010
  120MOL   H11643194   4.567   4.132   7.587  1.2671 -2.0322 -0.0048
  120MOL   H11743195   4.619   4.033   7.707  0.4239 -0.2264 -0.9184
  120MOL   H11843196   4.412   3.956   0.031 -0.7876  1.1220  0.5537
  120MOL   H11943197   4.553   3.856   7.561 -0.0365  0.5800  0.4344
  120MOL   H12043198   4.448   3.941   7.453 -1.6079 -1.2540 -0.9453
  120MOL   H12143199   4.255   3.800   7.592  1.1940  3.4662  2.4279
  120MOL   H12243200   4.387   3.707   7.637  1.1705  0.3201  1.4343
  120MOL   H12343201   4.473   3.640   7.443 -0.2435  0.5497  1.1882
  120MOL   H12443202   4.406   3.769   7.345 -2.0315 -1.0426 -1.9827
  120MOL   H12543203   4.250   3.536   7.459 -1.3016 -0.5720 -0.3573
  120MOL   H12643204   4.185   3.675   7.368  0.1650 -0.0104  1.2010
  120MOL   H12743205   4.284   3.557   7.290 -5.0952 -1.0342  0.1984
  120MOL   C12843206   4.280   4.080   7.643 -0.7420  0.5111 -0.3499
  120MOL   C12943207   4.247   4.153   7.506  0.0502 -0.3267 -0.6297
  120MOL   C13043208   4.325   4.284   7.491  0.0416 -0.4522 -0.2221
  120MOL   C13143209   4.280   4.407   7.577 -0.2182 -0.3795 -0.2134
  120MOL   C13243210   4.380   4.527   7.562 -0.3057 -0.1846 -1.1267
  120MOL   C13343211   4.373   4.621   7.680  0.7398  0.5454  0.6409
  120MOL   H13443212   4.252   4.145   7.726 -1.9619  2.9453 -2.5770
  120MOL   H13543213   4.203   4.004   7.655 -1.3969  1.3549  0.8910
  120MOL   H13643214   4.297   4.090   7.432  1.7987  0.1768  0.0887
  120MOL   H13743215   4.432   4.268   7.502 -0.1244 -0.8090  1.0624
  120MOL   H13843216   4.306   4.318   7.390  1.6859 -1.1733 -0.7907
  120MOL   H13943217   4.286   4.367   7.678  1.8402  0.3129 -0.0288
  120MOL   H14043218   4.177   4.430   7.552 -0.2485 -0.8672 -0.5313
  120MOL   H14143219   4.484   4.499   7.546  0.2697  0.2151  1.6506
  120MOL   H14243220   4.335   4.572   7.473  2.3420  1.9559 -1.4438
  120MOL   H14343221   4.431   4.710   7.655  1.3707  0.2949  1.1911
  120MOL   H14443222   4.423   4.573   0.037 -1.1630 -1.5096  0.6306
  120MOL   H14543223   4.271   4.643   7.712  0.6215  0.1761  0.5165
  120MOL   C14643224   4.098   4.162   7.485  0.9498  0.1435  0.7930
  120MOL   C14743225   4.011   4.043   7.471 -0.4575  0.1039  0.1784
  120MOL   C14843226   4.067   3.953   7.354 -0.0763 -0.0370 -0.0917
  120MOL   C14943227   4.065   4.016   7.217  0.0812 -0.4061  0.3335
  120MOL   C15043228   4.133   3.917   7.115  0.3010  0.1837  0.1528
  120MOL   C15143229   4.047   3.785   7.095 -0.5907 -0.5752  0.8747
  120MOL   H15243230   4.057   4.231   7.558  0.2948  1.5240 -0.8231
  120MOL   H15343231   4.100   4.212   7.388 -0.4706 -0.9051  0.1924
  120MOL   H15443232   4.018   3.975   7.556 -0.7269  0.4430  0.4704
  120MOL   H15543233   4.003   3.864   7.348 -0.7303  0.3531  1.0318
  120MOL   H15643234   4.163   3.907   7.380  0.3014  0.1080 -1.1890
  120MOL   H15743235   3.962   4.035   7.185  0.1035 -2.4790 -1.0591
  120MOL   H15843236   4.126   4.106   7.225 -1.7726  1.0198 -0.9567
  120MOL   H15943237   4.234   3.894   7.149  0.6348 -2.2536 -2.2791
  120MOL   H16043238   4.150   3.968   7.020  0.4247  0.9829  0.6027
  120MOL   H16143239   4.096   3.713   7.030 -0.9086 -0.2939  0.3192
  120MOL   H16243240   4.021   3.732   7.187  1.9429 -2.3153  0.6093
  120MOL   H16343241   3.951   3.825   7.062 -0.7289 -1.2231  0.4916
  120MOL   C16443242   3.860   4.077   7.455  0.5553  0.0810 -0.1748
  120MOL   C16543243   3.784   4.104   7.592 -0.1445 -0.1015 -0.0679
  120MOL   C16643244   3.833   4.219   7.694 -0.0473 -0.2282  0.3681
  120MOL   C16743245   3.811   4.360   7.640  0.1822 -0.8820  0.4088
  120MOL   C16843246   3.897   4.467   7.715  0.2361  0.3128  0.0028
  120MOL   C16943247   3.853   4.484   0.136  0.5698  0.4075 -0.0259
  120MOL   H17043248   3.861   4.158   7.381 -1.3851 -1.6828 -2.2234
  120MOL   H17143249   3.805   3.997   7.405 -1.4309 -0.2265  2.3967
  120MOL   H17243250   3.814   4.012   7.641 -0.4620 -0.0251  0.2761
  120MOL   H17343251   3.934   4.201   0.005 -0.4778  0.8679  2.0655
  120MOL   H17443252   3.781   4.195   0.059  0.3432 -3.2357 -0.1375
  120MOL   H17543253   3.705   4.384   7.647  0.5531  1.2772 -0.8644
  120MOL   H17643254   3.842   4.371   7.536  0.2693  0.9320  0.5977
  120MOL   H17743255   3.892   4.564   7.665 -1.4176  0.9416  1.3231
  120MOL   H17843256   4.002   4.440   7.724  0.5516  1.0685 -1.2252
  120MOL   H17943257   3.760   4.538   0.156  1.1160  1.1749  0.4838
  120MOL   H18043258   3.934   4.532   0.189  2.4594 -2.1430 -0.4964
  120MOL   H18143259   3.851   4.391   0.192 -1.5230  0.9712  0.8974
  120MOL   C18243260   3.631   4.110   7.577 -0.3884  0.4760 -0.6292
  120MOL   C18343261   3.542   4.113   7.707  0.0634  0.2118  0.4957
  120MOL   C18443262   3.576   3.993   0.066  0.2662  0.2115  0.1042
  120MOL   C18543263   3.572   3.853   7.725  0.8331 -0.2879  0.1835
  120MOL   C18643264   3.568   3.736   0.102 -0.0068  0.1751 -0.2372
  120MOL   C18743265   3.417   3.707   0.131 -0.0086  0.0432 -0.8524
  120MOL   H18843266   3.613   4.206   7.529  0.5154 -0.1709 -2.2772
  120MOL   H18943267   3.596   4.028   7.516 -3.2131  0.6113  0.7073
  120MOL   H19043268   3.552   4.205   0.039  0.0918  0.2390  0.4491
  120MOL   H19143269   3.674   4.012   0.110  0.2031  2.1245 -0.5293
  120MOL   H19243270   3.517   3.986   0.157  0.1900 -0.4559  0.0083
  120MOL   H19343271   3.649   3.830   7.652  0.0916  2.3341 -1.4918
  120MOL   H19443272   3.483   3.837   7.664  1.9143 -0.6979 -1.3047
  120MOL   H19543273   3.605   3.764   0.201 -0.3695 -1.1248  0.2708
  120MOL   H19643274   3.618   3.650   0.059  1.8343  1.4796 -0.7798
  120MOL   H19743275   3.417   3.635   0.214 -0.3523 -2.0122 -2.5913
  120MOL   H19843276   3.348   3.665   0.058  0.1942 -1.2893 -0.2931
  120MOL   H19943277   3.369   3.795   0.173  2.3466  1.4687 -1.0898
  120MOL   C20043278   3.392   4.132   7.662  0.0559  0.1745 -0.5606
  120MOL   C20143279   3.278   4.107   0.038 -0.0250  0.4151  0.0549
  120MOL   C20243280   3.271   4.214   0.148 -0.3183  0.0556 -0.3561
  120MOL   C20343281   3.205   4.154   0.280  1.0186  0.3754  0.0353
  120MOL   C20443282   3.223   4.236   0.399  1.1972  1.2084 -0.2072
  120MOL   C20543283   3.170   4.181   0.539 -0.0544  0.1125 -0.1705
  120MOL   H20643284   3.364   4.068   7.578 -1.8183 -0.5614  0.5861
  120MOL   H20743285   3.369   4.229   7.618 -0.4958 -0.1361 -0.9677
  120MOL   H20843286   3.309   4.017   0.090  2.6555 -0.0295 -2.1663
  120MOL   H20943287   3.212   4.304   0.134 -2.0285 -0.8581  0.7980
  120MOL   H21043288   3.373   4.247   0.166 -0.6289  0.5659  0.4820
  120MOL   H21143289   3.245   4.054   0.292  0.7394  0.3871  1.1853
  120MOL   H21243290   3.100   4.140   0.253  1.1390 -3.7026  1.3281
  120MOL   H21343291   3.181   4.334   0.374 -1.1993 -0.3654 -2.5847
  120MOL   H21443292   3.331   4.242   0.413  1.3380 -0.2145 -0.6587
  120MOL   H21543293   3.061   4.171   0.533 -0.1307  0.7850 -0.0127
  120MOL   H21643294   3.212   4.090   0.583 -2.4624 -0.6380  0.6846
  120MOL   H21743295   3.194   4.267   0.601  0.5698 -1.2384  1.5017
  120MOL   C21843296   3.136   4.101   7.693 -0.3108 -0.8221 -0.7082
  120MOL   C21943297   3.113   3.996   7.579  0.0128  0.1816  0.0363
  120MOL   C22043298   2.968   3.989   7.538  0.1855  0.4349  0.7749
  120MOL   C22143299   2.891   4.110   7.501  0.2770 -0.8568 -0.6753
  120MOL   C22243300   2.916   4.153   7.355  0.9168  0.7395 -0.0589
  120MOL   C22343301   3.049   4.215   7.328 -0.7064 -0.1774 -0.1284
  120MOL   H22443302   3.067   4.078   0.048  1.6429  1.3322  1.6188
  120MOL   H22543303   3.113   4.200   7.653  1.1965 -0.3024 -0.3303
  120MOL   H22643304   3.176   4.026   7.495  1.7927 -0.2292  1.1738
  120MOL   H22743305   2.921   3.941   7.625 -1.2973  0.9872  0.2907
  120MOL   H22843306   2.954   3.932   7.446 -1.8252  0.1113  1.2430
  120MOL   H22943307   2.901   4.200   7.561  0.0039 -1.1594 -0.1731
  120MOL   H23043308   2.787   4.084   7.516  0.4223 -1.1862 -0.2255
  120MOL   H23143309   2.890   4.078   7.280 -0.6785 -1.0108  2.2033
  120MOL   H23243310   2.842   4.233   7.350  0.1100  0.0965  1.4407
  120MOL   H23343311   3.120   4.133   7.311 -1.4688 -0.8954  0.0896
  120MOL   H23443312   3.082   4.267   7.417  2.7483 -0.4743 -1.1543
  120MOL   H23543313   3.036   4.285   7.246  0.3555  1.3316  0.9808
  120MOL   C23643314   3.163   3.852   7.617  0.1214 -0.2622  0.1450
  120MOL   C23743315   3.157   3.740   7.509 -0.4493 -0.4983  0.4770
  120MOL   C23843316   3.101   3.606   7.567  0.4370 -0.1058  1.0277
  120MOL   C23943317   2.959   3.607   7.637  0.2684  0.2124  0.2230
  120MOL   C24043318   2.920   3.472   7.686 -0.4709  1.1026  0.7613
  120MOL   C24143319   2.781   3.460   0.033 -0.0795  0.2859 -0.1126
  120MOL   H24243320   3.265   3.846   7.657  0.9172 -0.3958 -1.8172
  120MOL   H24343321   3.111   3.819   7.707 -0.3953  0.5230  0.1367
  120MOL   H24443322   3.088   3.757   7.426 -0.2689  1.0023  0.6256
  120MOL   H24543323   3.096   3.530   7.489 -0.3796  0.1844  0.7950
  120MOL   H24643324   3.171   3.581   7.647  0.6474 -0.9121  0.5986
  120MOL   H24743325   2.890   3.637   7.558 -1.8775  0.4104  2.1457
  120MOL   H24843326   2.958   3.662   0.004  1.6930 -0.7025  0.8028
  120MOL   H24943327   2.925   3.394   7.610  2.6624  2.9407 -0.9952
  120MOL   H25043328   3.003   3.444   0.024 -0.5559 -0.1394  0.3480
  120MOL   H25143329   2.807   3.393   0.116 -0.5164  0.5163  0.2117
  120MOL   H25243330   2.753   3.549   0.089 -1.5677  0.8691 -1.7415
  120MOL   H25343331   2.699   3.408   7.711  0.2337 -0.5492  0.2349
  120MOL   C25443332   3.283   3.712   7.422  0.6704 -0.4275 -0.6196
  120MOL   C25543333   3.344   3.827   7.337 -0.1107 -0.0095 -0.1254
  120MOL   C25643334   3.269   3.830   7.203 -0.1129 -0.7623  0.0952
  120MOL   C25743335   3.310   3.962   7.114  0.3495  0.0911  0.3565
  120MOL   C25843336   3.232   3.972   6.984  0.7173  0.3687 -0.4469
  120MOL   C25943337   3.284   4.079   6.889 -0.4014 -0.2495  0.1362
  120MOL   H26043338   3.271   3.618   7.368  0.7510 -1.1220  0.5335
  120MOL   H26143339   3.369   3.682   7.482  0.6505  1.8245  0.5968
  120MOL   H26243340   3.312   3.917   7.390  0.8228 -0.7404  1.7376
  120MOL   H26343341   3.293   3.739   7.148 -0.6645 -0.9746  0.1994
  120MOL   H26443342   3.162   3.829   7.226 -0.3609 -0.8870 -1.0195
  120MOL   H26543343   3.307   4.054   7.172  0.3138  0.3121  0.0052
  120MOL   H26643344   3.418   3.953   7.104  0.2213 -1.0524 -0.1175
  120MOL   H26743345   3.126   3.993   6.998  0.7286  0.5053 -0.5625
  120MOL   H26843346   3.237   3.879   6.927  3.2034  0.8707 -1.1272
  120MOL   H26943347   3.257   4.179   6.923 -1.1284 -1.4388  3.2187
  120MOL   H27043348   3.246   4.068   6.788  1.3746 -2.3086 -0.3542
  120MOL   H27143349   3.393   4.068   6.891  0.0191  3.3492  3.5244
  120MOL   C27243350   3.503   3.822   7.332  0.6507 -1.5138 -0.0486
  120MOL   C27343351   3.566   3.694   7.269 -0.2529 -0.3117  0.4059
  120MOL   C27443352   3.657   3.613   7.369 -0.2437  0.2888 -0.4954
  120MOL   C27543353   3.781   3.698   7.428 -0.0228  0.3943  0.2618
  120MOL   C27643354   3.848   3.618   7.537  1.0856  0.3940  0.4354
  120MOL   C27743355   3.949   3.698   7.620 -0.0848  0.3270 -0.1299
  120MOL   H27843356   3.540   3.912   7.283 -1.6463 -0.5916 -0.1212
  120MOL   H27943357   3.537   3.830   7.436  0.4123 -1.2128  0.0056
  120MOL   H28043358   3.481   3.630   7.246 -1.8619  2.0095 -0.3626
  120MOL   H28143359   3.686   3.517   7.326  1.1525  0.4222  0.0992
  120MOL   H28243360   3.606   3.581   7.459 -0.4506 -0.8866 -1.0238
  120MOL   H28343361   3.752   3.798   7.461  0.6863  0.8669 -0.5431
  120MOL   H28443362   3.856   3.711   7.351 -0.0876 -0.9441 -0.0391
  120MOL   H28543363   3.771   3.588   7.608  2.5349 -2.4541  0.8758
  120MOL   H28643364   3.881   3.520   7.503  0.9753  0.0738  1.2500
  120MOL   H28743365   4.035   3.723   7.559 -0.3984  1.1212 -0.2516
  120MOL   H28843366   3.902   3.793   7.644 -1.3845 -0.0196 -1.2623
  120MOL   H28943367   3.978   3.644   7.710  1.6877 -0.1432 -0.9700
  120MOL   C29043368   3.641   3.734   7.139 -0.9612  0.3537 -0.5618
  120MOL   C29143369   3.620   3.629   7.028  0.5836  0.2685 -0.3511
  120MOL   C29243370   3.682   3.487   7.056  0.1043 -0.3051 -0.1512
  120MOL   C29343371   3.828   3.487   7.105  0.3975  0.6358  0.9311
  120MOL   C29443372   3.881   3.346   7.146  0.7200  0.0405  0.5837
  120MOL   C29543373   3.979   3.348   7.267 -0.7561 -0.1301 -0.3429
  120MOL   H29643374   3.749   3.739   7.154 -0.7855 -0.8703 -1.3815
  120MOL   H29743375   3.626   3.831   7.091 -0.0845  0.4980 -0.5465
  120MOL   H29843376   3.680   3.681   6.953  1.8524  1.4572  1.4618
  120MOL   H29943377   3.663   3.428   6.967 -1.3630  2.3551 -1.6638
  120MOL   H30043378   3.627   3.439   7.137  1.1678 -1.0812  0.1249
  120MOL   H30143379   3.884   3.541   7.029 -0.3004  2.3550  1.5971
  120MOL   H30243380   3.848   3.556   7.187 -1.5168  2.4704 -0.0795
  120MOL   H30343381   3.931   3.294   7.064  0.4041 -1.8511  1.5527
  120MOL   H30443382   3.799   3.278   7.170 -2.0217  2.4807 -1.5000
  120MOL   H30543383   4.027   3.252   7.283 -0.0001  0.1819 -0.7201
  120MOL   H30643384   3.910   3.377   7.347 -1.0745 -0.2612 -0.5694
  120MOL   H30743385   4.057   3.423   7.274 -2.0218  1.1201  0.8166
  120MOL   C30843386   3.475   3.617   6.973 -0.3991 -0.2498 -0.3878
  120MOL   C30943387   3.463   3.599   6.816  0.2804  0.0536  0.6180
  120MOL   C31043388   3.474   3.734   6.752  0.3310 -0.5023  0.0636
  120MOL   C31143389   3.560   3.733   6.620  0.4697  0.8888 -0.1256
  120MOL   C31243390   3.538   3.864   6.543 -0.2872 -0.0742  0.4138
  120MOL   C31343391   3.582   3.853   6.394  0.3182 -0.5880 -0.2344
  120MOL   H31443392   3.424   3.529   7.014 -0.5864 -0.3196 -0.7639
  120MOL   H31543393   3.429   3.714   6.988  1.1439  0.3505  0.5639
  120MOL   H31643394   3.549   3.535   6.795  0.4640  0.7839 -0.9497
  120MOL   H31743395   3.516   3.806   6.823  2.4459 -0.6081 -1.0335
  120MOL   H31843396   3.379   3.784   6.732  1.2332  0.2273 -2.6951
  120MOL   H31943397   3.529   3.646   6.562  0.4458  0.3646  0.6569
  120MOL   H32043398   3.666   3.720   6.642  0.2104 -0.4396  0.3888
  120MOL   H32143399   3.430   3.878   6.538 -0.0845  1.4019  0.0569
  120MOL   H32243400   3.581   3.952   6.590 -2.5514  1.5298 -0.4585
  120MOL   H32343401   3.690   3.851   6.388  0.3126 -2.5863 -0.1337
  120MOL   H32443402   3.556   3.942   6.338 -0.7280 -1.3399 -0.9788
  120MOL   H32543403   3.534   3.766   6.348 -0.5384 -0.8527  1.1012
  120MOL   C32643404   3.333   3.525   6.762 -0.3871  0.0479 -0.6413
  120MOL   C32743405   3.345   3.373   6.764  0.8421  0.5086  0.2563
  120MOL   C32843406   3.221   3.301   6.831  0.1614  0.1417  0.4496
  120MOL   C32943407   3.198   3.350   6.973  0.3388 -0.3647  0.5069
  120MOL   C33043408   3.090   3.280   7.051  0.5210  0.5441  0.0821
  120MOL   C33143409   2.950   3.296   6.979  0.0645 -0.2913  0.6132
  120MOL   H33243410   3.313   3.561   6.661 -0.7226 -0.9362 -0.9288
  120MOL   H33343411   3.248   3.565   6.817  0.7004 -2.2301  2.8889
  120MOL   H33443412   3.424   3.361   6.839 -1.6543 -3.2672  2.4761
  120MOL   H33543413   3.136   3.312   6.764  1.9328  1.5681 -1.6388
  120MOL   H33643414   3.229   3.192   6.831  0.2597  0.1152  2.8954
  120MOL   H33743415   3.164   3.453   6.980  0.7564 -0.2011  0.1076
  120MOL   H33843416   3.288   3.340   7.033  2.3257 -0.2075 -2.3817
  120MOL   H33943417   3.128   3.178   7.053  1.6806  0.9348 -1.7863
  120MOL   H34043418   3.092   3.316   7.154 -0.4341 -0.7087  0.5515
  120MOL   H34143419   2.925   3.399   6.954 -1.1474 -0.6672  0.2466
  120MOL   H34243420   2.877   3.255   7.049  0.3080 -1.0763  0.4149
  120MOL   H34343421   2.943   3.237   6.888 -1.9165  0.2846  0.3577
  120MOL   C34443422   3.394   3.318   6.620  0.1596  0.2480 -0.1784
  120MOL   C34543423   3.284   3.307   6.510  0.6849 -0.3910 -0.4763
  120MOL   C34643424   3.327   3.276   6.369 -0.0237 -0.3927  0.3966
  120MOL   C34743425   3.424   3.380   6.305  0.0433  0.3957  0.4438
  120MOL   C34843426   3.359   3.520   6.291 -0.0341 -0.1564  1.1727
  120MOL   C34943427   3.241   3.523   6.191  0.5455  0.7751 -0.3156
  120MOL   H35043428   3.477   3.376   6.580  2.7655 -0.2454  4.1727
  120MOL   H35143429   3.432   3.217   6.635 -0.5288  0.1283  0.7733
  120MOL   H35243430   3.219   3.394   6.505  0.2566 -0.6372  0.6515
  120MOL   H35343431   3.366   3.175   6.362  0.1654 -0.3265  0.4864
  120MOL   H35443432   3.233   3.272   6.315 -0.4188 -1.0777  1.1274
  120MOL   H35543433   3.515   3.394   6.363  0.4295  3.2847 -0.7678
  120MOL   H35643434   3.459   3.351   6.206 -0.4427 -0.6321  0.5626
  120MOL   H35743435   3.327   3.569   6.383  1.4145  0.3049  1.4458
  120MOL   H35843436   3.429   3.588   6.243 -2.0069  0.9052 -0.2620
  120MOL   H35943437   3.159   3.484   6.252  0.6315 -0.5037 -1.0070
  120MOL   H36043438   3.212   3.623   6.160  0.0542  0.1351 -1.9472
  120MOL   H36143439   3.245   3.457   6.105 -0.1634  0.2418  0.0543
  120MOL   H36243440   3.222   3.221   6.534 -1.3792  1.3606  0.5505
  121MOL     C143441   4.384   1.799   5.650  0.4518  0.0944  0.9400
  121MOL     C243442   4.413   1.652   5.679  0.6468 -0.1687 -0.6803
  121MOL     C343443   4.372   1.548   5.567  0.8573  0.4798 -0.1495
  121MOL     C443444   4.440   1.572   5.429  0.3013  0.1588 -0.8031
  121MOL     C543445   4.397   1.460   5.336  0.7157  0.4785  0.7344
  121MOL     C643446   4.462   1.462   5.198  0.8739 -0.2973  0.0943
  121MOL     H743447   4.276   1.807   5.662 -0.0047  2.3100 -3.7839
  121MOL     H843448   4.429   1.869   5.721 -1.5822  0.7261  1.6459
  121MOL     H943449   4.521   1.642   5.694  0.4965 -0.8330 -0.0064
  121MOL    H1043450   4.264   1.538   5.561  0.8025  1.2876 -0.6079
  121MOL    H1143451   4.403   1.448   5.595 -1.0804 -0.1642 -0.2431
  121MOL    H1243452   4.549   1.580   5.434  0.2526 -0.7848  3.7450
  121MOL    H1343453   4.405   1.662   5.378  0.5459  0.4471 -0.4612
  121MOL    H1443454   4.425   1.364   5.380 -0.0677  0.0286  0.2783
  121MOL    H1543455   4.289   1.454   5.318  0.9475  1.9200 -1.3368
  121MOL    H1643456   4.434   1.370   5.146 -1.2357 -0.5810  1.6528
  121MOL    H1743457   4.570   1.466   5.206  0.9189  0.6980 -0.8610
  121MOL    H1843458   4.441   1.550   5.137  0.0664 -0.6386 -0.1384
  121MOL    H1943459   4.414   1.823   5.548 -1.9184 -0.8877  0.0025
  121MOL    C2043460   4.346   1.616   5.814  0.0411  0.4120 -0.5421
  121MOL    C2143461   4.399   1.487   5.879  0.1695  0.1966  0.4572
  121MOL    C2243462   4.437   1.500   6.024 -0.3801 -0.1993 -0.0348
  121MOL    C2343463   4.322   1.522   6.124  0.1326 -0.2460 -0.0192
  121MOL    C2443464   4.373   1.508   6.273 -0.0587 -0.4296  0.5891
  121MOL    C2543465   4.251   1.510   6.369 -0.5836  0.0427  0.7556
  121MOL    H2643466   4.238   1.611   5.805  0.0149  0.3018 -0.1402
  121MOL    H2743467   4.359   1.687   5.895 -0.7170 -1.2939  1.1114
  121MOL    H2843468   4.493   1.451   5.837 -0.4271  0.0737 -0.8024
  121MOL    H2943469   4.501   1.587   6.042  0.0619 -0.6619  0.6607
  121MOL    H3043470   4.501   1.417   6.052  0.0561 -0.2916 -1.2888
  121MOL    H3143471   4.243   1.448   6.109  0.7836 -0.8602 -0.4535
  121MOL    H3243472   4.266   1.615   6.120 -0.9463 -0.8126  1.3393
  121MOL    H3343473   4.425   1.412   6.280  0.7664  0.0003  0.4168
  121MOL    H3443474   4.449   1.581   6.301  1.5205 -0.0919 -4.0908
  121MOL    H3543475   4.183   1.428   6.347 -1.1010  0.9379 -1.1002
  121MOL    H3643476   4.281   1.504   6.473  2.3158 -2.1560 -0.1412
  121MOL    H3743477   4.194   1.603   6.363 -2.0888 -0.9482 -1.0704
  121MOL    C3843478   4.295   1.374   5.861  0.5124  0.6280  0.2657
  121MOL    C3943479   4.343   1.238   5.928  0.5439 -0.3059  0.9151
  121MOL    C4043480   4.225   1.144   5.969 -0.0589 -0.0772 -0.9869
  121MOL    C4143481   4.143   1.182   6.087  0.0623  0.2937 -0.0273
  121MOL    C4243482   4.055   1.072   6.166 -0.5175 -0.8234  0.5892
  121MOL    C4343483   3.992   1.110   6.303 -0.2146  0.0086  0.1235
  121MOL    H4443484   4.263   1.360   5.757 -0.7112 -1.2006  0.8543
  121MOL    H4543485   4.202   1.404   5.910 -0.0099 -1.5318  0.6327
  121MOL    H4643486   4.404   1.246   6.018 -0.5305 -0.3795  1.6545
  121MOL    H4743487   4.166   1.118   5.881 -0.2431  2.3515 -1.6204
  121MOL    H4843488   4.252   1.044   6.001 -2.6797 -0.1908  1.1187
  121MOL    H4943489   4.215   1.215   6.162 -0.9056  1.7435  0.2892
  121MOL    H5043490   4.077   1.263   6.054  1.3908  0.8563 -1.3917
  121MOL    H5143491   3.982   1.030   6.096 -0.7400 -0.8766  0.8558
  121MOL    H5243492   4.112   0.984   6.193 -0.7556 -0.8618  0.9616
  121MOL    H5343493   3.967   1.027   6.368 -2.4238  0.3164 -0.2936
  121MOL    H5443494   3.896   1.161   6.300 -0.4758 -0.5513 -1.3705
  121MOL    H5543495   4.064   1.167   6.363  2.0533 -1.0793 -1.4695
  121MOL    C5643496   4.425   1.170   5.822  0.3137 -0.4515 -0.1044
  121MOL    C5743497   4.521   1.062   5.864  0.4576 -0.4771 -0.1647
  121MOL    C5843498   4.629   1.105   5.966 -0.4016  0.5377 -0.0694
  121MOL    C5943499   4.735   1.211   5.918  0.9152 -0.1880 -0.4408
  121MOL    C6043500   4.840   1.245   6.017 -0.8961  0.0604  0.3810
  121MOL    C6143501   4.931   1.128   6.057 -0.0894  0.0127  0.0476
  121MOL    H6243502   4.360   1.146   5.739 -1.2510 -2.1252  1.5389
  121MOL    H6343503   4.502   1.235   5.781  0.2840 -0.0550  0.4592
  121MOL    H6443504   4.459   0.988   5.917  1.0727 -1.6616 -1.0768
  121MOL    H6543505   4.579   1.138   6.057  1.1765 -1.8632  1.7322
  121MOL    H6643506   4.674   1.016   6.011 -0.2943  1.0943  0.9089
  121MOL    H6743507   4.681   1.299   5.882 -1.2944 -1.3433 -0.0749
  121MOL    H6843508   4.788   1.166   5.834 -0.4838 -0.0655 -1.4194
  121MOL    H6943509   4.901   1.324   5.972  0.5874 -0.5451  1.2729
  121MOL    H7043510   4.799   1.293   6.105  1.0466  0.6098  1.0100
  121MOL    H7143511   4.966   1.072   5.970 -0.1685  1.7503 -1.1382
  121MOL    H7243512   5.018   1.166   6.112 -0.2224  0.1891  0.1376
  121MOL    H7343513   4.885   1.048   6.115 -0.2665 -0.7398 -1.1178
  121MOL    C7443514   4.572   0.983   5.745 -0.1684  0.5290 -0.5182
  121MOL    C7543515   4.473   0.898   5.660 -0.0940 -0.5777 -0.1608
  121MOL    C7643516   4.508   0.890   5.507 -0.0683  0.0255 -0.0037
  121MOL    C7743517   4.528   1.016   5.424 -0.4448  0.3828  0.2337
  121MOL    C7843518   4.554   0.980   5.277  0.0894 -0.1968  0.5480
  121MOL    C7943519   4.572   1.101   5.187 -0.0680 -0.6947 -0.0690
  121MOL    H8043520   4.627   1.061   5.693 -0.1776  0.7208 -0.2360
  121MOL    H8143521   4.646   0.908   5.775 -0.8564 -0.1267 -0.4332
  121MOL    H8243522   4.377   0.949   5.668  1.1426  1.6016  1.1386
  121MOL    H8343523   4.604   0.842   5.492  0.0536 -0.0710  1.0747
  121MOL    H8443524   4.433   0.830   5.454 -0.4672 -0.3285  0.9530
  121MOL    H8543525   4.442   1.082   5.433 -0.1828  0.6374  0.8514
  121MOL    H8643526   4.613   1.075   5.458  0.5923 -0.0322 -1.5504
  121MOL    H8743527   4.478   0.919   5.229  0.0225  1.8971 -2.1452
  121MOL    H8843528   4.643   0.918   5.284 -0.7484 -1.6306 -1.2354
  121MOL    H8943529   4.642   1.171   5.234 -1.2158 -0.7088  1.7218
  121MOL    H9043530   4.597   1.062   5.089 -0.7236 -0.4906 -0.3193
  121MOL    H9143531   4.474   1.149   5.182  0.0286 -0.3299  1.3458
  121MOL    C9243532   4.463   0.752   5.712  0.0686 -0.3687  0.4035
  121MOL    C9343533   4.331   0.678   5.694  0.3258  0.0204 -0.3946
  121MOL    C9443534   4.353   0.524   5.705  0.4658 -0.6454 -0.2711
  121MOL    C9543535   4.393   0.455   5.573 -0.1194 -0.2528 -0.5926
  121MOL    C9643536   4.413   0.303   5.585  0.1714  0.9120  0.3142
  121MOL    C9743537   4.548   0.255   5.643 -0.6257 -0.1924  0.5924
  121MOL    H9843538   4.549   0.690   5.684  0.1397  0.0679 -0.3792
  121MOL    H9943539   4.488   0.761   5.817  0.5670  1.6063  0.1261
  121MOL   H10043540   4.309   0.687   5.588  1.0995  0.2970 -0.5358
  121MOL   H10143541   4.260   0.474   5.732  0.5015 -1.3275 -1.4135
  121MOL   H10243542   4.426   0.495   5.781  0.3595  0.4211  0.2498
  121MOL   H10343543   4.308   0.472   5.508 -0.9806 -1.0115  0.3156
  121MOL   H10443544   4.480   0.498   5.524 -0.2879  3.3502  2.0604
  121MOL   H10543545   4.330   0.251   5.632  0.7722  1.1696  1.6637
  121MOL   H10643546   4.414   0.255   5.487 -0.2632 -0.5239  1.0141
  121MOL   H10743547   4.578   0.299   5.738 -3.5585 -0.2819  1.6109
  121MOL   H10843548   4.558   0.146   5.643 -1.5651 -0.2998 -1.4460
  121MOL   H10943549   4.627   0.290   5.577  0.0680  1.3545  2.2070
  121MOL   C11043550   4.218   0.732   5.787  0.3931  0.2516 -0.1775
  121MOL   C11143551   4.070   0.679   5.788  0.5595  0.3141  0.0501
  121MOL   C11243552   4.048   0.567   5.891 -0.1495 -0.5908  0.2371
  121MOL   C11343553   4.048   0.607   6.043  0.4496  0.0097  0.1515
  121MOL   C11443554   3.909   0.669   6.070 -0.7901 -0.2457 -0.0285
  121MOL   C11543555   3.905   0.734   6.209  0.5611 -0.0814 -0.1737
  121MOL   H11643556   4.260   0.716   5.886 -0.2759  1.3490  0.2973
  121MOL   H11743557   4.219   0.841   5.788 -1.3119  0.2731  0.9093
  121MOL   H11843558   4.011   0.757   5.836  0.5933  0.8285 -0.7315
  121MOL   H11943559   4.112   0.482   5.868  1.1857  0.1864  1.0167
  121MOL   H12043560   3.945   0.540   5.866  0.1909  0.6999 -2.7977
  121MOL   H12143561   4.126   0.682   6.058  0.0191  0.5725 -0.4231
  121MOL   H12243562   4.054   0.516   6.102 -0.8333  0.5479  1.1250
  121MOL   H12343563   3.835   0.590   6.055 -0.8710 -0.4058  1.1619
  121MOL   H12443564   3.890   0.739   5.989  1.3232  1.2384  0.7103
  121MOL   H12543565   3.910   0.842   6.211  0.8371 -0.1130  1.0317
  121MOL   H12643566   3.818   0.707   6.269 -1.0790  0.6536 -2.1697
  121MOL   H12743567   3.994   0.706   6.265 -0.4887 -1.2934  0.9295
  121MOL   C12843568   4.009   0.658   5.650 -0.0244 -0.0426  0.1509
  121MOL   C12943569   4.008   0.786   5.559  0.2541  0.8911  0.5362
  121MOL   C13043570   3.937   0.906   5.630  0.1157 -0.7522 -0.4266
  121MOL   C13143571   3.785   0.885   5.669  1.2211 -0.3834 -0.2789
  121MOL   C13243572   3.725   1.006   5.748  0.2878 -0.0048  0.0773
  121MOL   C13343573   3.784   1.039   5.886  0.1399 -0.0565 -0.3265
  121MOL   H13443574   3.903   0.632   5.656  0.0780 -0.3040  0.8501
  121MOL   H13543575   4.049   0.573   5.596  2.5005  1.1923 -0.0107
  121MOL   H13643576   4.113   0.810   5.542 -0.0846  1.5388 -0.7324
  121MOL   H13743577   3.990   0.941   5.719 -0.0901 -0.7664 -0.2970
  121MOL   H13843578   3.956   0.995   5.570 -1.1801 -2.6066 -3.7161
  121MOL   H13943579   3.763   0.799   5.732 -1.3152 -0.5807 -1.3560
  121MOL   H14043580   3.742   0.864   5.571  0.4511  1.8525 -0.4339
  121MOL   H14143581   3.728   1.104   5.700  0.8082 -0.6369 -1.2118
  121MOL   H14243582   3.618   0.991   5.760 -0.1472  2.1519 -0.8431
  121MOL   H14343583   3.797   0.951   5.949  0.6478 -1.3993 -2.2609
  121MOL   H14443584   3.708   1.099   5.937 -1.7431 -0.8290 -2.1400
  121MOL   H14543585   3.876   1.095   5.868  0.5878 -1.0482 -1.1912
  121MOL   C14643586   3.945   0.748   5.423  0.1686 -0.1857 -0.3807
  121MOL   C14743587   4.033   0.696   5.309  0.6419 -0.0618  0.5105
  121MOL   C14843588   4.075   0.541   5.319 -0.6244 -0.4314 -0.0418
  121MOL   C14943589   4.070   0.463   5.186  0.3233  0.2171  0.3362
  121MOL   C15043590   4.146   0.331   5.188 -0.2662  0.0361 -0.3842
  121MOL   C15143591   4.145   0.262   5.051 -0.3386 -0.0641 -0.6291
  121MOL   H15243592   3.857   0.688   5.443  0.0385  0.3720  0.7122
  121MOL   H15343593   3.892   0.837   5.390 -0.4844 -0.3017  0.3546
  121MOL   H15443594   3.955   0.689   5.232  1.4821 -0.0674 -0.3473
  121MOL   H15543595   4.019   0.491   5.398  1.2447 -1.3631  0.7087
  121MOL   H15643596   4.180   0.540   5.346 -0.2742  0.6317 -1.3060
  121MOL   H15743597   3.969   0.451   5.148  0.7558  0.7503 -1.0212
  121MOL   H15843598   4.118   0.534   5.118  2.3826 -0.8357  0.6338
  121MOL   H15943599   4.096   0.264   5.257 -0.3184  0.4336 -0.0325
  121MOL   H16043600   4.246   0.369   5.212 -0.9465  0.8888  1.1504
  121MOL   H16143601   4.055   0.200   5.056  0.1464 -0.7147  0.1199
  121MOL   H16243602   4.137   0.336   4.971  0.9733  1.4561  0.5903
  121MOL   H16343603   4.234   0.205   5.028  0.2618  0.9595 -0.8749
  121MOL   C16443604   4.150   0.783   5.255  0.2843  0.0176  0.0930
  121MOL   C16543605   4.115   0.914   5.188 -0.5772  0.2464 -0.1521
  121MOL   C16643606   4.122   1.032   5.291 -0.0510 -0.4868 -0.1174
  121MOL   C16743607   4.069   1.164   5.246  0.0621 -0.6973  0.2879
  121MOL   C16843608   4.019   1.276   5.353  0.2027 -0.1147 -0.3470
  121MOL   C16943609   3.959   1.388   5.265 -0.9053 -0.2273  0.1268
  121MOL   H17043610   4.217   0.804   5.338 -0.5617 -1.3275  1.1558
  121MOL   H17143611   4.199   0.721   5.181  2.1801  2.9069 -1.1489
  121MOL   H17243612   4.012   0.905   5.153 -0.4289  2.5241 -1.3253
  121MOL   H17343613   4.221   1.053   5.334  0.2793  0.6911 -1.4370
  121MOL   H17443614   4.056   1.016   5.376 -2.4333 -0.3504 -1.9210
  121MOL   H17543615   3.986   1.149   5.177  1.7618 -0.0335 -1.9365
  121MOL   H17643616   4.148   1.209   5.188 -0.0908 -2.3171 -1.2299
  121MOL   H17743617   4.100   1.312   5.416 -0.4250 -0.7317  0.8291
  121MOL   H17843618   3.934   1.239   5.411  0.3294 -0.7664 -0.5771
  121MOL   H17943619   4.022   1.422   5.183 -0.3282  1.7726  1.3676
  121MOL   H18043620   3.948   1.472   5.334  1.3276 -0.2769  0.5749
  121MOL   H18143621   3.865   1.353   5.221 -1.3283 -2.1539  2.4611
  121MOL   C18243622   4.214   0.937   5.065 -0.4692 -0.3683  0.3810
  121MOL   C18343623   4.223   0.835   4.949 -0.3028  0.2890  0.0862
  121MOL   C18443624   4.292   0.913   4.838  0.6902  0.4945 -0.1049
  121MOL   C18543625   4.328   0.824   4.720 -0.5638  0.4244  0.2274
  121MOL   C18643626   4.367   0.912   4.596 -0.5055 -0.5219 -0.5632
  121MOL   C18743627   4.418   0.830   4.475  0.8218 -0.2251 -0.1804
  121MOL   H18843628   4.190   1.029   5.013 -0.2473 -0.5415 -0.0313
  121MOL   H18943629   4.312   0.948   5.111 -0.0074 -1.4896 -0.3152
  121MOL   H19043630   4.294   0.762   4.987 -1.2924 -0.7096  0.0470
  121MOL   H19143631   4.239   1.004   4.808 -1.2577  0.0604  1.9088
  121MOL   H19243632   4.383   0.952   4.881  2.3378 -1.6958 -1.4718
  121MOL   H19343633   4.237   0.769   4.695 -0.7948  1.1056 -0.4314
  121MOL   H19443634   4.413   0.760   4.744 -1.5364 -1.4031 -1.0306
  121MOL   H19543635   4.430   0.990   4.638  0.5476 -1.9000  0.4745
  121MOL   H19643636   4.273   0.957   4.564  0.3435  0.4510 -1.7097
  121MOL   H19743637   4.353   0.749   4.441 -1.7711  1.3134  0.9096
  121MOL   H19843638   4.511   0.785   4.508  1.5733  0.8394 -0.8327
  121MOL   H19943639   4.438   0.899   4.393 -0.8584 -0.3762 -0.7462
  121MOL   C20043640   4.090   0.765   4.911  0.6598  0.1842  0.0617
  121MOL   C20143641   3.987   0.846   4.825  0.8605  0.2294 -0.2766
  121MOL   C20243642   3.879   0.738   4.782  0.3291  0.2162  0.5420
  121MOL   C20343643   3.919   0.640   4.668 -0.0303  0.3300 -0.4767
  121MOL   C20443644   3.809   0.540   4.618  0.1140  0.8583  0.3959
  121MOL   C20543645   3.703   0.599   4.531 -0.3002 -0.4282  0.1808
  121MOL   H20643646   4.043   0.737   5.006 -0.0639  0.3431 -0.2472
  121MOL   H20743647   4.106   0.668   4.864  1.6409  0.3811 -0.0155
  121MOL   H20843648   4.051   0.887   4.747  1.4289 -1.5315 -0.7495
  121MOL   H20943649   3.790   0.789   4.743  0.0883 -1.2122 -0.8527
  121MOL   H21043650   3.852   0.681   4.870 -0.9026 -1.5247 -0.9253
  121MOL   H21143651   4.015   0.593   4.687 -0.6241 -0.6810  0.0906
  121MOL   H21243652   3.941   0.695   4.577 -0.5673 -3.3901 -2.9325
  121MOL   H21343653   3.755   0.487   4.697  0.7295  1.1576  1.0200
  121MOL   H21443654   3.848   0.462   4.553  1.4719  1.8039  0.0841
  121MOL   H21543655   3.741   0.679   4.466 -0.9092 -0.4449 -0.2011
  121MOL   H21643656   3.647   0.528   4.471 -0.7853 -2.2228  2.7059
  121MOL   H21743657   3.641   0.657   4.600 -1.0341 -0.1412 -0.7092
  121MOL   C21843658   3.907   0.956   4.905  0.0743 -0.2883 -0.0285
  121MOL   C21943659   3.819   1.055   4.827 -0.5774 -0.2384  0.6517
  121MOL   C22043660   3.892   1.124   4.711 -0.4842  0.6316 -0.7842
  121MOL   C22143661   3.904   1.049   4.579  0.0774  0.0394  0.5195
  121MOL   C22243662   3.846   1.128   4.458 -0.1045  0.8710 -0.2380
  121MOL   C22343663   3.873   1.044   4.339  0.2229 -0.6848  0.4125
  121MOL   H22443664   3.847   0.899   4.977  1.9317  0.0369  1.8350
  121MOL   H22543665   3.975   1.016   4.966  1.4170 -0.7138 -1.0949
  121MOL   H22643666   3.738   0.997   4.782 -1.5795  0.8861  0.9611
  121MOL   H22743667   3.993   1.143   4.747 -0.7853 -0.6197  0.7913
  121MOL   H22843668   3.851   1.223   4.692 -0.1032  1.2425  1.4269
  121MOL   H22943669   3.850   0.955   4.585 -1.4511  0.9072  0.5966
  121MOL   H23043670   4.008   1.023   4.560 -0.3750 -1.9644  0.7245
  121MOL   H23143671   3.740   1.145   4.473 -0.6513 -0.0364 -2.8314
  121MOL   H23243672   3.896   1.221   4.433  0.3912  0.5024 -0.6307
  121MOL   H23343673   3.973   1.051   4.294 -0.2994  1.3638 -0.5189
  121MOL   H23443674   3.805   1.067   4.257 -0.1077  1.7709  1.3301
  121MOL   H23543675   3.864   0.938   4.362 -0.6098 -0.1799  2.4606
  121MOL   C23643676   3.754   1.164   4.911  0.0638  0.3197  0.4177
  121MOL   C23743677   3.614   1.218   4.861 -0.7524  0.3952 -0.3949
  121MOL   C23843678   3.582   1.345   4.950  0.0880 -0.3560 -0.2121
  121MOL   C23943679   3.552   1.312   5.104  0.4101  0.1566  0.2216
  121MOL   C24043680   3.564   1.427   5.196  0.5984  0.8172 -0.6322
  121MOL   C24143681   3.580   1.371   5.345 -0.1245 -0.9849 -0.2787
  121MOL   H24243682   3.743   1.110   5.005 -2.9959 -1.3689 -0.8581
  121MOL   H24343683   3.824   1.242   4.942  0.1725  0.1539  0.5926
  121MOL   H24443684   3.637   1.269   4.767 -0.2320  0.7278 -0.0948
  121MOL   H24543685   3.663   1.418   4.938 -0.6866  1.1922  3.4103
  121MOL   H24643686   3.507   1.400   4.894 -0.1042  0.6621  1.0271
  121MOL   H24743687   3.633   1.250   5.144 -0.9645 -1.7149  0.1723
  121MOL   H24843688   3.455   1.263   5.115  1.2806 -1.9231 -0.9962
  121MOL   H24943689   3.639   1.499   5.166 -2.1893  3.4556 -1.4828
  121MOL   H25043690   3.471   1.483   5.192 -0.2368 -0.6854 -3.0743
  121MOL   H25143691   3.683   1.390   5.374 -0.9404  0.0924  2.0603
  121MOL   H25243692   3.509   1.419   5.413 -1.4334 -2.4004 -0.6244
  121MOL   H25343693   3.571   1.264   5.359  2.5105 -1.1249  0.5219
  121MOL   C25443694   3.493   1.115   4.840 -0.1903 -0.5653  0.3479
  121MOL   C25543695   3.410   1.124   4.713 -0.7440  0.2096  0.7437
  121MOL   C25643696   3.340   1.258   4.701  0.5110  0.8763  0.8596
  121MOL   C25743697   3.225   1.261   4.595  0.1427  0.4282 -0.0195
  121MOL   C25843698   3.192   1.404   4.558  0.4204 -0.2323  0.5175
  121MOL   C25943699   3.064   1.413   4.468  0.7530 -0.3611  0.5046
  121MOL   H26043700   3.422   1.122   4.923 -1.0296  2.2548 -0.5483
  121MOL   H26143701   3.531   1.013   4.847 -1.4382 -1.1569 -1.1992
  121MOL   H26243702   3.479   1.113   4.629 -1.1030 -0.8952  0.5859
  121MOL   H26343703   3.302   1.301   4.794 -0.8198  1.8794 -0.1238
  121MOL   H26443704   3.426   1.320   4.678 -0.6694  1.7222 -1.5117
  121MOL   H26543705   3.253   1.208   4.504 -1.8487 -1.2601  0.3323
  121MOL   H26643706   3.141   1.208   4.638  0.4125  1.1902  1.4552
  121MOL   H26743707   3.274   1.457   4.511 -0.1487  0.8761  0.7577
  121MOL   H26843708   3.156   1.454   4.648 -1.0219 -1.1832  0.4931
  121MOL   H26943709   3.087   1.376   4.367  1.4831 -1.1953  0.9658
  121MOL   H27043710   3.053   1.518   4.442 -2.1785 -0.8271 -0.2482
  121MOL   H27143711   2.967   1.378   4.504  1.2479 -0.2991  1.9138
  121MOL   C27243712   3.315   1.001   4.714 -0.1170  0.9339  0.3354
  121MOL   C27343713   3.374   0.864   4.669  0.7142 -0.0596 -0.3695
  121MOL   C27443714   3.437   0.870   4.525 -0.4515 -0.1136  0.1949
  121MOL   C27543715   3.328   0.895   4.419 -0.6205 -0.5617  0.5689
  121MOL   C27643716   3.388   0.901   4.280 -0.1128 -0.3611 -0.0256
  121MOL   C27743717   3.465   1.027   4.237  0.3510  0.0771  0.2823
  121MOL   H27843718   3.256   0.987   4.804  0.3685  0.1350  0.5316
  121MOL   H27943719   3.229   1.018   4.649 -1.0067 -1.4921  0.8563
  121MOL   H28043720   3.459   0.837   4.732 -0.1344 -0.5287  0.5882
  121MOL   H28143721   3.483   0.777   4.493  0.4403  0.0713  0.9252
  121MOL   H28243722   3.519   0.941   4.514  0.8496 -1.5505  0.5523
  121MOL   H28343723   3.272   0.984   4.445  0.3434  0.1794  0.1536
  121MOL   H28443724   3.256   0.814   4.418  0.1722 -1.2832  1.0624
  121MOL   H28543725   3.455   0.817   4.264 -0.9668 -1.1109  0.2707
  121MOL   H28643726   3.303   0.880   4.214 -1.2976  1.0242  1.0123
  121MOL   H28743727   3.414   1.121   4.254 -2.1663 -1.4708  1.6638
  121MOL   H28843728   3.551   1.030   4.303  0.6913  1.0168 -0.2047
  121MOL   H28943729   3.513   1.016   4.140  0.5278 -2.3132  0.5972
  121MOL   C29043730   3.264   0.748   4.674  0.4993 -0.0762  0.1403
  121MOL   C29143731   3.257   0.685   4.821  0.6238  0.3010  0.2347
  121MOL   C29243732   3.128   0.602   4.840  0.6951 -0.2415 -0.0392
  121MOL   C29343733   2.992   0.670   4.816 -1.3355 -0.1133 -0.0307
  121MOL   C29443734   2.879   0.594   4.877  0.5996  0.2797 -0.5254
  121MOL   C29543735   2.744   0.666   4.850 -0.3537 -0.1604  0.1374
  121MOL   H29643736   3.277   0.671   4.598 -1.4169  0.7455 -1.0662
  121MOL   H29743737   3.166   0.786   4.643 -0.6225 -2.5004  0.5780
  121MOL   H29843738   3.274   0.753   4.904  0.8236 -0.9811  1.2632
  121MOL   H29943739   3.132   0.569   4.944  0.3083 -1.8832 -0.5215
  121MOL   H30043740   3.121   0.513   4.778  2.0423 -0.6659  0.4039
  121MOL   H30143741   2.996   0.771   4.858 -0.6370 -0.5212  0.8868
  121MOL   H30243742   2.988   0.679   4.708  0.1416 -1.7680 -0.2379
  121MOL   H30343743   2.896   0.587   4.984 -2.6808 -2.2470 -0.0752
  121MOL   H30443744   2.885   0.492   4.838  3.1331  0.5593 -0.9454
  121MOL   H30543745   2.759   0.765   4.893 -1.8674 -0.1098  0.5612
  121MOL   H30643746   2.652   0.619   4.886  0.3202 -1.0299  0.7716
  121MOL   H30743747   2.726   0.671   4.743  1.0326  0.2436 -0.0895
  121MOL   C30843748   3.372   0.584   4.831 -0.3640 -0.2579 -0.2116
  121MOL   C30943749   3.422   0.566   4.978  0.7536 -0.0811 -0.2188
  121MOL   C31043750   3.485   0.699   5.028 -0.4774 -0.1614  0.3774
  121MOL   C31143751   3.461   0.713   5.181 -0.2943  0.4125  0.3251
  121MOL   C31243752   3.553   0.814   5.257  0.6025  0.1491 -1.0696
  121MOL   C31343753   3.536   0.951   5.199 -0.0863  0.0596 -0.0972
  121MOL   H31443754   3.349   0.489   4.783  3.4294 -0.2597 -2.2021
  121MOL   H31543755   3.453   0.620   4.769  1.0428  0.7359  2.1281
  121MOL   H31643756   3.333   0.532   5.031  1.5768 -1.5201  0.2460
  121MOL   H31743757   3.466   0.792   4.973 -0.0903  0.5643  1.4601
  121MOL   H31843758   3.591   0.698   5.003 -0.8236 -1.0219 -1.1441
  121MOL   H31943759   3.479   0.616   5.226 -0.2639 -0.2846 -1.1408
  121MOL   H32043760   3.352   0.722   5.191 -0.4503 -1.7121  0.6755
  121MOL   H32143761   3.515   0.805   5.358  0.4169  2.4663 -0.8968
  121MOL   H32243762   3.655   0.778   5.256  1.4425  2.1558  3.5511
  121MOL   H32343763   3.609   1.015   5.248 -0.7192  0.4616  0.3354
  121MOL   H32443764   3.434   0.989   5.210  0.0922  0.5744 -0.2408
  121MOL   H32543765   3.557   0.955   5.093 -0.9996 -1.9740 -0.3811
  121MOL   C32643766   3.526   0.448   4.995  0.0926  0.4598 -0.2595
  121MOL   C32743767   3.494   0.301   4.944  0.0495  0.4252  0.2749
  121MOL   C32843768   3.609   0.196   4.957 -0.0878 -0.6845  0.2460
  121MOL   C32943769   3.720   0.233   4.864  0.5695  0.7362  0.6866
  121MOL   C33043770   3.842   0.138   4.860 -0.1057 -0.1550  1.1950
  121MOL   C33143771   3.958   0.188   4.776 -0.3111  0.3151 -0.3115
  121MOL   H33243772   3.560   0.432   5.097 -0.6672  1.7328  0.2068
  121MOL   H33343773   3.614   0.471   4.935  0.0411 -1.5733 -1.1335
  121MOL   H33443774   3.495   0.314   4.835 -0.8071  3.2982  0.5578
  121MOL   H33543775   3.655   0.216   5.053 -0.9529  1.0988  0.3009
  121MOL   H33643776   3.568   0.096   4.938 -1.4119  0.0008 -0.5432
  121MOL   H33743777   3.759   0.334   4.879 -0.6909  1.2158  0.7780
  121MOL   H33843778   3.678   0.236   4.764  1.3411 -2.3451  0.2211
  121MOL   H33943779   3.877   0.118   4.961 -2.0788 -0.7179  1.7861
  121MOL   H34043780   3.820   0.035   4.832  0.6947 -0.2249  0.7951
  121MOL   H34143781   4.007   0.271   4.827 -1.8435  2.4778 -2.2419
  121MOL   H34243782   3.923   0.218   4.677  0.7752 -1.1623 -1.1773
  121MOL   H34343783   4.026   0.110   4.741  1.9021  2.4591 -0.8709
  121MOL   C34443784   3.357   0.261   4.993  0.6344  0.0864  0.3016
  121MOL   C34543785   3.334   0.261   5.147  0.0322  0.2145 -0.6373
  121MOL   C34643786   3.204   0.195   5.186  0.1912  0.8801  0.5811
  121MOL   C34743787   3.083   0.286   5.180  0.0483 -0.0972 -0.1544
  121MOL   C34843788   2.947   0.217   5.171  0.4850  0.5169 -0.5981
  121MOL   C34943789   2.839   0.321   5.173 -0.2144  0.5988  0.7362
  121MOL   H35043790   3.279   0.327   4.954  0.0299 -0.2855  0.8809
  121MOL   H35143791   3.334   0.166   4.946 -2.5749  1.8373 -1.8904
  121MOL   H35243792   3.336   0.359   5.194 -0.5817 -0.5198  0.9575
  121MOL   H35343793   3.198   0.107   5.123  0.6126  0.0033  1.7337
  121MOL   H35443794   3.214   0.145   5.283  1.2830 -0.1285 -0.0457
  121MOL   H35543795   3.083   0.330   5.279 -4.0409  2.4291 -1.1381
  121MOL   H35643796   3.089   0.359   5.099  0.4877 -0.6167 -0.5992
  121MOL   H35743797   2.938   0.158   5.080  0.2974  0.3530 -0.4737
  121MOL   H35843798   2.922   0.138   5.242  0.5743  0.8614 -0.1810
  121MOL   H35943799   2.738   0.284   5.155  0.6238 -1.0440 -0.7288
  121MOL   H36043800   2.834   0.368   5.271  1.4163  2.0095  0.1703
  121MOL   H36143801   2.853   0.406   5.106  1.1361  0.5938  0.9951
  121MOL   H36243802   3.411   0.199   5.193  0.8703  0.1289 -2.1233
  122MOL     C143803   1.013   6.425   4.958 -0.4111  0.1807 -0.0924
  122MOL     C243804   0.869   6.381   4.913  0.1350  0.8092  0.5752
  122MOL     C343805   0.767   6.500   4.909  0.3582  0.7061 -0.2598
  122MOL     C443806   0.795   6.606   4.801  0.2748  0.4394 -0.7784
  122MOL     C543807   0.747   6.556   4.658 -0.4490  0.1544  0.0066
  122MOL     C643808   0.791   6.647   4.539 -0.3664 -0.1114 -0.6434
  122MOL     H743809   1.082   6.340   4.953 -1.2365 -0.4769 -0.3430
  122MOL     H843810   1.053   6.499   4.889  0.7857 -1.8723 -1.6630
  122MOL     H943811   0.865   6.343   4.811 -1.9988 -0.1111  0.9817
  122MOL    H1043812   0.766   6.553   5.004  1.3365 -0.6477  0.5048
  122MOL    H1143813   0.666   6.460   4.894  1.0894 -1.0698 -0.6080
  122MOL    H1243814   0.903   6.618   4.796 -0.0336  2.9539 -1.7880
  122MOL    H1343815   0.749   6.702   4.822 -1.0555  0.7864 -4.8250
  122MOL    H1443816   0.808   6.468   4.639  2.0455  2.1084 -1.2977
  122MOL    H1543817   0.641   6.531   4.652 -0.5201  0.9396 -2.8867
  122MOL    H1643818   0.767   6.600   4.444 -0.4496  0.1364 -0.7463
  122MOL    H1743819   0.898   6.665   4.546 -0.6222  0.5076  2.3050
  122MOL    H1843820   0.736   6.742   4.545  0.1590  0.1571 -0.0132
  122MOL    H1943821   1.004   6.460   5.061 -2.0900  1.2594 -0.5948
  122MOL    C2043822   0.826   6.272   5.009 -0.0411  0.8180 -0.5151
  122MOL    C2143823   0.903   6.137   4.992  0.1243 -0.6363  0.3389
  122MOL    C2243824   0.862   6.039   5.106 -0.1356  0.5752 -0.6853
  122MOL    C2343825   0.936   6.051   5.241  0.4323 -0.8232  0.5382
  122MOL    C2443826   0.908   5.924   5.323 -0.4312 -0.3832 -0.0179
  122MOL    C2543827   0.960   5.929   5.465  0.5430  0.6122 -0.0974
  122MOL    H2643828   0.718   6.260   5.001 -0.0135  0.5380 -0.4648
  122MOL    H2743829   0.842   6.313   5.108 -0.2741  0.2647 -0.2504
  122MOL    H2843830   1.011   6.153   4.998  0.1410 -0.3401 -0.6689
  122MOL    H2943831   0.891   5.939   5.074  1.2724  0.6267  0.3851
  122MOL    H3043832   0.758   6.033   5.137  0.0285 -0.2911 -0.2934
  122MOL    H3143833   0.903   6.146   5.283 -0.5059 -1.1471  0.5443
  122MOL    H3243834   1.040   6.065   5.213  0.6310  2.4420  2.6278
  122MOL    H3343835   0.802   5.898   5.322 -1.1273  2.2911 -0.9807
  122MOL    H3443836   0.962   5.851   5.263  1.9874  0.8863  0.5636
  122MOL    H3543837   1.068   5.948   5.468  0.6899  0.0550 -1.3231
  122MOL    H3643838   0.914   6.018   5.507  0.5159  0.3941  0.3345
  122MOL    H3743839   0.946   5.838   5.523  0.3607 -1.4922 -3.3031
  122MOL    C3843840   0.891   6.073   4.850  0.2734 -0.1698 -0.2886
  122MOL    C3943841   0.743   6.067   4.790  0.0940  0.2934  0.1641
  122MOL    C4043842   0.744   6.050   4.631  0.6357  0.6646 -0.2317
  122MOL    C4143843   0.766   6.179   4.548  0.4110  0.2025  0.1058
  122MOL    C4243844   0.786   6.149   4.399  0.2978 -0.1590 -0.3112
  122MOL    C4343845   0.813   6.273   4.313  0.3464 -0.3069 -0.3022
  122MOL    H4443846   0.936   5.974   4.852  2.7947  0.8585 -2.4932
  122MOL    H4543847   0.953   6.128   4.778  1.3014 -1.0085 -0.0572
  122MOL    H4643848   0.691   6.159   4.818 -1.1422 -0.4141  0.1962
  122MOL    H4743849   0.814   5.969   4.608  0.4767  0.6123 -0.5395
  122MOL    H4843850   0.644   6.017   4.603  0.0919  0.5434  1.7927
  122MOL    H4943851   0.686   6.244   4.581  0.4481 -0.0362  0.6628
  122MOL    H5043852   0.864   6.215   4.579  1.2142 -0.9446 -1.0470
  122MOL    H5143853   0.857   6.071   4.371 -1.3896 -2.6285  2.1107
  122MOL    H5243854   0.691   6.117   4.355 -0.6886  0.3355  1.4161
  122MOL    H5343855   0.733   6.347   4.307 -0.9366 -1.6155  0.4917
  122MOL    H5443856   0.853   6.233   4.220 -0.4189 -1.8987  0.0391
  122MOL    H5543857   0.891   6.323   4.371 -1.0977 -0.2030  1.6012
  122MOL    C5643858   0.658   5.948   4.851  0.0207 -0.4067  0.1360
  122MOL    C5743859   0.519   5.993   4.900  0.4886  0.0883 -0.1107
  122MOL    C5843860   0.452   5.881   4.982  0.6400  0.1796 -0.5310
  122MOL    C5943861   0.397   5.765   4.905 -0.3916 -0.2499  0.1810
  122MOL    C6043862   0.335   5.647   4.991 -0.4355  0.5048 -0.1007
  122MOL    C6143863   0.266   5.550   4.906  0.0893 -0.1308  0.0241
  122MOL    H6243864   0.638   5.868   4.780 -1.5858  1.2810 -1.3761
  122MOL    H6343865   0.708   5.896   4.933 -1.5088 -1.2127  0.5876
  122MOL    H6443866   0.537   6.073   4.973  4.3416 -0.7333 -0.0750
  122MOL    H6543867   0.518   5.843   5.060 -2.4574 -0.9935  1.6249
  122MOL    H6643868   0.364   5.923   5.033 -0.2264 -0.5152 -1.4384
  122MOL    H6743869   0.478   5.706   4.861 -0.6081 -0.7453  0.4457
  122MOL    H6843870   0.318   5.786   4.832 -0.5911 -0.0750  0.4488
  122MOL    H6943871   0.421   5.600   5.038 -1.2099  0.9762  1.8817
  122MOL    H7043872   0.264   5.685   5.065 -1.5400  0.3931 -1.0892
  122MOL    H7143873   0.238   5.458   4.957 -0.5783 -0.8688 -1.6265
  122MOL    H7243874   0.182   5.596   4.854 -0.7663 -1.0796  0.5532
  122MOL    H7343875   0.330   5.519   4.823 -0.2300  0.4925 -0.4609
  122MOL    C7443876   0.427   6.042   4.782 -0.0660 -0.1527  0.5923
  122MOL    C7543877   0.276   6.089   4.810 -0.1922 -0.8118 -0.2660
  122MOL    C7643878   0.265   6.185   4.933 -0.3456 -0.5897 -0.0578
  122MOL    C7743879   0.337   6.325   4.929  0.5658  0.0225 -0.5708
  122MOL    C7843880   0.286   6.424   5.040 -0.0299  0.6233  0.4759
  122MOL    C7943881   0.380   6.549   5.042  0.6536 -0.2736 -0.3237
  122MOL    H8043882   0.481   6.120   4.729 -1.2092  0.5115  0.3983
  122MOL    H8143883   0.425   5.972   4.698  0.0921  2.1975 -1.4132
  122MOL    H8243884   0.219   6.003   4.847 -1.5821 -0.6316 -1.9489
  122MOL    H8343885   0.161   6.217   4.940  0.1316  0.4493  2.9064
  122MOL    H8443886   0.282   6.134   5.028 -0.1084  1.1380  0.8415
  122MOL    H8543887   0.444   6.305   4.938  0.4903 -0.0407  0.2129
  122MOL    H8643888   0.332   6.371   4.830  2.0053 -0.1012 -0.7174
  122MOL    H8743889   0.292   6.373   5.136  1.2223  0.6588  0.4322
  122MOL    H8843890   0.179   6.444   5.033  0.1182  0.8044 -1.4306
  122MOL    H8943891   0.486   6.523   5.039  0.8654 -0.2928  4.4130
  122MOL    H9043892   0.358   6.616   4.959 -0.1932  0.1915  0.2788
  122MOL    H9143893   0.353   6.610   5.128  1.9278 -0.2729  0.0854
  122MOL    C9243894   0.205   6.142   4.677 -0.2721  0.0424  0.2615
  122MOL    C9343895   0.180   6.037   4.563  0.1484 -0.6160  0.0969
  122MOL    C9443896   0.059   5.948   4.604 -0.1392  0.2203  0.2998
  122MOL    C9543897   0.074   5.803   4.568  0.3154  0.2462  1.0359
  122MOL    C9643898   7.701   5.712   4.631  1.0818  0.3099 -0.6414
  122MOL    C9743899   7.706   5.563   4.591 -0.1164  0.2527  0.4398
  122MOL    H9843900   0.108   6.190   4.692 -0.4819  0.3903 -2.0345
  122MOL    H9943901   0.278   6.212   4.638 -0.5701 -0.6747 -1.6241
  122MOL   H10043902   0.266   5.970   4.564 -0.7100 -1.7996 -1.6076
  122MOL   H10143903   7.692   5.992   4.570 -0.9110 -1.3143  0.3843
  122MOL   H10243904   0.057   5.950   4.713  0.3743  1.2706  0.2996
  122MOL   H10343905   0.059   5.799   4.461  0.3229  0.0848  1.0416
  122MOL   H10443906   0.171   5.762   4.598  0.1510  0.9457  2.5923
  122MOL   H10543907   7.698   5.711   4.740 -2.8213  1.0162 -0.6823
  122MOL   H10643908   7.599   5.739   4.605  0.1608 -0.9860  1.4157
  122MOL   H10743909   0.065   5.520   4.643 -0.5206  0.8691  1.6512
  122MOL   H10843910   7.619   5.513   4.634 -0.9918  0.8396 -0.6261
  122MOL   H10943911   7.705   5.528   4.488 -0.2242  0.2800  0.4321
  122MOL   C11043912   0.156   6.088   4.418 -0.1274  0.1420  0.1161
  122MOL   C11143913   0.274   6.102   4.320  0.0872 -0.4176 -0.6928
  122MOL   C11243914   0.355   5.976   4.319 -0.3716 -0.2223 -0.4978
  122MOL   C11343915   0.439   5.947   4.187 -0.3126  0.3881  0.2781
  122MOL   C11443916   0.502   5.808   4.182  0.1688 -0.2003 -0.5858
  122MOL   C11543917   0.419   5.688   4.147  0.0095 -0.3512 -0.1960
  122MOL   H11643918   0.082   6.037   4.357 -0.6053  1.9752 -0.8909
  122MOL   H11743919   0.111   6.187   4.431 -0.2570  0.0889  0.0677
  122MOL   H11843920   0.226   6.119   4.224  0.3631  1.3679 -0.5322
  122MOL   H11943921   0.286   5.892   4.322 -3.1424  1.9820  0.0337
  122MOL   H12043922   0.427   5.979   4.401  0.7127  0.2354 -1.4453
  122MOL   H12143923   0.520   6.019   4.198 -1.7092  1.4841  4.3129
  122MOL   H12243924   0.395   5.972   4.090 -1.1906  0.2871  0.6488
  122MOL   H12343925   0.550   5.787   4.278  1.0610  3.5372 -0.1449
  122MOL   H12443926   0.580   5.814   4.107  0.4501 -1.6171 -0.4366
  122MOL   H12543927   0.385   5.697   4.044 -2.5413  0.7807  0.6982
  122MOL   H12643928   0.474   5.594   4.149 -0.6689 -0.7268  1.7704
  122MOL   H12743929   0.328   5.677   4.206  0.5849 -0.3579  0.6924
  122MOL   C12843930   0.372   6.221   4.351 -0.4652 -0.0076  0.0487
  122MOL   C12943931   0.323   6.362   4.309 -0.4324 -0.0680  0.0517
  122MOL   C13043932   0.365   6.372   4.157  0.1750 -0.1111 -0.7697
  122MOL   C13143933   0.509   6.389   4.126 -0.7392  0.5793  0.9452
  122MOL   C13243934   0.537   6.423   3.980 -0.2527  0.0644  0.0151
  122MOL   C13343935   0.681   6.460   3.948 -0.5184 -0.5592 -0.7218
  122MOL   H13443936   0.460   6.193   4.294 -0.2287  1.8778 -0.5651
  122MOL   H13543937   0.419   6.210   4.449  1.9033  1.7901 -0.8490
  122MOL   H13643938   0.215   6.371   4.301 -0.3671  0.0479 -0.7901
  122MOL   H13743939   0.338   6.288   4.094  0.5486 -0.2559 -0.7355
  122MOL   H13843940   0.310   6.450   4.104 -1.5777 -0.2357  0.8084
  122MOL   H13943941   0.572   6.303   4.150 -0.4673 -0.4310 -3.1057
  122MOL   H14043942   0.548   6.469   4.189  2.8530  0.2304 -0.7063
  122MOL   H14143943   0.513   6.331   3.926  0.8798  0.1244 -0.6168
  122MOL   H14243944   0.475   6.501   3.936  0.2696  0.8122  0.6160
  122MOL   H14343945   0.713   6.561   3.973 -1.5531 -0.3766 -0.0880
  122MOL   H14443946   0.684   6.454   3.839 -2.7756 -1.3175 -0.7625
  122MOL   H14543947   0.752   6.383   3.978 -0.4983  0.1561  1.1178
  122MOL   C14643948   0.389   6.471   4.399  1.1402 -0.1546  0.5286
  122MOL   C14743949   0.349   6.618   4.359  0.7415  0.0384  0.1251
  122MOL   C14843950   0.426   6.722   4.445 -0.5655  0.3421 -0.0414
  122MOL   C14943951   0.373   6.741   4.588  0.4339 -0.7018 -0.6746
  122MOL   C15043952   0.437   6.861   4.653  0.3753 -0.3869  0.5221
  122MOL   C15143953   0.358   6.901   4.775 -0.5891  1.0247 -0.6459
  122MOL   H15243954   0.353   6.448   4.499 -0.9066 -1.5353 -0.4832
  122MOL   H15343955   0.497   6.461   4.402  1.1218 -0.3066  0.7309
  122MOL   H15443956   0.393   6.637   4.261  1.2848  2.3849  0.8001
  122MOL   H15543957   0.420   6.818   4.393  2.2438 -1.0730 -3.1584
  122MOL   H15643958   0.532   6.697   4.440 -1.0842 -1.6447 -1.5490
  122MOL   H15743959   0.268   6.771   4.575  0.4080 -0.5791 -0.1916
  122MOL   H15843960   0.370   6.647   4.642  0.7699 -0.0772  0.4450
  122MOL   H15943961   0.417   6.946   4.587  0.4802  0.7797  1.9512
  122MOL   H16043962   0.545   6.858   4.673  0.3020  0.4526  1.0610
  122MOL   H16143963   0.363   6.818   4.847 -1.9000  1.0753 -0.4823
  122MOL   H16243964   0.393   6.990   4.827 -0.6683  0.5118  0.2978
  122MOL   H16343965   0.254   6.915   4.747 -0.3845  3.2896 -0.3272
  122MOL   C16443966   0.196   6.643   4.359 -0.4026 -0.4583 -0.8631
  122MOL   C16543967   0.150   6.781   4.302  0.5197 -0.0808 -0.2775
  122MOL   C16643968   0.198   6.812   4.161  0.2478  0.1777 -0.2985
  122MOL   C16743969   0.147   6.714   4.052 -0.0673 -1.3139 -0.6558
  122MOL   C16843970   0.210   6.731   3.914 -0.4270  0.7031 -0.0172
  122MOL   C16943971   0.171   6.621   3.816  0.5950  0.6593 -0.0553
  122MOL   H17043972   0.144   6.572   4.294  1.8191 -0.4135 -2.7799
  122MOL   H17143973   0.153   6.618   4.456  1.8905 -1.3763 -0.0270
  122MOL   H17243974   0.201   6.857   4.361  2.3174 -1.7066  0.2978
  122MOL   H17343975   0.306   6.808   4.146  0.3725 -0.4502  0.7231
  122MOL   H17443976   0.156   6.908   4.132 -2.0768 -0.9227 -0.7100
  122MOL   H17543977   0.039   6.710   4.045 -0.1121 -2.2908  0.5762
  122MOL   H17643978   0.181   6.615   4.081 -0.7315 -1.3452  0.0230
  122MOL   H17743979   0.317   6.727   3.935 -0.5035 -0.7864  0.1948
  122MOL   H17843980   0.206   6.831   3.870  0.6046  0.2559 -1.1607
  122MOL   H17943981   0.170   6.521   3.859  2.5313  0.3869 -0.6239
  122MOL   H18043982   0.233   6.618   3.727 -0.7744 -1.9529 -0.9767
  122MOL   H18143983   0.065   6.633   3.793  0.7974  1.3451 -0.6390
  122MOL   C18243984   0.002   6.806   4.313 -1.0774  0.0582  0.3680
  122MOL   C18343985   7.672   6.827   4.450  0.0258 -0.4828 -0.9206
  122MOL   C18443986   7.595   6.702   4.500  0.1320  0.3134  0.3670
  122MOL   C18543987   7.582   6.685   4.653  0.9265 -0.3473 -0.0919
  122MOL   C18643988   7.709   6.654   4.733 -0.1797 -0.9448 -0.2389
  122MOL   C18743989   7.725   6.501   4.742  0.1832  0.1653 -0.3542
  122MOL   H18843990   7.701   6.881   4.239  0.3223  1.7001  1.4901
  122MOL   H18943991   7.681   6.714   4.278  2.0139 -1.2452 -0.5919
  122MOL   H19043992   0.032   6.842   4.515 -1.1232  1.5134  0.2093
  122MOL   H19143993   7.491   6.710   4.470 -0.4017  1.2343  2.4102
  122MOL   H19243994   7.635   6.609   4.458 -0.7379 -0.4638  1.2332
  122MOL   H19343995   7.499   6.619   4.680  0.7269 -0.1790 -0.2822
  122MOL   H19443996   7.539   6.775   4.696 -3.0172 -1.3846 -1.6295
  122MOL   H19543997   7.698   6.689   4.835  0.4098 -1.0084 -0.1477
  122MOL   H19643998   0.067   6.706   4.688 -1.1294  2.8321  2.0699
  122MOL   H19743999   0.106   6.495   4.751  0.1470 -0.9149 -0.6446
  122MOL   H19844000   7.708   6.454   4.646 -1.5133  3.1217 -1.5615
  122MOL   H19944001   7.663   6.444   4.812 -0.5602 -0.0198 -1.1528
  122MOL   C20044002   7.591   6.959   4.464 -0.4691 -0.3516 -0.4716
  122MOL   C20144003   7.669   7.093   4.459  0.6398 -1.3063  0.4741
  122MOL   C20244004   7.580   7.218   4.427 -0.2167 -0.4408  0.5194
  122MOL   C20344005   7.470   7.250   4.532 -0.2354 -0.3070  0.2275
  122MOL   C20444006   7.373   7.365   4.482  0.5753 -0.1606 -0.3241
  122MOL   C20544007   7.446   7.500   4.474  0.5113  0.1571  0.1623
  122MOL   H20644008   7.524   6.967   4.550  0.1354 -0.2522 -0.0070
  122MOL   H20744009   7.523   6.959   4.379 -0.0020 -0.7990 -0.8505
  122MOL   H20844010   0.005   7.068   4.374  1.0602 -0.3966  0.5125
  122MOL   H20944011   7.530   7.205   4.331 -3.1120 -0.0812  1.9266
  122MOL   H21044012   7.635   7.312   4.416  1.3474 -1.5078 -0.9821
  122MOL   H21144013   7.517   7.282   4.625 -0.6461 -0.6470  0.5559
  122MOL   H21244014   7.420   7.153   4.540  2.0784 -1.6051 -0.4198
  122MOL   H21344015   7.306   7.377   4.567  0.8519  0.0785 -0.1367
  122MOL   H21444016   7.306   7.346   4.398 -0.9865  0.6294  0.7197
  122MOL   H21544017   7.450   7.546   4.573  0.9729  0.2837  0.0818
  122MOL   H21644018   7.544   7.504   4.428  0.9093  0.6398  1.0408
  122MOL   H21744019   7.382   7.565   4.414  1.6736  0.0316 -1.2303
  122MOL   C21844020   0.040   7.108   4.583 -0.2874  0.1933  0.2160
  122MOL   C21944021   0.152   7.219   4.576 -0.1815  0.7858 -0.4023
  122MOL   C22044022   0.270   7.172   4.479 -0.3654 -0.4188 -0.2098
  122MOL   C22144023   0.268   7.231   4.335  0.1072 -0.0977  0.1357
  122MOL   C22244024   0.372   7.167   4.230  0.8354 -0.1235 -0.7844
  122MOL   C22344025   0.338   7.197   4.085 -0.2998 -0.1906 -0.0986
  122MOL   H22444026   7.698   7.135   4.663 -0.2557  1.9740 -0.3229
  122MOL   H22544027   0.101   7.024   4.616  2.3949  2.1209  0.3047
  122MOL   H22644028   0.103   7.300   4.522  0.6461  0.6816 -1.3414
  122MOL   H22744029   0.264   7.065   4.464  2.0659 -0.3805 -1.7542
  122MOL   H22844030   0.372   7.192   4.513 -0.5474  1.0195 -0.4751
  122MOL   H22944031   0.289   7.338   4.348 -1.6637  0.2567  0.1835
  122MOL   H23044032   0.170   7.226   4.289 -0.1887 -1.0066  0.8461
  122MOL   H23144033   0.471   7.206   4.254  1.0070  1.3369 -3.7566
  122MOL   H23244034   0.368   7.061   4.254  1.4392  0.1527  0.5647
  122MOL   H23344035   0.369   7.295   4.048  0.5992  0.2808  1.8584
  122MOL   H23444036   0.230   7.199   4.066 -0.3846  0.2856  0.4257
  122MOL   H23544037   0.381   7.120   4.021  1.4531  1.4848 -0.9897
  122MOL   C23644038   0.218   7.271   4.710 -0.6120 -0.3737  0.0488
  122MOL   C23744039   0.118   7.334   4.811 -0.4992 -0.4888  0.4633
  122MOL   C23844040   0.064   7.465   4.764 -0.2985 -1.1673 -0.2245
  122MOL   C23944041   0.172   7.570   4.728  0.0578 -0.1865  0.4404
  122MOL   C24044042   0.124   7.704   4.674 -0.1806  0.8615 -0.2182
  122MOL   C24144043   0.247   0.064   4.638 -0.6981  0.3205  0.8076
  122MOL   H24244044   0.261   7.186   4.764  0.7290  0.9033  1.0492
  122MOL   H24344045   0.300   7.341   4.696 -0.0708 -0.6723  1.5851
  122MOL   H24444046   0.028   7.273   4.813 -1.0953  0.3888  0.7312
  122MOL   H24544047   7.722   7.449   4.681  2.3942 -2.8376 -2.2497
  122MOL   H24644048   0.012   7.518   4.843  2.1878 -0.6370  1.1145
  122MOL   H24744049   0.224   7.527   4.642 -2.5367 -1.8160 -0.3751
  122MOL   H24844050   0.239   7.593   4.811 -0.4184  0.1066  0.7521
  122MOL   H24944051   0.052   7.701   4.592 -2.6892  1.6655  1.9183
  122MOL   H25044052   0.081   0.034   4.756 -0.2171  1.0315 -0.3543
  122MOL   H25144053   0.324   7.725   4.599 -0.4651  1.1093 -0.0691
  122MOL   H25244054   0.230   0.134   4.556 -2.9351  0.7712  1.6178
  122MOL   H25344055   0.292   0.109   4.727  3.7948 -0.4114 -0.9620
  122MOL   C25444056   0.187   7.359   4.949 -0.2624 -0.4229 -0.3453
  122MOL   C25544057   0.212   7.234   5.035 -0.1308 -0.4272  0.5599
  122MOL   C25644058   0.084   7.162   5.080 -0.8650 -0.8337 -0.0581
  122MOL   C25744059   0.092   7.007   5.097  0.0352 -0.4306 -0.0593
  122MOL   C25844060   7.683   6.936   5.127  0.0773  0.5279  0.1965
  122MOL   C25944061   7.693   6.782   5.150  0.5117  0.2694 -0.1093
  122MOL   H26044062   0.119   7.426   5.002  0.3051  0.9071 -1.2898
  122MOL   H26144063   0.281   7.413   4.936  0.2671 -0.9410  1.1834
  122MOL   H26244064   0.268   7.154   4.987 -0.2829  1.2380 -2.5515
  122MOL   H26344065   0.032   7.213   5.161 -0.9572 -0.0089 -0.6313
  122MOL   H26444066   0.017   7.185   4.997  1.5072  2.4521 -1.1938
  122MOL   H26544067   0.125   6.973   4.999 -0.5021 -1.2121  0.0278
  122MOL   H26644068   0.157   6.976   5.179 -1.2619 -2.2345  0.3241
  122MOL   H26744069   7.612   6.959   5.047  0.1704  2.2497  0.5775
  122MOL   H26844070   7.644   6.978   5.220  0.8359 -1.8551  1.6430
  122MOL   H26944071   0.036   6.749   5.227  0.3337 -1.4375 -0.6490
  122MOL   H27044072   7.724   6.736   5.056 -0.8307 -1.7505  0.3892
  122MOL   H27144073   7.597   6.740   5.179 -1.3213  2.1312 -3.1905
  122MOL   C27244074   0.298   7.274   5.164  0.6460  0.4638 -0.1884
  122MOL   C27344075   0.443   7.311   5.124  0.3783 -0.4223  0.6146
  122MOL   C27444076   0.546   7.220   5.169 -0.4628  0.4286 -0.2402
  122MOL   C27544077   0.535   7.078   5.115 -0.3402  0.6506 -0.3530
  122MOL   C27644078   0.642   6.976   5.153 -0.0450  0.1370  0.4843
  122MOL   C27744079   0.633   6.841   5.077 -0.5516 -0.3415 -0.0452
  122MOL   H27844080   0.254   7.364   5.207 -2.1375 -1.1227  0.3604
  122MOL   H27944081   0.300   7.192   5.235 -1.3556 -1.0364 -1.8171
  122MOL   H28044082   0.443   7.303   5.015 -0.6697 -0.5334  0.6141
  122MOL   H28144083   0.559   7.210   5.276 -0.1867  1.0961 -0.2130
  122MOL   H28244084   0.636   7.267   5.130 -0.9372 -0.2773 -2.2864
  122MOL   H28344085   0.536   7.088   5.006  0.0023  0.7249 -0.3450
  122MOL   H28444086   0.436   7.036   5.131  1.8200 -4.5460  0.7397
  122MOL   H28544087   0.736   7.024   5.124  0.9339 -0.4858  2.5032
  122MOL   H28644088   0.651   6.953   5.259 -0.7670 -1.5320  0.2027
  122MOL   H28744089   0.721   6.785   5.107  0.2104  1.7080  1.6811
  122MOL   H28844090   0.543   6.781   5.085 -1.6924  1.2782 -0.4240
  122MOL   H28944091   0.649   6.864   4.971  0.3811  0.9199  0.3567
  122MOL   C29044092   0.475   7.453   5.157 -0.7190  0.1580  0.6535
  122MOL   C29144093   0.490   7.496   5.305 -1.0137 -0.4454 -0.0641
  122MOL   C29244094   0.637   7.467   5.363  0.3299 -0.4065 -0.4299
  122MOL   C29344095   0.641   7.478   5.518 -0.2367  1.2004 -0.0582
  122MOL   C29444096   0.748   7.382   5.571  0.4176 -0.2378 -0.2251
  122MOL   C29544097   0.728   7.233   5.562 -0.0923 -0.2370  0.5847
  122MOL   H29644098   0.398   7.516   5.111 -1.0036 -0.3127  0.4842
  122MOL   H29744099   0.570   7.482   5.112  0.3729 -0.4727  2.4996
  122MOL   H29844100   0.423   7.425   5.353 -0.3350 -1.5900 -0.7993
  122MOL   H29944101   0.698   7.546   5.322 -1.8533  3.2491  2.9611
  122MOL   H30044102   0.683   7.376   5.324 -1.7213 -1.0401 -1.4637
  122MOL   H30144103   0.688   7.573   5.542  0.6454  1.0361 -1.1220
  122MOL   H30244104   0.545   7.469   5.570  0.9428 -0.9594  1.8335
  122MOL   H30344105   0.773   7.414   5.672 -0.1202 -0.1302 -0.1272
  122MOL   H30444106   0.840   7.406   5.518 -0.0967 -0.8242 -1.4064
  122MOL   H30544107   0.633   7.206   5.609 -1.4290  0.6915 -1.4919
  122MOL   H30644108   0.812   7.175   5.599 -0.1841 -0.8634 -0.1752
  122MOL   H30744109   0.714   7.203   5.458 -0.8377  2.3864 -0.1115
  122MOL   C30844110   0.449   7.647   5.333 -0.0446  0.1198  0.6710
  122MOL   C30944111   0.290   7.672   5.337 -0.5942  0.0767 -0.0930
  122MOL   C31044112   0.243   0.064   5.244 -0.7409 -0.1141 -0.2765
  122MOL   C31144113   0.093   0.061   5.215  1.0181 -0.7004 -0.0684
  122MOL   C31244114   0.028   0.191   5.149  0.4863  0.6578 -0.6119
  122MOL   C31344115   0.055   0.199   4.994 -0.0464 -0.0311 -0.5363
  122MOL   H31444116   0.490   7.686   5.426 -0.1399 -0.0777  0.7971
  122MOL   H31544117   0.496   7.712   5.260 -0.4935 -0.0800  0.1976
  122MOL   H31644118   0.242   7.588   5.287 -1.4957  0.8421 -0.5294
  122MOL   H31744119   0.304   0.055   5.154  0.3791  2.4476  0.1732
  122MOL   H31844120   0.284   0.156   5.286 -1.5253 -0.2328  0.7810
  122MOL   H31944121   0.042   0.058   5.312 -1.8483  1.0853 -1.4688
  122MOL   H32044122   0.067   7.697   5.161 -1.0233 -0.4753  0.4795
  122MOL   H32144123   7.649   0.188   5.176  0.8060  1.1679  0.7419
  122MOL   H32244124   0.057   0.283   5.199  0.5756  0.0093  0.5398
  122MOL   H32344125   0.158   0.190   4.961 -0.3964 -0.8447 -1.4179
  122MOL   H32444126   0.016   0.293   4.955 -1.4317 -0.0517  0.7554
  122MOL   H32544127   0.006   0.124   4.932  0.8188 -1.1819  0.1479
  122MOL   C32644128   0.243   7.696   5.482  0.1793  0.2401 -0.2402
  122MOL   C32744129   0.253   7.566   5.571  1.3181 -0.1833  0.1258
  122MOL   C32844130   0.217   7.601   5.720 -0.0718  0.1706  0.3148
  122MOL   C32944131   0.338   7.640   5.811 -0.8362  0.4690 -0.6189
  122MOL   C33044132   0.315   7.644   5.965  0.6326 -0.0676  0.5553
  122MOL   C33144133   0.186   7.720   6.004 -0.1422 -0.0674  0.2754
  122MOL   H33244134   0.137   7.722   5.480 -0.4741 -2.2207  1.3346
  122MOL   H33344135   0.290   0.057   5.526  0.8519  1.3386 -3.0367
  122MOL   H33444136   0.357   7.536   5.563  0.7570 -2.5024  1.0849
  122MOL   H33544137   0.137   7.675   5.731  0.9382  1.0946  1.5833
  122MOL   H33644138   0.187   7.507   5.767  0.5072  0.9607  2.3071
  122MOL   H33744139   0.365   0.013   5.776 -2.4255  1.2653  0.3501
  122MOL   H33844140   0.417   7.567   5.795 -0.7756  0.3592  0.1452
  122MOL   H33944141   0.307   7.539   5.994 -0.9438 -0.5928 -1.6413
  122MOL   H34044142   0.407   7.683   6.009  1.2695 -0.3252 -0.5212
  122MOL   H34144143   0.196   0.090   5.956  2.0677 -1.1948 -1.6561
  122MOL   H34244144   0.189   0.001   6.113  1.8329 -4.1081  0.6360
  122MOL   H34344145   0.093   7.680   5.965  1.4912 -1.1582 -2.6386
  122MOL   C34444146   0.165   7.446   5.514 -0.7762  0.2465 -0.2581
  122MOL   C34544147   0.229   7.309   5.532 -0.8435  0.0717 -0.0220
  122MOL   C34644148   0.128   7.190   5.513 -0.0828 -0.1360  0.4636
  122MOL   C34744149   0.189   7.059   5.556 -0.3019 -0.6021 -0.6215
  122MOL   C34844150   0.311   7.010   5.483 -0.2383 -0.7672 -0.9218
  122MOL   C34944151   0.349   6.872   5.540 -0.1392  0.2718 -0.2838
  122MOL   H35044152   0.071   7.452   5.569 -0.3395  0.8796  0.4323
  122MOL   H35144153   0.142   7.464   5.409 -2.1175 -0.7710 -0.1567
  122MOL   H35244154   0.274   7.283   5.628 -2.0263 -1.0918  0.2373
  122MOL   H35344155   0.036   7.210   5.567  0.3507 -1.5586  1.7810
  122MOL   H35444156   0.095   7.186   5.409 -3.2197  1.1866  1.3588
  122MOL   H35544157   0.221   7.070   5.660 -0.6273  2.4707 -0.7989
  122MOL   H35644158   0.115   6.979   5.560 -0.2655 -0.5538  1.8013
  122MOL   H35744159   0.279   7.009   5.379  0.8169 -1.0410 -1.2580
  122MOL   H35844160   0.400   7.073   5.485 -0.1874 -0.7927 -1.8362
  122MOL   H35944161   0.380   6.894   5.642  2.5655 -0.5462 -0.8909
  122MOL   H36044162   0.269   6.800   5.554  0.7224 -0.8602 -1.0822
  122MOL   H36144163   0.446   6.838   5.502 -1.4003 -1.0190 -2.4527
  122MOL   H36244164   0.308   7.293   5.458 -0.0598 -0.2228  0.8632
  123MOL     C144165   1.889   6.503   4.652 -0.2469 -0.0794  0.4735
  123MOL     C244166   1.893   6.437   4.518 -0.3582  0.0372  0.4886
  123MOL     C344167   1.758   6.424   4.455  0.3373 -0.4136  0.3427
  123MOL     C444168   1.711   6.564   4.414  0.6319  0.1779  0.0392
  123MOL     C544169   1.625   6.582   4.283 -0.4014 -0.3511 -0.0126
  123MOL     C644170   1.582   6.728   4.262 -0.5730  0.7488  0.8227
  123MOL     H744171   1.845   6.603   4.642 -0.6551 -0.3616 -0.6306
  123MOL     H844172   1.845   6.446   4.734 -0.3696  1.7553  1.7160
  123MOL     H944173   1.955   6.505   4.459 -1.6320  0.2779 -0.5992
  123MOL    H1044174   1.688   6.384   4.528 -1.2188  2.4689  0.4923
  123MOL    H1144175   1.754   6.365   4.363  0.3125 -0.0008  0.0769
  123MOL    H1244176   1.791   6.638   4.409 -0.5760  1.7344  2.8848
  123MOL    H1344177   1.656   6.604   4.499 -0.3556 -0.7479 -0.1440
  123MOL    H1444178   1.668   6.538   4.193 -1.4470  1.6693 -1.5342
  123MOL    H1544179   1.545   6.510   4.303  0.9803 -0.9998  3.7094
  123MOL    H1644180   1.530   6.730   4.166 -0.7461  0.1642  0.9051
  123MOL    H1744181   1.664   6.799   4.256 -0.1836  0.2817  0.5067
  123MOL    H1844182   1.509   6.759   4.337  0.1222 -1.0044  2.2439
  123MOL    H1944183   1.988   6.534   4.683 -0.7308  1.3869  0.6022
  123MOL    C2044184   1.979   6.308   4.515 -0.1524  0.2623 -0.5166
  123MOL    C2144185   2.113   6.320   4.443  0.5904  0.6557 -0.0471
  123MOL    C2244186   2.226   6.211   4.464  0.3399  0.1362  0.5742
  123MOL    C2344187   2.262   6.192   4.609 -0.4093 -0.0899 -0.0804
  123MOL    C2444188   2.375   6.085   4.630  0.8303 -0.1789  0.3342
  123MOL    C2544189   2.403   6.043   4.774  0.6816  0.5112  0.5566
  123MOL    H2644190   1.920   6.231   4.466 -3.2792  2.2395 -0.0373
  123MOL    H2744191   2.000   6.274   4.617 -1.2466 -1.1494 -0.7540
  123MOL    H2844192   2.158   6.414   4.476  1.7681  0.9566 -2.4182
  123MOL    H2944193   2.312   6.238   4.402  0.7696 -0.5449  0.8560
  123MOL    H3044194   2.188   6.115   4.427  1.0536 -0.8753  2.4184
  123MOL    H3144195   2.179   6.142   4.658  1.3976 -2.1932  0.9059
  123MOL    H3244196   2.291   6.292   4.641 -1.8469  0.4511 -0.4013
  123MOL    H3344197   2.342   5.997   4.574  0.5775 -0.1642  0.4599
  123MOL    H3444198   2.470   6.114   4.586  0.7619  0.7233  0.7769
  123MOL    H3544199   2.500   5.996   4.787  0.1122 -0.6757  0.5755
  123MOL    H3644200   2.399   6.135   4.833 -1.7083  0.4223  0.6062
  123MOL    H3744201   2.322   5.997   4.832  0.4543 -0.8651 -0.8350
  123MOL    C3844202   2.098   6.340   4.287  0.1756 -0.3701  0.2008
  123MOL    C3944203   2.218   6.422   4.228  0.0618  0.5786 -0.4509
  123MOL    C4044204   2.298   6.338   4.127  0.4498 -0.1586 -0.8449
  123MOL    C4144205   2.442   6.394   4.089 -0.4154  0.9620 -0.0104
  123MOL    C4244206   2.552   6.330   4.169 -0.3716 -0.4919  0.2761
  123MOL    C4344207   2.683   6.371   4.121  0.7070  0.2171 -0.7382
  123MOL    H4444208   2.002   6.387   4.266  0.9383  0.4270 -1.5721
  123MOL    H4544209   2.083   6.245   4.235 -0.8205  0.0049 -0.2202
  123MOL    H4644210   2.287   6.435   4.311  1.9471 -0.2635 -1.8567
  123MOL    H4744211   2.300   6.241   4.175 -1.5162 -0.0636 -0.5336
  123MOL    H4844212   2.232   6.336   4.040  1.7218  1.2497 -1.8816
  123MOL    H4944213   2.469   6.348   3.995 -0.0542 -1.0606  1.0482
  123MOL    H5044214   2.457   6.502   4.099 -4.6015  1.5699  0.5329
  123MOL    H5144215   2.534   6.354   4.273  0.4358 -0.6730  0.4597
  123MOL    H5244216   2.541   6.221   4.161 -2.3904 -0.3804  1.3053
  123MOL    H5344217   2.725   6.323   4.032  0.0907 -1.0155 -0.3608
  123MOL    H5444218   2.752   6.337   4.198 -1.4778  0.1804  1.2434
  123MOL    H5544219   2.704   6.479   4.121  0.4088  0.2755 -1.1892
  123MOL    C5644220   2.175   6.562   4.164  0.2224 -0.0931  0.6923
  123MOL    C5744221   2.131   6.675   4.260 -0.5472 -0.1866 -0.1894
  123MOL    C5844222   2.084   6.803   4.180  0.7070 -0.7455 -0.6437
  123MOL    C5944223   1.956   6.783   4.095 -0.2729 -0.5650  0.2653
  123MOL    C6044224   1.892   6.917   4.050 -0.3705  0.3752 -0.5910
  123MOL    C6144225   1.757   6.909   3.969 -0.3801 -0.3990  0.1134
  123MOL    H6244226   2.263   6.596   4.111  1.1977 -2.4277  0.7394
  123MOL    H6344227   2.102   6.546   4.085  0.3743  1.6126  0.1882
  123MOL    H6444228   2.059   6.628   4.328  1.2577 -1.7094  0.7225
  123MOL    H6544229   2.067   6.892   4.240  1.0749 -0.6135 -0.7332
  123MOL    H6644230   2.169   6.846   4.127  2.3601  0.9429  3.1750
  123MOL    H6744231   1.883   6.725   4.151 -0.0242 -1.7491 -0.6313
  123MOL    H6844232   1.991   6.731   4.006  0.6792  2.3273 -1.1087
  123MOL    H6944233   1.871   6.981   4.135  1.0612 -1.9359  1.5770
  123MOL    H7044234   1.964   6.973   3.990  1.1014 -0.4099  0.4270
  123MOL    H7144235   1.771   6.866   3.869 -1.1744  0.6759 -0.4707
  123MOL    H7244236   1.677   6.865   4.028 -1.6042  2.2545  0.4880
  123MOL    H7344237   1.719   7.009   3.949  0.6432 -0.0663 -0.2232
  123MOL    C7444238   2.259   6.700   4.357 -0.0301 -0.1768  0.1973
  123MOL    C7544239   2.245   6.813   4.455  0.3732  0.3113 -0.0131
  123MOL    C7644240   2.147   6.778   4.558  0.1224 -0.0094 -0.1802
  123MOL    C7744241   2.114   6.889   4.657  0.7669 -0.3564  0.1717
  123MOL    C7844242   1.988   6.854   4.746 -0.7702 -0.4072 -0.8401
  123MOL    C7944243   1.950   6.963   4.841 -0.0224 -0.2155 -0.4711
  123MOL    H8044244   2.298   6.615   4.413  1.6093  2.1123  2.6944
  123MOL    H8144245   2.341   6.725   4.290  0.0193  0.0374  0.3359
  123MOL    H8244246   2.204   6.905   4.413  1.5427  0.9464  0.2105
  123MOL    H8344247   2.051   6.754   4.511  0.5336  0.2936 -1.1719
  123MOL    H8444248   2.191   6.694   4.612 -1.1161 -2.0765 -2.3028
  123MOL    H8544249   2.198   6.926   4.716 -0.1201  0.2874  1.0447
  123MOL    H8644250   2.087   6.980   4.604 -1.2734 -0.0615  1.6574
  123MOL    H8744251   2.013   6.771   4.812 -1.5061 -1.0766 -1.3977
  123MOL    H8844252   1.901   6.830   4.686 -2.6888  1.5187  1.0481
  123MOL    H8944253   1.946   7.051   4.777 -1.7109 -0.3487 -0.5923
  123MOL    H9044254   1.856   6.947   4.894  0.4046 -0.8384  0.0980
  123MOL    H9144255   2.027   6.986   4.914 -2.4073  2.3266  1.3667
  123MOL    C9244256   2.382   6.852   4.517  0.3617 -0.1150  0.3305
  123MOL    C9344257   2.467   6.959   4.440 -0.1044 -0.6279  0.7858
  123MOL    C9444258   2.483   7.092   4.524  0.5086  0.2939  0.0809
  123MOL    C9544259   2.350   7.165   4.538 -0.1021 -0.5571 -0.1583
  123MOL    C9644260   2.352   7.294   4.610 -0.3065 -0.2246  0.3744
  123MOL    C9744261   2.211   7.348   4.643 -0.3928 -0.0925 -0.4993
  123MOL    H9844262   2.380   6.889   4.620 -2.6215  2.2044 -0.5044
  123MOL    H9944263   2.440   6.761   4.531  1.7110  0.3368 -2.0557
  123MOL   H10044264   2.411   6.976   4.348  1.5408 -1.6044 -0.4187
  123MOL   H10144265   2.551   7.148   4.460  2.9797 -1.0646  1.4573
  123MOL   H10244266   2.528   7.070   4.621 -1.4638  0.2806  1.0082
  123MOL   H10344267   2.313   7.199   4.441 -1.9027 -1.3685  0.2332
  123MOL   H10444268   2.278   7.094   4.579  0.3617 -0.3982  0.9419
  123MOL   H10544269   2.411   7.281   4.701  0.1982 -0.6041 -0.0028
  123MOL   H10644270   2.406   7.366   4.550 -0.8170  0.7764  1.1068
  123MOL   H10744271   2.206   7.435   4.709  0.1305 -1.0208  0.7805
  123MOL   H10844272   2.156   7.368   4.551 -0.5167 -0.5270 -0.5203
  123MOL   H10944273   2.152   7.278   4.703  1.2815 -1.5574 -0.5354
  123MOL   C11044274   2.607   6.894   4.399  0.4793  0.5609 -0.9986
  123MOL   C11144275   2.692   6.966   4.292  0.2650  0.6032 -0.1327
  123MOL   C11244276   2.627   6.965   4.149  0.3963 -0.4967  0.0667
  123MOL   C11344277   2.583   6.823   4.093 -0.0949  0.7364 -0.3465
  123MOL   C11444278   2.542   6.830   3.946 -0.4527 -0.6667  0.4878
  123MOL   C11544279   2.431   6.936   3.916  0.4838  0.0399  0.2863
  123MOL   H11644280   2.661   6.887   4.493  0.9697  0.8653 -1.2538
  123MOL   H11744281   2.587   6.794   4.360 -0.1838  0.0416  0.6338
  123MOL   H11844282   2.698   7.071   4.319  1.3363  0.7078 -0.7568
  123MOL   H11944283   2.689   7.008   4.070 -0.9350 -0.6049 -1.0601
  123MOL   H12044284   2.538   7.026   4.162  1.7872  1.0394  2.9211
  123MOL   H12144285   2.498   6.790   4.152 -0.6160 -0.3340 -1.6785
  123MOL   H12244286   2.660   6.746   4.105  0.7526  1.9748  2.5573
  123MOL   H12344287   2.496   6.734   3.921 -2.5137 -0.0410  1.7359
  123MOL   H12444288   2.632   6.842   3.885 -0.4995 -0.4621  0.4612
  123MOL   H12544289   2.363   6.947   4.000  2.4402  2.5389  1.6481
  123MOL   H12644290   2.468   7.023   3.862  0.8885 -1.0684 -1.2530
  123MOL   H12744291   2.364   6.896   3.841  0.0859 -0.8059  1.0846
  123MOL   C12844292   2.836   6.907   4.282 -0.5280 -0.0070 -0.1811
  123MOL   C12944293   2.926   6.929   4.404 -0.1679  1.1973  0.6866
  123MOL   C13044294   2.930   7.069   4.455 -0.5765  0.2709 -0.2462
  123MOL   C13144295   2.995   7.170   4.356 -0.1777  0.5343  0.2206
  123MOL   C13244296   3.000   7.312   4.415 -0.3595  0.2205  0.1996
  123MOL   C13344297   3.061   7.416   4.312  0.6659 -0.1971  0.1229
  123MOL   H13444298   2.879   6.958   4.196 -0.0540  0.6728  0.4589
  123MOL   H13544299   2.840   6.803   4.248 -0.5358  0.5158 -1.8221
  123MOL   H13644300   2.896   6.863   4.484 -1.4515 -3.4608 -3.4076
  123MOL   H13744301   2.833   7.107   4.486 -0.9618  0.2807 -1.4235
  123MOL   H13844302   2.979   7.072   4.552 -0.7108 -0.5201 -0.1524
  123MOL   H13944303   2.936   7.186   4.266  2.3114 -2.0527 -2.0031
  123MOL   H14044304   3.093   7.141   4.318  0.5072  1.8359  1.0029
  123MOL   H14144305   2.905   7.352   4.450  0.1926 -1.0162  3.2075
  123MOL   H14244306   3.075   7.305   4.493  0.4659 -4.5091 -0.8184
  123MOL   H14344307   3.166   7.395   4.292  0.8800  3.2425 -2.8495
  123MOL   H14444308   3.039   7.515   4.350  1.1827 -0.4461  1.0832
  123MOL   H14544309   3.008   7.406   4.217 -1.7718 -1.9089  1.5947
  123MOL   C14644310   3.064   6.871   4.362  0.3678  0.5734 -0.3353
  123MOL   C14744311   3.185   6.883   4.450  0.1883 -0.3276  0.1693
  123MOL   C14844312   3.301   6.801   4.380 -0.0667 -0.2814 -0.0384
  123MOL   C14944313   3.383   6.882   4.281  0.0544  0.2692  0.4166
  123MOL   C15044314   3.448   6.783   4.185  0.8418  0.4505  0.1561
  123MOL   C15144315   3.589   6.745   4.245  0.1552  0.4721 -0.2811
  123MOL   H15244316   3.064   6.765   4.335  3.2436  0.6708 -0.9067
  123MOL   H15344317   3.092   6.917   4.267  0.9150  2.1645  0.5688
  123MOL   H15444318   3.206   6.988   4.470 -0.6205 -0.1271 -0.0349
  123MOL   H15544319   3.269   6.709   4.331  0.7377 -1.0177  0.8118
  123MOL   H15644320   3.370   6.779   4.461 -0.7000  2.0370  1.1857
  123MOL   H15744321   3.316   6.935   4.213  1.3804  1.0074 -0.3383
  123MOL   H15844322   3.437   6.963   4.330 -0.3772  0.6530  0.2652
  123MOL   H15944323   3.475   6.827   4.089  0.7991 -0.4482 -0.2728
  123MOL   H16044324   3.388   6.695   4.162 -0.2509  0.9085  1.1899
  123MOL   H16144325   3.586   6.681   4.333 -2.7099 -0.9239 -1.3200
  123MOL   H16244326   3.632   6.686   4.165  0.6147 -1.5326  1.4217
  123MOL   H16344327   3.652   6.833   4.258 -0.3353  1.1005 -1.9799
  123MOL   C16444328   3.140   6.814   4.586 -0.2550 -0.3437  0.0794
  123MOL   C16544329   3.251   6.803   4.698 -0.5523  0.1909 -0.4572
  123MOL   C16644330   3.283   6.947   4.752  0.2620  0.3512  0.5226
  123MOL   C16744331   3.387   6.963   4.857 -0.0333  0.5387  0.5924
  123MOL   C16844332   3.440   7.102   4.890  0.8711 -0.0681  0.2450
  123MOL   C16944333   3.517   7.097   5.018  0.0623  0.4192 -0.3028
  123MOL   H17044334   3.053   6.854   4.637 -0.8237 -2.0156  0.4697
  123MOL   H17144335   3.112   6.712   4.558  0.6045 -0.7161  0.5500
  123MOL   H17244336   3.348   6.773   4.658  1.1291  2.8291  1.4530
  123MOL   H17344337   3.193   6.981   4.804  0.0135 -0.8321  0.8923
  123MOL   H17444338   3.302   7.019   4.673 -0.4428 -0.1267 -0.0824
  123MOL   H17544339   3.470   6.896   4.831 -1.5944 -2.4133  2.9273
  123MOL   H17644340   3.358   6.908   4.946  4.1450 -2.0247  0.5090
  123MOL   H17744341   3.359   7.172   4.913  0.9115 -0.4538  1.5998
  123MOL   H17844342   3.481   7.158   4.806 -1.4591  1.4946  0.1001
  123MOL   H17944343   3.566   7.194   5.029  0.2456  0.3588 -0.5620
  123MOL   H18044344   3.583   7.014   5.040  1.2248  1.4568  0.1290
  123MOL   H18144345   3.443   7.097   5.098  0.6542  0.0708  0.2469
  123MOL   C18244346   3.206   6.717   4.821  0.4691  0.0392 -0.7508
  123MOL   C18344347   3.160   6.565   4.799  0.2875  0.0396  0.4672
  123MOL   C18444348   3.134   6.499   4.941 -0.4351 -0.1338 -0.3698
  123MOL   C18544349   3.258   6.497   5.037 -0.1359 -0.3345  0.1410
  123MOL   C18644350   3.230   6.413   5.157  0.1397  0.4324  0.8804
  123MOL   C18744351   3.349   6.409   5.259  0.3617  0.4556  0.1630
  123MOL   H18844352   3.294   6.712   4.885 -1.0252  0.5625  1.3788
  123MOL   H18944353   3.135   6.780   4.874  0.9837  0.4626 -0.5539
  123MOL   H19044354   3.071   6.576   4.736  0.7390 -0.0726 -0.1913
  123MOL   H19144355   3.063   6.559   4.998 -2.9290 -1.7169 -1.7621
  123MOL   H19244356   3.090   6.400   4.933 -1.6440  0.1858  2.0022
  123MOL   H19344357   3.291   6.596   5.069 -1.1659  0.0460  0.0236
  123MOL   H19444358   3.334   6.442   4.982  0.8961  0.4988  0.7213
  123MOL   H19544359   3.206   6.312   5.124  3.7999 -0.3211  0.2793
  123MOL   H19644360   3.140   6.454   5.204 -0.0101 -0.4494  1.3810
  123MOL   H19744361   3.313   6.364   5.352 -1.5377 -1.1222 -1.2694
  123MOL   H19844362   3.386   6.510   5.274 -2.0868  1.2550  1.1322
  123MOL   H19944363   3.423   6.346   5.208 -1.1337 -1.1507 -0.0816
  123MOL   C20044364   3.264   6.481   4.718  0.5606  0.2332 -0.1927
  123MOL   C20144365   3.240   6.330   4.691  0.1168  0.2010 -0.3861
  123MOL   C20244366   3.128   6.289   4.590  0.4479  0.0819 -0.2313
  123MOL   C20344367   3.170   6.320   4.445 -0.7192  0.4335 -0.0153
  123MOL   C20444368   3.053   6.298   4.343 -0.5543 -0.2217 -0.1884
  123MOL   C20544369   3.030   6.152   4.293  0.2787  0.1385  0.3478
  123MOL   H20644370   3.365   6.486   4.759  0.3633 -0.6544  0.4136
  123MOL   H20744371   3.264   6.544   4.629 -0.4644 -1.2620 -1.2712
  123MOL   H20844372   3.193   6.290   4.781 -0.4630  0.0349 -0.7663
  123MOL   H20944373   3.030   6.334   4.607 -0.0240 -0.9372 -0.2244
  123MOL   H21044374   3.104   6.183   4.596  0.8963 -0.0498 -0.7989
  123MOL   H21144375   3.257   6.258   4.422 -1.5938 -0.1009 -1.9679
  123MOL   H21244376   3.208   6.422   4.441  2.4445 -0.7405 -1.9009
  123MOL   H21344377   3.071   6.373   4.266  1.7589  0.6578  1.1793
  123MOL   H21444378   2.958   6.319   4.393 -0.1006 -0.1353  0.6570
  123MOL   H21544379   2.959   6.141   4.210  0.9510  0.1572 -0.2382
  123MOL   H21644380   3.122   6.105   4.258 -1.1304 -1.1274 -1.8109
  123MOL   H21744381   3.002   6.088   4.376  0.9104 -1.4186 -0.6181
  123MOL   C21844382   3.376   6.252   4.675  0.2038  0.3934  0.5585
  123MOL   C21944383   3.441   6.199   4.806  0.1356  0.1561  0.3844
  123MOL   C22044384   3.588   6.236   4.806  0.3106  0.5905 -0.1424
  123MOL   C22144385   3.671   6.166   4.711  0.5971  0.1298  0.6870
  123MOL   C22244386   3.815   6.227   4.716  0.1875  0.5244 -0.2017
  123MOL   C22344387   3.928   6.162   4.628 -0.2478  0.0533  0.5049
  123MOL   H22444388   3.361   6.169   4.606 -0.0183 -0.0776  1.1726
  123MOL   H22544389   3.450   6.307   4.617 -0.6665  1.6480  0.5958
  123MOL   H22644390   3.390   6.251   4.888 -0.8723  0.3239 -0.3277
  123MOL   H22744391   3.634   6.239   4.905  0.7774 -1.8624 -0.2535
  123MOL   H22844392   3.593   6.342   4.779  1.9071  0.0922 -1.8893
  123MOL   H22944393   3.643   6.171   4.606  1.0637  2.2623  0.6431
  123MOL   H23044394   3.671   6.063   4.746  1.8112 -0.0407  0.2145
  123MOL   H23144395   3.809   6.335   4.705  3.5091  0.7188 -0.5970
  123MOL   H23244396   3.846   6.205   4.818 -2.6477 -0.5821  0.4820
  123MOL   H23344397   3.912   6.182   4.522  0.6180 -0.8387  0.1999
  123MOL   H23444398   3.920   6.055   4.648 -0.1753  0.0258  0.3799
  123MOL   H23544399   4.029   6.192   4.655  0.3404  0.2130 -1.8104
  123MOL   C23644400   3.409   6.049   4.846 -0.3460 -0.5891 -0.0388
  123MOL   C23744401   3.281   6.030   4.929 -0.1256 -0.4322  0.1451
  123MOL   C23844402   3.305   5.939   5.055 -0.2346  0.0162  0.4156
  123MOL   C23944403   3.401   5.988   5.167 -0.2251 -0.3258 -0.3753
  123MOL   C24044404   3.404   5.898   5.290 -0.0043  0.1636 -0.3728
  123MOL   C24144405   3.503   5.939   5.399  0.3660  0.4321  0.0351
  123MOL   H24244406   3.406   5.982   4.760 -0.0810  0.7017 -1.0704
  123MOL   H24344407   3.492   6.012   4.906 -1.7039 -3.1253  0.3390
  123MOL   H24444408   3.238   6.124   4.963  0.7870 -0.4348  1.3764
  123MOL   H24544409   3.206   5.933   5.100  0.6734 -0.0259  2.5052
  123MOL   H24644410   3.332   5.833   5.047 -1.2926 -0.3849  1.8673
  123MOL   H24744411   3.373   6.086   5.207  0.3744  0.4870 -1.9330
  123MOL   H24844412   3.502   6.008   5.133 -1.0519 -0.3926 -2.9774
  123MOL   H24944413   3.305   5.891   5.335  0.6391 -1.6960  0.8216
  123MOL   H25044414   3.424   5.792   5.271 -2.9033 -0.8509  1.6941
  123MOL   H25144415   3.491   6.045   5.422 -2.3897  0.1953 -0.0520
  123MOL   H25244416   3.483   5.881   5.489  1.1272 -1.3092 -0.8895
  123MOL   H25344417   3.608   5.931   5.371 -0.0572 -1.1587 -1.1354
  123MOL   C25444418   3.175   5.949   4.840 -0.4183 -0.1015  0.3276
  123MOL   C25544419   3.029   5.960   4.878 -0.0714  0.4687  0.1710
  123MOL   C25644420   2.942   5.841   4.819 -0.7047 -0.2748  0.4217
  123MOL   C25744421   2.966   5.698   4.866 -0.2068 -0.5517 -0.0946
  123MOL   C25844422   2.895   5.604   4.775  0.9767 -0.8251  0.4241
  123MOL   C25944423   2.931   5.462   4.808  0.2777  0.1319  0.0024
  123MOL   H26044424   3.197   5.842   4.845 -2.5702 -0.5981 -0.1291
  123MOL   H26144425   3.189   5.974   4.735  0.1228 -0.0301  0.4165
  123MOL   H26244426   3.030   5.957   4.987  1.0591 -2.3135  0.1218
  123MOL   H26344427   2.838   5.872   4.813 -0.2413  0.9812 -1.4876
  123MOL   H26444428   2.959   5.842   4.711 -0.8162  0.7014  0.4127
  123MOL   H26544429   3.071   5.668   4.876  0.3255  1.0086 -0.8012
  123MOL   H26644430   2.918   5.694   4.964  2.8104 -0.3046  1.4842
  123MOL   H26744431   2.942   5.617   4.678  0.8041  0.8254  0.5548
  123MOL   H26844432   2.789   5.628   4.784  0.6989 -0.8054 -2.5907
  123MOL   H26944433   3.039   5.443   4.804  1.1572  4.6924 -0.2125
  123MOL   H27044434   2.876   5.396   4.740  0.0219  0.2313  0.1150
  123MOL   H27144435   2.895   5.434   4.906  1.9768 -1.6477  0.1636
  123MOL   C27244436   2.975   6.096   4.827  0.2601 -0.1244 -0.2954
  123MOL   C27344437   2.849   6.153   4.902 -0.1202 -0.4029  0.6884
  123MOL   C27444438   2.810   6.280   4.825 -0.5026 -0.2579  1.1097
  123MOL   C27544439   2.740   6.264   4.693 -0.5564  0.4329  0.3517
  123MOL   C27644440   2.724   6.392   4.613  0.0653  0.4216 -0.1011
  123MOL   C27744441   2.625   6.503   4.671  0.7975 -0.4797 -0.8293
  123MOL   H27844442   3.052   6.173   4.836  0.0368  0.0867 -0.1870
  123MOL   H27944443   2.957   6.093   4.720 -0.9649  0.2900 -0.1070
  123MOL   H28044444   2.774   6.074   4.895  1.3076 -1.6624 -0.9160
  123MOL   H28144445   2.897   6.346   4.821 -1.0299  0.4140  0.7055
  123MOL   H28244446   2.739   6.341   4.880 -1.3513 -0.6400  0.4378
  123MOL   H28344447   2.644   6.215   4.710 -0.2251  0.1633  1.5311
  123MOL   H28444448   2.805   6.202   4.632  2.1138  1.8937  1.6079
  123MOL   H28544449   2.816   6.450   4.602 -0.5389  0.8903 -3.3183
  123MOL   H28644450   2.684   6.370   4.514 -3.3173  1.0852  1.0652
  123MOL   H28744451   2.656   6.542   4.768  3.1132  1.9522 -2.4353
  123MOL   H28844452   2.630   6.580   4.594  0.2191 -1.6626 -2.0616
  123MOL   H28944453   2.525   6.461   4.677  0.1025  1.3870  1.3864
  123MOL   C29044454   2.880   6.186   5.054  0.5340 -0.5217 -0.8101
  123MOL   C29144455   2.744   6.200   5.130 -0.1686  0.5479 -0.1688
  123MOL   C29244456   2.668   6.067   5.166 -0.4680  0.1989  0.5350
  123MOL   C29344457   2.522   6.099   5.185  1.0057 -0.0072 -0.2828
  123MOL   C29444458   2.441   5.971   5.196 -0.4103 -0.2618  0.1801
  123MOL   C29544459   2.293   5.995   5.243  0.0334 -0.5334  0.0488
  123MOL   H29644460   2.932   6.282   5.042  2.4663 -1.3783  0.4643
  123MOL   H29744461   2.943   6.118   5.111 -1.8072 -1.5235  0.6683
  123MOL   H29844462   2.684   6.257   5.060  1.0248 -0.6696 -2.2589
  123MOL   H29944463   2.720   6.027   5.253 -2.8230 -0.2793  1.7970
  123MOL   H30044464   2.666   6.005   5.077  0.0805  0.4718  0.3318
  123MOL   H30144465   2.506   6.161   5.273 -0.2687 -0.6223 -0.0661
  123MOL   H30244466   2.475   6.153   5.103  0.3840  0.0307  0.0950
  123MOL   H30344467   2.476   5.908   5.277 -1.7767 -1.2551  0.0168
  123MOL   H30444468   2.440   5.915   5.103  1.2067 -0.5639  0.3343
  123MOL   H30544469   2.233   6.046   5.167 -0.8854 -1.9909 -0.2304
  123MOL   H30644470   2.286   6.060   5.331 -0.9437 -1.1212  0.4213
  123MOL   H30744471   2.247   5.901   5.272 -1.0603  0.2454  0.8873
  123MOL   C30844472   2.771   6.280   5.258 -0.0303  0.0839 -0.4945
  123MOL   C30944473   2.782   6.431   5.241  0.2661 -0.4440  0.9588
  123MOL   C31044474   2.848   6.495   5.364 -0.5117  0.3291 -0.7743
  123MOL   C31144475   2.770   6.460   5.502 -0.0473 -0.4510  0.4855
  123MOL   C31244476   2.819   6.526   5.631  0.2913  0.5420  0.3413
  123MOL   C31344477   2.741   6.446   5.735 -0.3986 -0.2712 -0.2633
  123MOL   H31444478   2.703   6.255   5.339  0.0495  1.8282  0.1332
  123MOL   H31544479   2.868   6.243   5.291  0.3088 -0.1113 -1.6699
  123MOL   H31644480   2.856   6.448   5.162 -0.1045 -0.0571  0.6913
  123MOL   H31744481   2.863   6.602   5.357  0.1858  0.4853  2.2606
  123MOL   H31844482   2.950   6.457   5.371  0.4544  2.9665  0.0731
  123MOL   H31944483   2.792   6.354   5.507  0.4172 -0.2900  2.0281
  123MOL   H32044484   2.663   6.475   5.487  0.9443  4.2917 -3.3816
  123MOL   H32144485   2.927   6.520   5.642  0.4336  1.9095 -0.3300
  123MOL   H32244486   2.794   6.632   5.622 -0.1498  0.3118 -1.3701
  123MOL   H32344487   2.769   6.472   5.837 -2.5695  2.3137 -0.2719
  123MOL   H32444488   2.766   6.340   5.732 -0.0894 -0.2199  0.2877
  123MOL   H32544489   2.633   6.455   5.733 -0.4326 -0.2332  1.0191
  123MOL   C32644490   2.642   6.489   5.201 -0.2522  0.4064  0.0089
  123MOL   C32744491   2.648   6.581   5.081 -0.6884  0.0351 -0.5906
  123MOL   C32844492   2.506   6.596   5.028  0.6593 -0.3188 -0.0649
  123MOL   C32944493   2.432   6.468   4.983  0.5364  0.3110  0.3990
  123MOL   C33044494   2.315   6.511   4.892 -0.4266  0.6873  0.2504
  123MOL   C33144495   2.188   6.549   4.964 -0.5944  0.1161 -0.2557
  123MOL   H33244496   2.594   6.534   5.288  0.2845  0.3297  0.3506
  123MOL   H33344497   2.580   6.403   5.177 -0.1382  0.0098  1.1046
  123MOL   H33444498   2.716   6.538   5.007  1.4718  1.0479  0.7414
  123MOL   H33544499   2.451   6.657   5.099 -1.0363 -0.1445 -1.4848
  123MOL   H33644500   2.501   6.671   4.949 -0.1231 -2.0578 -1.7193
  123MOL   H33744501   2.389   6.410   5.065  1.1032 -0.8393 -0.0943
  123MOL   H33844502   2.498   6.402   4.927  0.3436  0.3385  0.1435
  123MOL   H33944503   2.354   6.591   4.830  1.3703  1.3296  2.1543
  123MOL   H34044504   2.293   6.433   4.818 -1.1292  2.1966 -1.1601
  123MOL   H34144505   2.114   6.587   4.894 -3.1365 -1.5071  1.4743
  123MOL   H34244506   2.213   6.619   5.044  0.5755 -0.6331  0.0496
  123MOL   H34344507   2.141   6.468   5.019 -0.4124  0.0930 -0.1338
  123MOL   C34444508   2.710   6.717   5.112 -0.1581 -0.3399 -0.3322
  123MOL   C34544509   2.761   6.799   4.984 -0.2299 -0.3106  0.3917
  123MOL   C34644510   2.805   6.941   5.006  0.1771  0.0833 -0.6759
  123MOL   C34744511   2.787   7.024   4.885  0.3159 -0.3107  0.5148
  123MOL   C34844512   2.791   7.175   4.918  1.0223 -0.6784  1.0039
  123MOL   C34944513   2.775   7.266   4.794 -0.6258  0.3608  0.5992
  123MOL   H35044514   2.651   6.782   5.176 -2.7028 -1.1904 -1.7253
  123MOL   H35144515   2.805   6.703   5.163 -0.6350 -2.8066 -0.0419
  123MOL   H35244516   2.674   6.821   4.922 -0.4926  0.1928  0.9453
  123MOL   H35344517   2.758   6.983   5.095  1.7826 -3.3747  1.9113
  123MOL   H35444518   2.908   6.936   5.041  0.2026 -0.3415 -0.8060
  123MOL   H35544519   2.877   7.011   4.824  0.5643  1.4086  0.4770
  123MOL   H35644520   2.701   6.995   4.825  0.2891 -1.8534  1.2900
  123MOL   H35744521   2.709   7.195   4.987  0.2548  0.8816 -0.3185
  123MOL   H35844522   2.882   7.207   4.968 -0.2053  3.3947  0.7435
  123MOL   H35944523   2.824   7.224   4.706 -0.2089  0.4710  0.7763
  123MOL   H36044524   2.672   7.259   4.759 -0.2776  1.3996 -0.6744
  123MOL   H36144525   2.809   7.367   4.816  0.1693  0.2521 -0.1253
  123MOL   H36244526   2.833   6.742   4.924 -0.0237 -0.5840  0.8975
  124MOL     C144527   5.449   6.630   4.515  1.0556 -0.5527 -0.1953
  124MOL     C244528   5.544   6.672   4.401  0.1129 -0.5497  0.3493
  124MOL     C344529   5.610   6.808   4.423  0.0099 -0.2015  0.2024
  124MOL     C444530   5.506   6.917   4.450  0.8839 -0.5014 -0.1872
  124MOL     C544531   5.562   7.061   4.472  0.6319  0.3420  0.4619
  124MOL     C644532   5.459   7.174   4.479  0.1934 -0.7548  0.2884
  124MOL     H744533   5.483   6.671   4.610 -2.1435 -1.6293  1.4876
  124MOL     H844534   5.350   6.676   4.505  1.9253  1.0820 -1.5558
  124MOL     H944535   5.634   6.613   4.417 -0.9813 -1.9974  1.2741
  124MOL    H1044536   5.665   6.839   4.335 -0.9764  1.7674  0.2458
  124MOL    H1144537   5.676   6.800   4.510 -0.5886  0.6273  0.7434
  124MOL    H1244538   5.451   6.893   4.540  0.3709  1.1720 -0.0383
  124MOL    H1344539   5.437   6.915   4.366  1.8361 -2.4208 -0.9450
  124MOL    H1444540   5.620   7.063   4.565  2.9094 -1.1713 -0.8730
  124MOL    H1544541   5.637   7.097   4.401 -2.4086  2.8519 -1.6115
  124MOL    H1644542   5.491   7.259   4.540 -0.4428 -2.2260  2.7474
  124MOL    H1744543   5.371   7.137   4.532 -0.8554 -0.7211 -1.4003
  124MOL    H1844544   5.423   7.204   4.381 -1.2612 -0.6351  0.8407
  124MOL    H1944545   5.437   6.522   4.525 -0.7237 -0.2223  1.6685
  124MOL    C2044546   5.481   6.640   4.261  0.5351 -0.9778  0.5262
  124MOL    C2144547   5.564   6.680   4.133  0.0225  0.7439 -0.5287
  124MOL    C2244548   5.679   6.583   4.107  0.1491  0.3762 -0.9364
  124MOL    C2344549   5.790   6.636   4.007 -0.3099 -0.2450 -0.8034
  124MOL    C2444550   5.915   6.550   3.984 -0.3971  0.5823 -0.4812
  124MOL    C2544551   6.024   6.616   3.907 -0.3475 -0.6592 -0.1203
  124MOL    H2644552   5.386   6.692   4.252  1.0370 -0.2114 -0.5612
  124MOL    H2744553   5.451   6.536   4.252 -1.1874 -0.4523 -0.1037
  124MOL    H2844554   5.615   6.775   4.144 -0.1961  0.7951  0.0567
  124MOL    H2944555   5.634   6.493   4.065 -0.5402  0.1719  0.2243
  124MOL    H3044556   5.732   6.566   4.201 -2.2052  1.0701  0.5658
  124MOL    H3144557   5.825   6.732   4.046 -2.3150 -0.5165  1.8322
  124MOL    H3244558   5.747   6.655   3.908 -3.5090  0.8831  0.7352
  124MOL    H3344559   5.971   6.513   4.070 -0.6621 -0.8267 -0.9016
  124MOL    H3444560   5.895   6.454   3.936 -1.2272  0.5899 -0.1585
  124MOL    H3544561   6.051   6.697   3.974  0.9929 -1.7482  0.6684
  124MOL    H3644562   6.098   6.542   3.877  0.3908  0.1545 -0.3227
  124MOL    H3744563   5.978   6.655   3.816 -0.6726 -2.6672 -0.8503
  124MOL    C3844564   5.474   6.681   4.013 -0.0073 -0.0951  0.5847
  124MOL    C3944565   5.403   6.821   3.996 -0.1183 -0.6118  0.2010
  124MOL    C4044566   5.496   6.939   3.950  0.1641 -0.1163 -0.5054
  124MOL    C4144567   5.434   7.074   4.000 -0.1015  1.4339 -0.1482
  124MOL    C4244568   5.536   7.189   4.007  0.3529  0.5148  0.1964
  124MOL    C4344569   5.476   7.326   4.041 -0.2969 -0.0735  0.4151
  124MOL    H4444570   5.401   6.601   4.017  0.3729 -0.5381 -1.0491
  124MOL    H4544571   5.525   6.664   3.918  0.3815 -0.0498  0.7828
  124MOL    H4644572   5.372   6.845   4.097  1.4954 -0.2938  0.6421
  124MOL    H4744573   5.590   6.927   4.003  0.1874 -0.3019 -0.5904
  124MOL    H4844574   5.529   6.922   3.848  0.7391 -1.4774 -0.1022
  124MOL    H4944575   5.353   7.092   3.928 -0.5551  0.0729  0.0064
  124MOL    H5044576   5.393   7.053   4.099 -0.2404  1.0514 -0.2834
  124MOL    H5144577   5.608   7.165   4.085  1.1062 -0.4423 -0.7835
  124MOL    H5244578   5.588   7.190   3.912  0.1479  1.8271  0.0884
  124MOL    H5344579   5.431   7.321   4.140 -1.6281  1.3220 -0.1103
  124MOL    H5444580   5.398   7.352   3.971 -0.0294 -1.6514 -0.4987
  124MOL    H5544581   5.548   7.405   4.020 -0.7364  0.3188  0.3876
  124MOL    C5644582   5.259   6.819   3.930  0.2433 -0.8546 -0.1881
  124MOL    C5744583   5.237   6.791   3.774  0.4401  0.5601 -0.4638
  124MOL    C5844584   5.335   6.675   3.725  0.0516  0.1072  0.7383
  124MOL    C5944585   5.296   6.593   3.597  0.0878 -0.7155 -0.1275
  124MOL    C6044586   5.183   6.495   3.616  0.7058 -0.4577 -0.7082
  124MOL    C6144587   5.178   6.394   3.506 -0.1255  0.1719  0.2032
  124MOL    H6244588   5.207   6.737   3.980 -1.5685  0.2672 -0.1777
  124MOL    H6344589   5.210   6.913   3.957 -0.0002 -1.7098  2.4874
  124MOL    H6444590   5.136   6.750   3.762  0.4595  0.4533 -0.2661
  124MOL    H6544591   5.435   6.715   3.712 -0.9332  2.0280 -1.3346
  124MOL    H6644592   5.343   6.595   3.798 -0.8799  0.5594  1.3419
  124MOL    H6744593   5.388   6.547   3.561  0.2216  0.2830 -1.1063
  124MOL    H6844594   5.281   6.659   3.511  2.2762 -2.6342 -2.0361
  124MOL    H6944595   5.193   6.448   3.713  2.3920 -0.9005 -1.0700
  124MOL    H7044596   5.095   6.559   3.616  0.6604 -0.5019  1.1903
  124MOL    H7144597   5.078   6.350   3.498 -0.2473  0.1348  1.7207
  124MOL    H7244598   5.202   6.447   3.414  3.6331 -2.4685 -0.4441
  124MOL    H7344599   5.258   6.320   3.512 -0.3663 -0.0152  1.2929
  124MOL    C7444600   5.234   6.919   3.685  0.3433 -0.6488 -1.0801
  124MOL    C7544601   5.120   7.025   3.712 -0.0191 -0.8155 -0.0686
  124MOL    C7644602   5.164   7.150   3.626 -0.2892  0.2919  0.1380
  124MOL    C7744603   5.260   7.247   3.699  0.6264 -0.2296 -0.5101
  124MOL    C7844604   5.253   7.399   3.665  0.4434 -0.0802  0.0233
  124MOL    C7944605   5.323   7.442   3.539  0.3015 -0.1363  0.0247
  124MOL    H8044606   5.330   6.969   3.690  0.4621 -1.1284  2.0309
  124MOL    H8144607   5.220   6.884   3.582 -0.9985  0.9501 -1.4629
  124MOL    H8244608   5.125   7.059   3.815  0.0187 -0.5775 -0.1490
  124MOL    H8344609   5.207   7.122   3.530 -0.4670  1.7273 -0.3672
  124MOL    H8444610   5.078   7.211   3.599  0.1398  0.3392 -1.1477
  124MOL    H8544611   5.246   7.238   3.807 -0.2377 -0.2938 -0.6244
  124MOL    H8644612   5.366   7.219   3.693  1.0830  0.4486  3.0801
  124MOL    H8744613   5.275   7.455   3.756  1.4974 -0.3959 -0.0305
  124MOL    H8844614   5.146   7.419   3.658  0.1527 -2.5898 -3.7134
  124MOL    H8944615   5.427   7.411   3.535 -0.2645 -2.0130 -1.1883
  124MOL    H9044616   5.259   7.405   3.458 -2.3101  0.1581  1.8766
  124MOL    H9144617   5.327   7.549   3.521 -0.6778  0.0425  0.8416
  124MOL    C9244618   4.976   6.969   3.692  0.6166  0.0150 -0.1819
  124MOL    C9344619   4.875   6.991   3.804  0.0820 -0.0866  0.0401
  124MOL    C9444620   4.899   6.890   3.925 -0.2254 -0.2937 -0.0252
  124MOL    C9544621   4.832   6.750   3.910  0.0644 -0.8867  0.1353
  124MOL    C9644622   4.681   6.755   3.929 -0.2615  0.0665  0.1630
  124MOL    C9744623   4.612   6.620   3.948  0.2969  0.3506 -0.2750
  124MOL    H9844624   4.933   7.018   3.604 -0.0879  1.4216  0.9382
  124MOL    H9944625   4.983   6.863   3.668  2.1706  0.3786 -1.4353
  124MOL   H10044626   4.786   6.960   3.748  1.1295 -1.3174 -0.9792
  124MOL   H10144627   4.860   6.923   4.021 -0.4785  2.8106 -1.1450
  124MOL   H10244628   5.005   6.873   3.938 -0.6504 -2.8103  0.4531
  124MOL   H10344629   4.862   6.713   3.812 -2.1297 -1.1223 -0.4823
  124MOL   H10444630   4.872   6.680   3.984 -0.0162 -0.7527  0.3066
  124MOL   H10544631   4.644   6.831   3.998 -0.6393  1.5908 -1.6450
  124MOL   H10644632   4.634   6.785   3.835 -0.7593  1.0434  0.7108
  124MOL   H10744633   4.504   6.636   3.941  0.3015 -0.5815 -2.8732
  124MOL   H10844634   4.634   6.562   3.858  0.6534 -1.3256  0.8790
  124MOL   H10944635   4.636   6.573   4.043  2.1197 -1.3044 -1.5286
  124MOL   C11044636   4.843   7.135   3.843  0.2049 -0.6756 -0.2396
  124MOL   C11144637   4.707   7.154   3.921 -0.0084  0.8179  0.4773
  124MOL   C11244638   4.586   7.160   3.824 -0.1741 -0.5638  0.4618
  124MOL   C11344639   4.438   7.149   3.884 -0.0483  0.2234  0.0276
  124MOL   C11444640   4.417   7.011   3.960  0.1256 -0.1053  0.1804
  124MOL   C11544641   4.430   7.028   4.110 -0.2779  0.4418 -0.0137
  124MOL   H11644642   4.926   7.170   3.904 -0.7339  0.4386  0.4260
  124MOL   H11744643   4.840   7.186   3.747 -0.9534 -1.4004 -0.6105
  124MOL   H11844644   4.687   7.067   3.984  0.4153  1.5541  1.6253
  124MOL   H11944645   4.590   7.081   3.749 -0.2953 -1.1851  1.1079
  124MOL   H12044646   4.598   7.257   3.774  0.5490 -0.4374  0.8837
  124MOL   H12144647   4.372   7.159   3.798 -1.5883  0.5276  1.2346
  124MOL   H12244648   4.413   7.236   3.944 -2.2979 -0.5862  0.3017
  124MOL   H12344649   4.495   6.947   3.918 -0.6913 -0.3406 -1.0168
  124MOL   H12444650   4.321   6.966   3.934 -0.4915  1.5618 -0.5116
  124MOL   H12544651   4.532   7.053   4.138 -0.5096 -0.4872  1.6908
  124MOL   H12644652   4.364   7.100   4.156  0.6820  1.8502 -0.7923
  124MOL   H12744653   4.411   6.940   4.171  0.0806  0.9237  0.8004
  124MOL   C12844654   4.714   7.275   4.021  0.5665  0.1750  0.1327
  124MOL   C12944655   4.732   7.420   3.965  0.2888 -0.2556 -0.3282
  124MOL   C13044656   4.812   7.502   4.071  0.4543 -0.5051  0.0904
  124MOL   C13144657   4.897   7.613   4.008  0.2248 -0.1328  0.4346
  124MOL   C13244658   5.031   7.575   3.935  0.5046  0.4150  0.0208
  124MOL   C13344659   5.122   7.697   3.899 -0.2426 -0.3371  0.2457
  124MOL   H13444660   4.795   7.254   4.091 -0.4171  1.5945  1.7308
  124MOL   H13544661   4.630   7.273   4.090 -0.1447 -3.7221 -0.7340
  124MOL   H13644662   4.782   7.417   3.868  0.8129  0.0862 -0.0727
  124MOL   H13744663   4.757   7.552   4.151  2.1167  0.8137  0.4344
  124MOL   H13844664   4.881   7.434   4.121  1.9697  0.7881 -0.2043
  124MOL   H13944665   4.917   7.685   4.087  2.0647  2.0161 -1.9128
  124MOL   H14044666   4.834   7.668   3.938 -0.0314 -1.9925 -0.8460
  124MOL   H14144667   5.078   7.491   3.985  0.2702 -2.3118 -4.0590
  124MOL   H14244668   5.000   7.525   3.843 -0.8491  1.5616 -0.1679
  124MOL   H14344669   5.214   7.673   3.846 -0.4979 -0.5576 -0.0928
  124MOL   H14444670   5.159   0.008   3.994 -1.8382  0.7149  0.4638
  124MOL   H14544671   5.076   0.038   3.827  2.3644  1.8442  0.5473
  124MOL   C14644672   4.590   7.478   3.938 -0.2100 -0.3344 -0.3634
  124MOL   C14744673   4.578   7.587   3.834 -0.3321 -0.2265 -0.6979
  124MOL   C14844674   4.467   7.685   3.878 -0.7023  0.8306 -0.2518
  124MOL   C14944675   4.487   0.053   3.996 -0.1245  0.0595  0.2751
  124MOL   C15044676   4.598   0.155   3.976 -0.0618  0.3310 -0.1160
  124MOL   C15144677   4.622   0.227   4.105 -0.6646 -0.0123 -0.5423
  124MOL   H15244678   4.514   7.404   3.912 -0.1082 -0.6391  0.2009
  124MOL   H15344679   4.566   7.509   4.040  2.1956  0.5787 -0.0578
  124MOL   H15444680   4.666   7.652   3.837 -1.0749  0.6958  1.5206
  124MOL   H15544681   4.378   7.625   3.898 -0.6061  0.5470 -0.6722
  124MOL   H15644682   4.442   0.023   3.794 -2.2270  0.9340  0.2501
  124MOL   H15744683   4.392   0.105   4.007 -0.5145 -0.8008  0.9823
  124MOL   H15844684   4.504   0.002   4.091 -1.5994  1.5914  1.4100
  124MOL   H15944685   4.575   0.225   3.895 -3.0609 -0.2353  0.1726
  124MOL   H16044686   4.687   0.119   3.924  0.6653  2.0539 -0.1010
  124MOL   H16144687   4.527   0.275   4.131 -0.9009  0.8845 -2.8654
  124MOL   H16244688   4.650   0.162   4.187 -1.0488  1.4096  0.7459
  124MOL   H16344689   4.705   0.298   4.102  1.0694 -2.0193 -0.8426
  124MOL   C16444690   4.564   7.524   3.685  0.0912 -0.4485  0.3600
  124MOL   C16544691   4.562   7.622   3.567  0.3093 -0.6933 -0.8053
  124MOL   C16644692   4.682   7.724   3.565  1.1085 -0.2534  0.4692
  124MOL   C16744693   4.819   7.655   3.572  0.5961 -0.0553  0.6237
  124MOL   C16844694   4.929   0.029   3.535  0.0099  0.2878  1.4455
  124MOL   C16944695   5.071   7.696   3.514  0.2228 -0.4070 -0.2410
  124MOL   H17044696   4.645   7.457   3.657 -0.0979 -0.1637 -0.9124
  124MOL   H17144697   4.466   7.475   3.680 -0.3908  0.6133 -1.2808
  124MOL   H17244698   4.475   7.685   3.580 -0.2131 -0.9834 -2.7240
  124MOL   H17344699   4.661   0.063   3.648  0.0706 -2.5885  2.1021
  124MOL   H17444700   4.680   0.058   3.474 -3.2061  0.1122  0.7379
  124MOL   H17544701   4.821   7.570   3.503  0.0020  0.1820  0.3147
  124MOL   H17644702   4.832   7.602   3.666 -1.3835 -2.2894 -0.2967
  124MOL   H17744703   4.927   0.105   3.614 -1.5018  2.9162 -1.0357
  124MOL   H17844704   4.912   0.089   3.446 -0.7665  1.0818  2.1180
  124MOL   H17944705   5.149   0.045   3.509 -0.8669  0.8680  1.4228
  124MOL   H18044706   5.074   7.635   3.424 -0.6254  0.2146 -0.6905
  124MOL   H18144707   5.100   7.635   3.600  2.7123 -0.6974 -1.2708
  124MOL   C18244708   4.556   7.560   3.423 -0.1752  0.2512  0.6177
  124MOL   C18344709   4.429   7.467   3.392 -0.6239  0.0719  0.7477
  124MOL   C18444710   4.298   7.530   3.421 -0.7222 -0.2476  0.2215
  124MOL   C18544711   4.280   7.661   3.347  0.2078  0.7515  0.1191
  124MOL   C18644712   4.139   7.714   3.359  0.5286  0.6120 -0.3444
  124MOL   C18744713   4.123   0.126   3.305 -0.2671  0.2050 -0.4725
  124MOL   H18844714   4.544   7.645   3.356  0.0911 -0.1527  0.0629
  124MOL   H18944715   4.651   7.509   3.406 -0.8661 -1.1253  0.7564
  124MOL   H19044716   4.429   7.455   3.284 -1.9268  1.6637  0.5525
  124MOL   H19144717   4.226   7.455   3.388 -0.4665 -0.2585 -0.2977
  124MOL   H19244718   4.294   7.535   3.530 -0.3492 -3.3537  0.4102
  124MOL   H19344719   4.301   7.652   3.241 -1.2425  1.0759 -0.2066
  124MOL   H19444720   4.342   0.014   3.387  0.6358  1.3643 -1.7303
  124MOL   H19544721   4.108   7.716   3.463 -1.1346  0.3342 -0.8162
  124MOL   H19644722   4.057   7.651   3.323  1.0847 -0.1500 -0.2950
  124MOL   H19744723   4.113   0.120   3.197 -1.0438 -1.4435 -0.3265
  124MOL   H19844724   4.203   0.197   3.327  0.9433 -1.0641 -0.7240
  124MOL   H19944725   4.029   0.162   3.346 -1.9821 -2.2524 -2.0925
  124MOL   C20044726   4.429   7.319   3.444  0.7272 -0.1066 -0.6917
  124MOL   C20144727   4.463   7.210   3.335 -0.1428  0.6350 -0.2766
  124MOL   C20244728   4.516   7.073   3.401 -0.3978  0.1648 -0.1798
  124MOL   C20344729   4.424   7.004   3.501 -0.0858 -0.0094  0.8778
  124MOL   C20444730   4.478   6.872   3.542 -0.0085 -0.7702 -0.5157
  124MOL   C20544731   4.392   6.801   3.647  0.1933 -0.1118  0.5122
  124MOL   H20644732   4.334   7.294   3.491 -1.5862  1.3820 -4.3402
  124MOL   H20744733   4.499   7.306   3.527 -0.4748 -1.8054  0.0667
  124MOL   H20844734   4.552   7.253   3.291 -1.1151  1.5513 -1.3736
  124MOL   H20944735   4.613   7.089   3.447  0.9080 -1.4249 -2.2620
  124MOL   H21044736   4.542   7.007   3.318 -3.0151 -2.5870  1.0829
  124MOL   H21144737   4.324   6.990   3.461  0.0754  0.2694  0.3718
  124MOL   H21244738   4.402   7.067   3.587  0.2770  0.7373  0.4296
  124MOL   H21344739   4.573   6.888   3.594  0.6202  0.8825 -2.0972
  124MOL   H21444740   4.500   6.809   3.456 -0.6730  1.6664 -2.5326
  124MOL   H21544741   4.450   6.721   3.693 -0.2644 -0.7515 -0.0203
  124MOL   H21644742   4.368   6.870   3.728 -0.1147  1.3137 -0.7602
  124MOL   H21744743   4.302   6.751   3.612  0.5702 -0.0102 -0.6310
  124MOL   C21844744   4.352   7.190   3.226  0.3566 -0.9157  0.0904
  124MOL   C21944745   4.366   7.269   3.092 -0.3359 -0.0498 -0.9216
  124MOL   C22044746   4.226   7.282   3.028  0.5615 -0.1971 -0.8921
  124MOL   C22144747   4.138   7.390   3.093 -0.1128  0.5277  0.2206
  124MOL   C22244748   3.998   7.410   3.027 -0.2829 -0.2053  0.5857
  124MOL   C22344749   3.922   7.524   3.099 -0.0271 -0.9659 -0.0604
  124MOL   H22444750   4.318   7.090   3.200 -0.2638 -0.2981 -1.5591
  124MOL   H22544751   4.265   7.223   3.284  1.7439 -0.4770  1.9649
  124MOL   H22644752   4.411   7.368   3.104 -0.8691  0.3812 -2.3780
  124MOL   H22744753   4.172   7.187   3.033 -0.0680  0.1929 -0.0621
  124MOL   H22844754   4.241   7.318   2.926 -1.4905 -1.7711 -1.7957
  124MOL   H22944755   4.196   7.481   3.102  0.9308 -0.0459 -0.5833
  124MOL   H23044756   4.126   7.361   3.197 -1.0365 -0.1487 -0.0642
  124MOL   H23144757   4.012   7.436   2.922 -1.4939  1.4114  0.8023
  124MOL   H23244758   3.928   7.326   3.035 -1.6917  0.6344 -2.3024
  124MOL   H23344759   3.840   7.557   3.034  1.0187 -1.0312 -1.4488
  124MOL   H23444760   3.983   7.611   3.125 -0.3077 -0.5246 -0.8515
  124MOL   H23544761   3.879   7.478   3.187 -1.5418  1.0418  0.2923
  124MOL   C23644762   4.465   7.192   3.001 -0.1287  0.6910 -0.1490
  124MOL   C23744763   4.600   7.270   2.976 -0.2037  0.0790 -0.9949
  124MOL   C23844764   4.578   7.405   2.901  0.0401  0.2658 -0.5087
  124MOL   C23944765   4.677   7.519   2.939  0.6069 -0.4011 -0.0891
  124MOL   C24044766   4.666   7.577   3.082 -0.1588 -0.2439  0.2331
  124MOL   C24144767   4.750   7.703   3.107  0.4156  0.7078  0.0486
  124MOL   H24244768   4.490   7.099   3.053 -0.8892  0.1008 -0.8250
  124MOL   H24344769   4.419   7.161   2.907 -0.1179  1.3411 -0.3673
  124MOL   H24444770   4.643   7.296   3.073 -2.1712 -2.0897  0.5233
  124MOL   H24544771   4.589   7.396   2.793  0.1960  0.4021 -0.5028
  124MOL   H24644772   4.476   7.440   2.920 -0.1130 -0.7110  0.5517
  124MOL   H24744773   4.653   7.597   2.868 -0.4511 -0.7842 -0.1554
  124MOL   H24844774   4.781   7.499   2.913  0.6623 -0.7421  0.3814
  124MOL   H24944775   4.563   7.606   3.102  0.5729  3.5195 -1.0072
  124MOL   H25044776   4.708   7.507   3.154  1.1104  1.3353  1.0630
  124MOL   H25144777   4.743   0.038   3.017  0.3301  0.9472  0.2210
  124MOL   H25244778   4.713   0.028   3.195  1.0220  0.5341  0.4076
  124MOL   H25344779   4.857   7.690   3.123  0.3777  2.7436  2.2901
  124MOL   C25444780   4.693   7.185   2.891  0.0249  0.3509  0.3260
  124MOL   C25544781   4.764   7.069   2.967  0.0984  0.8420  0.6634
  124MOL   C25644782   4.903   7.107   3.021  0.1284  0.5205  0.4939
  124MOL   C25744783   4.908   7.219   3.129 -0.9383  0.3635  0.3487
  124MOL   C25844784   4.855   7.188   3.263  0.0392  0.4715 -0.9872
  124MOL   C25944785   4.911   7.290   3.364 -0.0111  0.3609  0.2108
  124MOL   H26044786   4.773   7.234   2.835  0.0978  0.7456  0.7746
  124MOL   H26144787   4.628   7.142   2.815  0.0451 -0.1230  0.5723
  124MOL   H26244788   4.704   7.041   3.054  1.0121  0.7306  1.2571
  124MOL   H26344789   4.961   7.031   3.073  1.4038 -0.1077 -1.7650
  124MOL   H26444790   4.970   7.133   2.939  0.6397  0.2755  0.8264
  124MOL   H26544791   5.017   7.223   3.132 -0.9073  1.7245 -1.2680
  124MOL   H26644792   4.877   7.305   3.069 -0.3507  0.4143  0.1101
  124MOL   H26744793   4.881   7.088   3.297 -2.5451 -0.6802 -2.1960
  124MOL   H26844794   4.747   7.198   3.276 -0.0062  0.7899 -1.5978
  124MOL   H26944795   5.019   7.305   3.361  0.1592 -0.7238  0.8567
  124MOL   H27044796   4.880   7.275   3.467 -2.1422 -0.6831 -0.5629
  124MOL   H27144797   4.872   7.387   3.332 -0.7775  0.4163  1.2832
  124MOL   C27244798   4.783   6.949   2.877  0.6925  0.6234  0.1484
  124MOL   C27344799   4.659   6.862   2.855 -0.2960 -0.3959  0.2106
  124MOL   C27444800   4.612   6.786   2.977  0.4690  0.4386  0.5641
  124MOL   C27544801   4.471   6.723   2.956  0.3648 -0.4395 -0.5963
  124MOL   C27644802   4.404   6.684   3.092 -0.1652  0.1130 -0.4983
  124MOL   C27744803   4.494   6.615   3.187  0.7827  0.1611 -0.3043
  124MOL   H27844804   4.819   6.979   2.779 -1.0266  0.0702 -0.6842
  124MOL   H27944805   4.843   6.871   2.924  2.3079  1.6244 -0.2347
  124MOL   H28044806   4.575   6.923   2.822 -0.4281 -1.9488 -2.4493
  124MOL   H28144807   4.609   6.854   3.062  2.5482 -0.9496  1.8281
  124MOL   H28244808   4.690   6.713   3.000  1.6143  1.7504  0.9306
  124MOL   H28344809   4.471   6.630   2.899 -1.3243 -1.2417  0.6316
  124MOL   H28444810   4.401   6.791   2.907 -0.7466 -1.5194 -0.5423
  124MOL   H28544811   4.372   6.773   3.147 -0.6046  1.1429 -2.4066
  124MOL   H28644812   4.319   6.617   3.080  1.0473 -2.0124  2.0628
  124MOL   H28744813   4.537   6.533   3.130 -0.3599 -0.8022  0.1975
  124MOL   H28844814   4.572   6.682   3.224  1.9080 -0.8371 -0.8452
  124MOL   H28944815   4.437   6.586   3.275  0.8603 -0.8046 -0.5648
  124MOL   C29044816   4.689   6.770   2.733  0.4500  0.4245  0.0657
  124MOL   C29144817   4.711   6.834   2.593  0.0851 -0.7817 -0.1686
  124MOL   C29244818   4.856   6.834   2.542  0.1145 -0.2691 -0.3785
  124MOL   C29344819   4.878   6.925   2.420  0.3368  0.1103  0.2169
  124MOL   C29444820   5.017   6.937   2.356  0.1381 -0.1597 -0.3674
  124MOL   C29544821   5.063   6.816   2.272  0.0848  0.3538  0.7784
  124MOL   H29644822   4.600   6.707   2.721 -1.7935  3.2657  1.2930
  124MOL   H29744823   4.764   6.692   2.748 -1.2094 -1.3915 -0.8801
  124MOL   H29844824   4.680   6.938   2.598  2.2923 -0.1758  1.4360
  124MOL   H29944825   4.886   6.732   2.521  1.0927 -0.3366  1.2309
  124MOL   H30044826   4.924   6.855   2.625  0.1812 -1.5322 -0.1122
  124MOL   H30144827   4.805   6.899   2.344  0.0373 -1.3101  0.9722
  124MOL   H30244828   4.849   7.027   2.445  0.5708 -0.2062  1.8403
  124MOL   H30344829   5.083   6.949   2.442  0.8574  0.9812 -1.0673
  124MOL   H30444830   5.024   7.028   2.297  0.0778 -0.6671 -1.1686
  124MOL   H30544831   5.169   6.821   2.249  0.1304  1.4713  1.1889
  124MOL   H30644832   5.009   6.816   2.178 -0.2502  0.5889  0.9686
  124MOL   H30744833   5.031   6.721   2.313  1.3724  0.3792  1.8895
  124MOL   C30844834   4.625   6.748   2.490  0.0890  0.0241 -0.4675
  124MOL   C30944835   4.473   6.797   2.488  0.1932 -0.1089  0.1350
  124MOL   C31044836   4.375   6.692   2.441  0.3288  0.8603  0.5224
  124MOL   C31144837   4.354   6.574   2.542 -0.1371  0.2092 -0.4721
  124MOL   C31244838   4.275   6.459   2.488 -0.2695  0.6033 -0.6133
  124MOL   C31344839   4.260   6.349   2.589 -0.0907 -0.5084 -0.1165
  124MOL   H31444840   4.670   6.752   2.391  0.9184  2.4243 -0.0271
  124MOL   H31544841   4.632   6.645   2.525 -1.7928 -0.0300 -0.2180
  124MOL   H31644842   4.458   6.834   2.590  0.0184 -0.3554  0.1998
  124MOL   H31744843   4.413   6.660   2.344 -1.6552  0.9863 -0.3183
  124MOL   H31844844   4.277   6.735   2.419 -0.9002 -1.3882  1.4593
  124MOL   H31944845   4.307   6.624   2.627  2.2128  2.8230 -0.6427
  124MOL   H32044846   4.453   6.546   2.578 -0.2722  1.1413  0.6461
  124MOL   H32144847   4.171   6.487   2.466 -0.9294 -0.3802  1.2154
  124MOL   H32244848   4.326   6.416   2.401 -1.9343  0.1445 -1.3873
  124MOL   H32344849   4.355   6.308   2.622 -0.4681 -1.4149 -0.1534
  124MOL   H32444850   4.222   6.253   2.554  2.7674 -1.0150 -1.9932
  124MOL   H32544851   4.192   6.367   2.672  1.0408  1.3104  0.4407
  124MOL   C32644852   4.469   6.915   2.397 -0.2126 -0.0694 -0.3198
  124MOL   C32744853   4.340   6.997   2.400  0.2965  0.1455  0.4459
  124MOL   C32844854   4.299   7.057   2.543 -0.4141 -0.4849 -0.1184
  124MOL   C32944855   4.155   7.088   2.562  0.8509 -0.1591  0.8071
  124MOL   C33044856   4.112   7.134   2.703  0.1742  0.4026  0.0437
  124MOL   C33144857   3.963   7.173   2.718  0.3829 -0.0699 -1.2439
  124MOL   H33244858   4.475   6.871   2.298 -0.4469  0.6259 -0.6446
  124MOL   H33344859   4.560   6.973   2.413  0.3695 -1.0924  0.1448
  124MOL   H33444860   4.258   6.930   2.374 -0.7946  1.8433 -0.6146
  124MOL   H33544861   4.316   6.984   2.622  0.3500 -0.1910 -0.0002
  124MOL   H33644862   4.355   7.146   2.573 -1.3771 -0.8558  2.9275
  124MOL   H33744863   4.104   6.994   2.543  1.3483 -0.7244  2.2060
  124MOL   H33844864   4.129   7.159   2.483  0.3601  0.3484  1.4196
  124MOL   H33944865   4.126   7.046   2.766 -2.4759 -0.7529 -0.9215
  124MOL   H34044866   4.176   7.217   2.733 -0.2300  0.9194 -0.4899
  124MOL   H34144867   3.944   7.244   2.637  0.2779  0.5760 -0.6567
  124MOL   H34244868   3.962   7.218   2.817 -1.5428 -2.2935 -0.2019
  124MOL   H34344869   3.889   7.095   2.702 -0.9980  1.0869 -0.6183
  124MOL   C34444870   4.337   7.102   2.292  1.1846  0.9089  0.2619
  124MOL   C34544871   4.411   7.232   2.312  0.2212  0.1503  0.4462
  124MOL   C34644872   4.423   7.315   2.179  0.3051 -0.2969 -0.5809
  124MOL   C34744873   4.511   7.448   2.186 -0.6195  0.0544  0.2732
  124MOL   C34844874   4.451   7.567   2.269 -0.9275 -0.8077 -1.0100
  124MOL   C34944875   4.533   7.693   2.253  0.5395 -0.6767 -0.1770
  124MOL   H35044876   4.376   7.057   2.201 -0.0185  1.4528 -0.5359
  124MOL   H35144877   4.234   7.132   2.271  1.0702  0.3410  0.0139
  124MOL   H35244878   4.510   7.207   2.350 -0.2419 -0.2417  1.4256
  124MOL   H35344879   4.455   7.235   2.112 -0.0900  1.3060 -2.7174
  124MOL   H35444880   4.318   7.330   2.153  0.2530  1.0586  0.3370
  124MOL   H35544881   4.600   7.421   2.242 -0.5307 -0.2098  0.0041
  124MOL   H35644882   4.530   7.489   2.087 -1.7758  0.3406  0.1591
  124MOL   H35744883   4.351   7.591   2.235 -0.3464  1.6414 -1.0876
  124MOL   H35844884   4.439   7.538   2.374  1.1202  2.3629  0.1826
  124MOL   H35944885   4.502   0.024   2.166 -1.7665  0.0756  1.1203
  124MOL   H36044886   4.500   0.035   2.331 -2.0564 -0.3393 -1.5133
  124MOL   H36144887   4.639   7.669   2.267  0.9749  1.4059  0.2137
  124MOL   H36244888   4.360   7.298   2.383  5.4222  3.8537  1.0209
  125MOL     C144889   3.741   1.174   3.542 -0.3282  0.0358 -0.9364
  125MOL     C244890   3.737   1.285   3.430 -0.3911  0.1534 -0.4143
  125MOL     C344891   3.860   1.375   3.431 -0.3506  0.3947  0.6491
  125MOL     C444892   3.879   1.415   3.287 -0.3442 -0.2520  0.4894
  125MOL     C544893   4.014   1.506   3.277 -0.2053  0.1376 -0.5406
  125MOL     C644894   4.087   1.504   3.151 -0.5740 -0.5544 -0.7479
  125MOL     H744895   3.784   1.201   3.639 -1.5293  2.7621 -1.1296
  125MOL     H844896   3.643   1.143   3.578  1.6747 -1.7713  3.3656
  125MOL     H944897   3.744   1.236   3.333 -2.4617 -3.1482  1.0043
  125MOL    H1044898   3.947   1.320   3.465 -0.9824 -0.3561  1.0862
  125MOL    H1144899   3.854   1.461   3.497 -2.5305 -0.0594  1.0833
  125MOL    H1244900   3.795   1.469   3.243 -0.6060 -0.1472  1.1017
  125MOL    H1344901   3.892   1.332   3.218 -0.1695  1.0687 -1.0867
  125MOL    H1444902   3.988   1.608   3.305  2.0055  0.0471  2.0382
  125MOL    H1544903   4.083   1.481   3.357  1.7190  0.6651 -1.9968
  125MOL    H1644904   4.037   1.555   3.069 -1.8542  0.2237  0.4947
  125MOL    H1744905   4.105   1.404   3.112  0.1162 -0.1460 -1.5028
  125MOL    H1844906   4.189   1.539   3.165 -0.6547 -0.9637  0.9928
  125MOL    H1944907   3.791   1.085   3.502 -0.6699  0.3743 -2.1430
  125MOL    C2044908   3.605   1.365   3.439  0.2335 -0.4652  0.4633
  125MOL    C2144909   3.478   1.290   3.395  0.1195 -0.1901  0.1960
  125MOL    C2244910   3.360   1.339   3.489  0.5567  0.1986  0.0392
  125MOL    C2344911   3.348   1.285   3.631 -0.2009 -0.1457 -0.6219
  125MOL    C2444912   3.207   1.316   3.695  0.0972  0.6975 -0.1736
  125MOL    C2544913   3.215   1.332   3.848 -0.1603 -0.3833  0.2128
  125MOL    H2644914   3.611   1.461   3.387  1.8363 -1.2297 -0.8130
  125MOL    H2744915   3.602   1.384   3.546  2.0644  0.7357  0.3198
  125MOL    H2844916   3.488   1.184   3.417  1.0597 -0.0720  0.3533
  125MOL    H2944917   3.276   1.309   3.427  1.0344 -2.5102  0.6523
  125MOL    H3044918   3.367   1.448   3.497 -0.9529  0.3182 -0.1758
  125MOL    H3144919   3.423   1.331   3.696  0.5114  0.5803 -1.9353
  125MOL    H3244920   3.356   1.177   3.639 -0.4171 -0.3174 -2.5282
  125MOL    H3344921   3.180   1.412   3.651  0.0948  1.6215  1.8029
  125MOL    H3444922   3.128   1.243   3.679  2.5703 -2.0134 -0.3359
  125MOL    H3544923   3.258   1.246   3.899 -0.9739 -1.6364 -1.1764
  125MOL    H3644924   3.289   1.412   3.858  1.2043 -1.6682  0.6327
  125MOL    H3744925   3.118   1.370   3.878  0.4393 -0.0766  1.8095
  125MOL    C3844926   3.449   1.304   3.246  1.0984  0.2598  0.0356
  125MOL    C3944927   3.515   1.201   3.148  0.3599  0.2379  0.0473
  125MOL    C4044928   3.490   1.048   3.169  0.0658 -0.2876  0.2135
  125MOL    C4144929   3.343   1.012   3.141 -0.0887 -0.4245 -0.4747
  125MOL    C4244930   3.312   0.868   3.173  0.3112 -0.3305  0.4847
  125MOL    C4344931   3.367   0.770   3.064  0.2709 -0.5927  0.3059
  125MOL    H4444932   3.470   1.405   3.211 -1.1829  0.2595 -1.4168
  125MOL    H4544933   3.342   1.291   3.231  1.0363  0.1747  0.5623
  125MOL    H4644934   3.623   1.211   3.161  0.3075  0.1082  0.6027
  125MOL    H4744935   3.560   1.002   3.100  0.8407  0.5581  0.4199
  125MOL    H4844936   3.515   1.015   3.270 -1.2172  2.3093  1.4490
  125MOL    H4944937   3.279   1.067   3.210 -0.6672  1.4075 -2.4207
  125MOL    H5044938   3.313   1.031   3.038  0.4102  2.0062 -0.2006
  125MOL    H5144939   3.351   0.840   3.270  1.1669  2.0998  0.8929
  125MOL    H5244940   3.204   0.854   3.179 -0.1357  1.9758 -1.3148
  125MOL    H5344941   3.342   0.794   2.961 -0.4808  3.2778  1.2978
  125MOL    H5444942   3.338   0.667   3.083  1.6868 -0.8447  1.1210
  125MOL    H5544943   3.476   0.773   3.066  0.2231  1.2088  0.7119
  125MOL    C5644944   3.494   1.262   3.009  0.5333 -0.4663  0.1424
  125MOL    C5744945   3.550   1.184   2.894  0.1821 -0.4165  0.6983
  125MOL    C5844946   3.705   1.175   2.892 -0.1771  0.6803 -0.5235
  125MOL    C5944947   3.786   1.303   2.859  0.2073  0.2203  0.6602
  125MOL    C6044948   3.937   1.272   2.846 -0.4147 -0.0772 -0.6098
  125MOL    C6144949   4.003   1.388   2.775  0.8301 -0.2212 -0.3856
  125MOL    H6244950   3.386   1.272   2.999  0.4375 -0.7327  0.8714
  125MOL    H6344951   3.532   1.364   3.010 -3.4578  1.1001  0.9096
  125MOL    H6444952   3.499   1.088   2.898  0.6565 -0.5830  3.7498
  125MOL    H6544953   3.733   1.149   2.994  1.3750  1.6143 -0.6930
  125MOL    H6644954   3.748   1.094   2.834  1.6856  1.7193 -0.6301
  125MOL    H6744955   3.765   1.379   2.934 -2.0251 -0.5638  0.8759
  125MOL    H6844956   3.752   1.337   2.762 -0.2041 -0.6167  0.5018
  125MOL    H6944957   3.976   1.272   2.948 -0.6683  2.4497 -0.4834
  125MOL    H7044958   3.958   1.177   2.797 -3.0322 -2.7500  3.1646
  125MOL    H7144959   3.978   1.401   2.670 -0.6503  0.0434 -0.0017
  125MOL    H7244960   4.000   1.485   2.824 -0.3185 -0.5288  0.1702
  125MOL    H7344961   4.109   1.361   2.781  0.4465 -1.9600 -1.1117
  125MOL    C7444962   3.495   1.250   2.763 -0.3133 -0.6543 -0.0887
  125MOL    C7544963   3.544   1.184   2.631  0.1234 -0.1160 -0.2132
  125MOL    C7644964   3.508   1.037   2.609 -0.6594 -0.3325  0.5555
  125MOL    C7744965   3.362   1.006   2.616 -0.2891 -0.4494  0.6492
  125MOL    C7844966   3.343   0.863   2.576 -0.0268  0.1133 -0.8935
  125MOL    C7944967   3.199   0.831   2.568  0.5646 -1.0449 -0.1476
  125MOL    H8044968   3.386   1.252   2.766 -0.3558  3.5588 -0.4820
  125MOL    H8144969   3.530   1.353   2.768  0.5280 -0.9070 -0.6982
  125MOL    H8244970   3.653   1.186   2.638  0.0504  1.7546  0.7265
  125MOL    H8344971   3.550   1.001   2.515  1.5321 -0.5119  1.5737
  125MOL    H8444972   3.547   0.981   2.693  1.2417  1.5169  0.9303
  125MOL    H8544973   3.312   1.027   2.711 -0.7153 -0.4173  0.4170
  125MOL    H8644974   3.316   1.070   2.542  2.4923  0.9844  0.0605
  125MOL    H8744975   3.387   0.800   2.653 -0.8392  0.3883 -0.2057
  125MOL    H8844976   3.409   0.834   2.494  1.0379 -2.1750  0.7267
  125MOL    H8944977   3.155   0.857   2.664  2.1887 -0.3870  0.4322
  125MOL    H9044978   3.159   0.898   2.492  0.6014 -0.8983 -0.0374
  125MOL    H9144979   3.182   0.729   2.534  0.7562 -0.6472 -1.4695
  125MOL    C9244980   3.499   1.267   2.505 -0.1607 -0.0458 -0.3855
  125MOL    C9344981   3.550   1.413   2.481 -0.8631  0.7215  0.8295
  125MOL    C9444982   3.705   1.419   2.442  0.5005  0.5331  0.7090
  125MOL    C9544983   3.766   1.318   2.334  0.0495 -0.3961  0.4136
  125MOL    C9644984   3.893   1.377   2.275  0.1389  0.3623  0.7618
  125MOL    C9744985   3.982   1.277   2.202 -0.6868  0.3409  0.3320
  125MOL    H9844986   3.520   1.215   2.412 -1.8599 -0.5533 -0.5042
  125MOL    H9944987   3.390   1.269   2.509 -0.1210  3.0110  0.6471
  125MOL   H10044988   3.535   1.469   2.574  1.1432  2.7101 -0.0021
  125MOL   H10144989   3.762   1.421   2.535  2.1312  1.3870 -0.3020
  125MOL   H10244990   3.722   1.518   2.401  0.6836  0.0580 -0.3659
  125MOL   H10344991   3.773   1.223   2.387  0.9344 -1.4762 -1.5853
  125MOL   H10444992   3.696   1.298   2.253 -0.7738 -0.1506  1.0561
  125MOL   H10544993   3.852   1.458   2.214  1.6200  0.9105  0.4623
  125MOL   H10644994   3.943   1.421   2.362  2.6913 -0.7248 -0.1082
  125MOL   H10744995   4.016   1.189   2.255  1.1651  1.0405  0.3420
  125MOL   H10844996   3.924   1.239   2.118  0.5429  2.9196 -1.7572
  125MOL   H10944997   4.069   1.317   2.151  0.9339 -0.1786  2.6153
  125MOL   C11044998   3.465   1.495   2.373  0.2088  0.4602  0.1407
  125MOL   C11144999   3.328   1.544   2.425  0.0161  0.2046  0.2485
  125MOL   C11245000   3.236   1.570   2.303 -0.0345  0.0764  0.8183
  125MOL   C11345001   3.158   1.453   2.244 -0.3374  0.0016  0.3765
  125MOL   C11445002   3.063   1.379   2.337  0.7164 -0.1306 -0.2816
  125MOL   C11545003   2.944   1.299   2.270 -0.8922 -0.2138 -0.0384
  125MOL   H11645004   3.528   1.575   2.336 -0.2521  0.8264  0.1471
  125MOL   H11745005   3.452   1.426   2.289  1.1119 -1.6020  1.6513
  125MOL   H11845006   3.290   1.474   2.500 -0.1791  1.1122  0.9993
  125MOL   H11945007   3.298   1.606   2.221 -0.5935 -4.0863 -1.5713
  125MOL   H12045008   3.156   1.642   2.318 -1.9351 -1.7353 -0.3352
  125MOL   H12145009   3.227   1.376   2.209 -0.2205 -0.3327  1.3169
  125MOL   H12245010   3.108   1.494   2.157  0.1390  0.5037  0.3385
  125MOL   H12345011   3.025   1.453   2.407  0.6053 -1.7746  1.4223
  125MOL   H12445012   3.120   1.317   2.406  0.8606  0.2755 -0.0349
  125MOL   H12545013   2.897   1.239   2.349  2.2806 -0.4090  1.7886
  125MOL   H12645014   2.873   1.370   2.228  0.2115  1.1176  0.3248
  125MOL   H12745015   2.977   1.230   2.193  1.4585  1.5282 -0.6215
  125MOL   C12845016   3.356   1.680   2.502 -0.1759  0.0866  0.6860
  125MOL   C12945017   3.248   1.720   2.611  0.2343  0.2332 -0.4056
  125MOL   C13045018   3.221   1.871   2.632 -0.1650 -0.5407  0.0270
  125MOL   C13145019   3.137   1.944   2.526 -0.0687  0.3581  0.0920
  125MOL   C13245020   3.078   2.075   2.579  0.8102  0.6847 -0.4555
  125MOL   C13345021   2.980   2.132   2.483  0.0926 -0.2560 -0.8130
  125MOL   H13445022   3.375   1.759   2.429 -1.9477  0.1588  0.2844
  125MOL   H13545023   3.449   1.668   2.557 -0.1341  0.8530  0.7858
  125MOL   H13645024   3.154   1.669   2.591 -0.5568 -0.0687  3.6391
  125MOL   H13745025   3.171   1.885   2.728 -0.4769  2.3442 -0.5027
  125MOL   H13845026   3.314   1.927   2.638 -0.6316  0.1787  0.6890
  125MOL   H13945027   3.059   1.874   2.496  0.2910 -0.1234  0.2578
  125MOL   H14045028   3.208   1.958   2.445  1.2142  2.0333  1.4762
  125MOL   H14145029   3.028   2.046   2.672  0.3483 -0.3237 -1.0070
  125MOL   H14245030   3.159   2.144   2.601  0.0513  0.7964  2.1783
  125MOL   H14345031   2.888   2.073   2.480  0.5148 -0.9619  0.1652
  125MOL   H14445032   3.025   2.153   2.386  1.2921 -1.7252 -0.5831
  125MOL   H14545033   2.940   2.223   2.529 -0.0928 -0.2394 -0.9998
  125MOL   C14645034   3.298   1.672   2.744 -0.7457 -0.8688 -0.0361
  125MOL   C14745035   3.198   1.615   2.840  0.7533  0.6506  0.0931
  125MOL   C14845036   3.248   1.605   2.985 -0.0867 -0.3848 -0.0442
  125MOL   C14945037   3.284   1.736   3.054 -0.8669 -0.8060  0.6830
  125MOL   C15045038   3.330   1.711   3.203  0.1918  0.3082  0.1401
  125MOL   C15145039   3.213   1.707   3.305 -0.3127  0.2911  0.5603
  125MOL   H15245040   3.384   1.607   2.728  0.4757  1.1878 -2.0928
  125MOL   H15345041   3.354   1.753   2.789 -0.9286 -0.6017 -0.2893
  125MOL   H15445042   3.106   1.671   2.858  1.1373  0.7789  1.7579
  125MOL   H15545043   3.340   1.548   2.989  0.3318  0.3892  1.5800
  125MOL   H15645044   3.175   1.541   3.035  0.9937  0.0951  2.1807
  125MOL   H15745045   3.362   1.783   2.995  0.1902 -2.1245  0.9898
  125MOL   H15845046   3.203   1.808   3.062  0.8363  1.1391  0.8438
  125MOL   H15945047   3.392   1.795   3.236 -1.7653  1.2216  1.6487
  125MOL   H16045048   3.390   1.621   3.203  0.9499  0.7654  2.6389
  125MOL   H16145049   3.158   1.801   3.306  0.2876  0.6381  1.1896
  125MOL   H16245050   3.139   1.637   3.267  2.0107 -1.7208 -0.3735
  125MOL   H16345051   3.243   1.676   3.404  0.2557  0.0784  0.3187
  125MOL   C16445052   3.157   1.472   2.801  0.2798  0.2075 -0.2370
  125MOL   C16545053   3.026   1.415   2.865  0.4763 -0.4877  0.1200
  125MOL   C16645054   2.924   1.372   2.754 -0.3710  0.8796  0.0555
  125MOL   C16745055   2.868   1.490   2.674  0.0755  0.3254 -0.0033
  125MOL   C16845056   2.774   1.446   2.564  0.0989 -0.9368 -1.0326
  125MOL   C16945057   2.745   1.559   2.458 -0.0196 -1.0125  0.9233
  125MOL   H17045058   3.137   1.478   2.694  1.3423 -0.9737 -0.5147
  125MOL   H17145059   3.243   1.408   2.822  0.0746  0.7237  2.3862
  125MOL   H17245060   2.975   1.495   2.919  1.8831  0.4847  0.0348
  125MOL   H17345061   2.847   1.314   2.805 -0.4834 -1.0217 -2.2166
  125MOL   H17445062   2.974   1.297   2.693  1.0138 -0.6418  2.9514
  125MOL   H17545063   2.944   1.558   2.638 -0.5741  2.2099  2.0880
  125MOL   H17645064   2.816   1.552   2.746 -0.0379  0.6449 -0.3577
  125MOL   H17745065   2.681   1.410   2.608 -0.0512  0.5762 -0.0469
  125MOL   H17845066   2.816   1.361   2.511  0.2513 -1.2048 -0.4824
  125MOL   H17945067   2.710   1.522   2.362  0.7527 -0.6875  0.5143
  125MOL   H18045068   2.833   1.617   2.432 -0.6833 -0.2378  0.3386
  125MOL   H18145069   2.663   1.623   2.493  2.6504  2.5423  0.9919
  125MOL   C18245070   3.056   1.293   2.971  0.5226 -0.3490  0.0064
  125MOL   C18345071   2.947   1.277   3.085 -0.2733  0.0865  0.1512
  125MOL   C18445072   2.970   1.385   3.190  0.3787  0.2730  0.0445
  125MOL   C18545073   2.867   1.383   3.311  0.4667  0.0972 -0.2046
  125MOL   C18645074   2.893   1.491   3.411 -0.1154 -0.2894 -0.2751
  125MOL   C18745075   2.778   1.509   3.517  0.4268 -0.3586 -0.0738
  125MOL   H18845076   3.067   1.208   2.904 -0.9682  0.9355 -1.9275
  125MOL   H18945077   3.151   1.321   3.016  1.2190 -3.0068  0.2499
  125MOL   H19045078   2.847   1.308   3.053 -0.0855  1.1306  0.5504
  125MOL   H19145079   3.072   1.380   3.230  0.3200  1.4018  0.3768
  125MOL   H19245080   2.972   1.484   3.144 -0.5665 -0.3313 -1.3320
  125MOL   H19345081   2.870   1.285   3.358  0.9298 -1.2411 -2.8920
  125MOL   H19445082   2.762   1.389   3.284 -0.5102  0.5454  3.4977
  125MOL   H19545083   2.926   1.580   3.359 -2.1095 -0.7093 -2.3294
  125MOL   H19645084   2.986   1.474   3.466 -0.8351 -0.0420  1.0212
  125MOL   H19745085   2.744   1.408   3.541  1.1358 -0.4439  0.6128
  125MOL   H19845086   2.691   1.549   3.466  0.5748  0.7315  0.5043
  125MOL   H19945087   2.793   1.556   3.615  0.7683 -0.0320 -0.2806
  125MOL   C20045088   2.952   1.125   3.124 -0.2503  0.3252  0.2369
  125MOL   C20145089   2.837   1.048   3.063  0.2801  0.5785 -0.0134
  125MOL   C20245090   2.853   0.892   3.072  0.1209 -0.5335 -0.0582
  125MOL   C20345091   2.932   0.828   2.957 -0.3073  0.4488 -0.7879
  125MOL   C20445092   2.973   0.690   2.997 -0.1100 -0.0090  0.3283
  125MOL   C20545093   3.056   0.633   2.885  0.3749 -0.3209 -0.0178
  125MOL   H20645094   2.942   1.099   3.229  0.7044 -0.9500  0.0260
  125MOL   H20745095   3.048   1.077   3.108  0.4255  0.7333  2.9701
  125MOL   H20845096   2.832   1.067   2.955 -1.7266  0.9923  0.1228
  125MOL   H20945097   2.760   0.838   3.085 -1.3211  1.8487 -0.1619
  125MOL   H21045098   2.919   0.873   3.157 -0.0850 -1.9472 -0.2002
  125MOL   H21145099   3.021   0.890   2.948 -1.1414  1.6594 -0.7995
  125MOL   H21245100   2.866   0.830   2.870 -0.4526 -0.7071 -0.7127
  125MOL   H21345101   2.882   0.638   3.030  0.3287 -0.9524  0.0714
  125MOL   H21445102   3.041   0.685   3.082  0.5676 -0.5044 -0.2360
  125MOL   H21545103   3.086   0.531   2.907 -0.0484 -0.3332  0.5391
  125MOL   H21645104   3.005   0.641   2.789 -2.1813 -0.6966  1.2592
  125MOL   H21745105   3.141   0.699   2.869  0.4936 -0.7992 -1.3700
  125MOL   C21845106   2.703   1.097   3.128 -0.3493  0.2581 -0.0444
  125MOL   C21945107   2.569   1.047   3.066 -0.4987  0.0219 -0.0485
  125MOL   C22045108   2.525   1.127   2.936 -0.5286 -0.5493  0.3670
  125MOL   C22145109   2.518   1.271   2.962 -0.9706  0.1555 -0.7106
  125MOL   C22245110   2.451   1.353   2.850 -0.1836  0.0939 -0.0044
  125MOL   C22345111   2.502   1.498   2.836  0.0711 -0.0502 -0.0320
  125MOL   H22445112   2.703   1.070   3.234 -0.3896 -0.0683 -0.1279
  125MOL   H22545113   2.699   1.206   3.138  1.1456  0.3225  0.0088
  125MOL   H22645114   2.575   0.950   3.017 -0.3347  0.9171 -1.8452
  125MOL   H22745115   2.426   1.096   2.902  0.8405 -2.3045 -2.1786
  125MOL   H22845116   2.579   1.097   2.846  1.3913  0.7756  1.0480
  125MOL   H22945117   2.618   1.313   2.965 -0.5519 -0.8776  0.5493
  125MOL   H23045118   2.478   1.308   3.057  2.1914  2.8181 -0.3404
  125MOL   H23145119   2.468   1.303   2.755 -1.4403  0.6403 -0.5325
  125MOL   H23245120   2.350   1.384   2.878 -0.3564 -0.3011 -0.1773
  125MOL   H23345121   2.499   1.552   2.930  3.8956 -0.3969  0.3620
  125MOL   H23445122   2.450   1.559   2.762 -1.1711  1.6195  2.1516
  125MOL   H23545123   2.602   1.501   2.793  0.5093  0.4034  1.0005
  125MOL   C23645124   2.450   1.038   3.171  0.0084 -0.0154 -0.6328
  125MOL   C23745125   2.472   0.977   3.312  0.6904  0.3686 -0.1946
  125MOL   C23845126   2.518   0.823   3.296 -0.5090  0.1852 -0.5902
  125MOL   C23945127   2.586   0.769   3.415  0.1699 -0.2693  0.2917
  125MOL   C24045128   2.621   0.621   3.389  0.9295  0.4988 -0.0728
  125MOL   C24145129   2.564   0.528   3.494 -0.4062 -0.1429  0.8275
  125MOL   H24245130   2.415   1.140   3.183 -0.4720 -0.1825 -0.6157
  125MOL   H24345131   2.372   0.979   3.122 -0.7909 -0.3769  1.0589
  125MOL   H24445132   2.553   1.032   3.360  2.1172  2.7066 -4.9425
  125MOL   H24545133   2.435   0.762   3.261 -0.6981  0.4043 -0.5230
  125MOL   H24645134   2.584   0.816   3.209 -0.0975  0.4882 -0.3043
  125MOL   H24745135   2.515   0.781   3.497 -2.1029  0.3383 -1.6684
  125MOL   H24845136   2.682   0.817   3.428  1.2801 -2.2651 -0.3520
  125MOL   H24945137   2.604   0.590   3.285 -0.2145  0.7801  0.0271
  125MOL   H25045138   2.726   0.598   3.407  0.5873 -0.7173  0.4244
  125MOL   H25145139   2.456   0.525   3.483 -0.4908  0.6219  1.4451
  125MOL   H25245140   2.603   0.426   3.489  0.2894  0.1687 -0.2771
  125MOL   H25345141   2.599   0.578   3.584 -1.1403  2.2812 -0.2087
  125MOL   C25445142   2.343   0.986   3.396  0.7250  0.1396 -0.4530
  125MOL   C25545143   2.293   1.129   3.428 -0.0179  0.7131 -0.1239
  125MOL   C25645144   2.337   1.186   3.561 -0.4491  0.3943 -0.3007
  125MOL   C25745145   2.282   1.115   3.683  0.3627  0.8336  0.3808
  125MOL   C25845146   2.310   1.187   3.818 -0.3426 -0.6684  0.0217
  125MOL   C25945147   2.274   1.102   3.939 -0.2193  0.6293 -0.6637
  125MOL   H26045148   2.354   0.936   3.492 -0.6762  1.8203  0.6028
  125MOL   H26145149   2.271   0.923   3.342 -0.8704  1.5807 -0.0352
  125MOL   H26245150   2.334   1.192   3.349  1.6922  1.8816  1.6572
  125MOL   H26345151   2.445   1.172   3.566 -0.5231 -1.0019 -2.0700
  125MOL   H26445152   2.320   1.293   3.571  0.9378  0.5249  0.8850
  125MOL   H26545153   2.175   1.099   3.668  0.2009  0.8448  1.4264
  125MOL   H26645154   2.331   1.018   3.691  1.3613  1.0985 -2.0576
  125MOL   H26745155   2.245   1.275   3.823 -2.2453 -2.1619  2.6361
  125MOL   H26845156   2.413   1.222   3.819 -0.3785 -0.5821  0.7503
  125MOL   H26945157   2.359   1.037   3.959 -0.7741  0.2762  0.6072
  125MOL   H27045158   2.187   1.038   3.925 -0.4247 -0.2216  3.9051
  125MOL   H27145159   2.260   1.161   4.030  0.8867  2.1605 -1.4532
  125MOL   C27245160   2.138   1.130   3.415  0.5578 -0.1383  0.1572
  125MOL   C27345161   2.070   1.145   3.280  0.2071 -0.2658  0.4796
  125MOL   C27445162   2.070   1.024   3.190 -0.0228 -0.1537  0.7224
  125MOL   C27545163   1.970   0.914   3.212  0.2577 -0.3275 -0.8184
  125MOL   C27645164   1.989   0.786   3.125 -0.2260 -0.3337  0.2591
  125MOL   C27745165   2.094   0.684   3.168  0.1283 -0.4041 -0.0933
  125MOL   H27845166   2.095   1.042   3.463  0.0979  0.6720  1.2529
  125MOL   H27945167   2.105   1.206   3.485  1.5307  0.6402 -0.2233
  125MOL   H28045168   1.964   1.158   3.304  0.2200 -0.1003  0.4478
  125MOL   H28145169   2.173   0.988   3.190  0.4108  0.9362  3.2759
  125MOL   H28245170   2.050   1.070   3.093 -1.0594 -1.8422  0.1145
  125MOL   H28345171   1.869   0.952   3.195 -0.4942 -0.7141  2.4521
  125MOL   H28445172   1.981   0.880   3.315  0.3144  1.5540 -0.1868
  125MOL   H28545173   1.895   0.732   3.136 -1.0093  0.6735 -1.3006
  125MOL   H28645174   1.994   0.815   3.020  0.1619  0.2363  0.4305
  125MOL   H28745175   2.080   0.591   3.114 -2.0741 -0.6567  0.8845
  125MOL   H28845176   2.191   0.728   3.143 -0.4738  0.8248 -0.2925
  125MOL   H28945177   2.099   0.666   3.276  1.0889  0.0923 -0.0497
  125MOL   C29045178   2.109   1.272   3.206  0.1676 -0.5783  0.0044
  125MOL   C29145179   2.080   1.406   3.273  0.1974  0.3786 -1.2336
  125MOL   C29245180   2.176   1.514   3.214  0.4367  0.1327 -0.0845
  125MOL   C29345181   2.311   1.506   3.291 -1.1570 -0.2906 -0.0487
  125MOL   C29445182   2.419   1.610   3.242 -0.0501 -0.4003  0.1705
  125MOL   C29545183   2.397   1.749   3.296 -0.0379  0.3910  0.6986
  125MOL   H29645184   2.048   1.274   3.116 -0.4844  1.4320  0.4769
  125MOL   H29745185   2.213   1.259   3.179 -0.0561 -0.2241 -1.0278
  125MOL   H29845186   2.100   1.398   3.380 -0.6269  0.5571 -1.0634
  125MOL   H29945187   2.140   1.614   3.239 -1.0108 -0.8129  1.7665
  125MOL   H30045188   2.176   1.499   3.106  0.0225 -0.6832  0.0228
  125MOL   H30145189   2.298   1.514   3.398 -0.6145  0.4816 -0.0379
  125MOL   H30245190   2.363   1.410   3.285 -2.4033 -1.0352  0.9648
  125MOL   H30345191   2.419   1.616   3.133  0.5070 -1.9370  0.0828
  125MOL   H30445192   2.520   1.571   3.255  1.2646  2.2613 -1.5018
  125MOL   H30545193   2.446   1.815   3.225  1.2281 -2.6267 -1.3408
  125MOL   H30645194   2.450   1.771   3.389  2.2937  1.4145 -0.8292
  125MOL   H30745195   2.295   1.786   3.309 -0.3605 -0.8847  1.9408
  125MOL   C30845196   1.933   1.446   3.263  0.2495  0.2778  0.1088
  125MOL   C30945197   1.867   1.562   3.341  0.0954 -0.0255 -0.0930
  125MOL   C31045198   1.863   1.531   3.494  0.2125  0.4149  0.5935
  125MOL   C31145199   1.816   1.642   3.595 -1.1460  0.0775 -0.0266
  125MOL   C31245200   1.857   1.614   3.743  0.5275 -0.1574 -0.5824
  125MOL   C31345201   1.810   1.723   3.843  0.1266 -0.2253 -0.2142
  125MOL   H31445202   1.916   1.467   3.157 -1.2210 -1.4775 -0.0312
  125MOL   H31545203   1.879   1.352   3.269  2.1726 -1.1250 -2.7737
  125MOL   H31645204   1.939   1.644   3.331 -1.3788  1.6017  2.1983
  125MOL   H31745205   1.965   1.518   3.528  0.1943  1.4273  1.0685
  125MOL   H31845206   1.806   1.440   3.515  1.1923  0.4170  3.5327
  125MOL   H31945207   1.708   1.652   3.588 -1.4185 -0.6526  2.5540
  125MOL   H32045208   1.858   1.736   3.559 -2.1081  0.3184 -0.5500
  125MOL   H32145209   1.803   1.530   3.784 -1.1787  0.9112 -0.5916
  125MOL   H32245210   1.965   1.604   3.759  0.8713  0.3218 -2.4330
  125MOL   H32345211   1.869   1.814   3.845 -1.1140  0.5802  2.3936
  125MOL   H32445212   1.808   1.683   3.944 -1.6035 -0.0406 -0.1514
  125MOL   H32545213   1.704   1.745   3.824 -0.0392 -0.0167  0.9073
  125MOL   C32645214   1.730   1.615   3.292  0.0927  0.6290  0.6520
  125MOL   C32745215   1.741   1.727   3.190  0.1957  0.2028  0.8832
  125MOL   C32845216   1.612   1.740   3.099  0.7772 -0.7621  0.2469
  125MOL   C32945217   1.606   1.633   2.999  0.6777  0.1486 -0.0623
  125MOL   C33045218   1.484   1.629   2.911  0.0064 -0.6078 -0.1678
  125MOL   C33145219   1.363   1.575   2.984 -0.3741 -0.5120 -0.7706
  125MOL   H33245220   1.663   1.643   3.374 -0.7017  1.7472 -0.3617
  125MOL   H33345221   1.679   1.528   3.249  0.6501  1.4464 -1.7243
  125MOL   H33445222   1.817   1.697   3.118  2.2414 -1.4820  3.6566
  125MOL   H33545223   1.518   1.740   3.154  1.4522  3.1529  1.5883
  125MOL   H33645224   1.618   1.832   3.040 -0.8663 -0.9293 -0.2003
  125MOL   H33745225   1.625   1.539   3.049 -0.7011 -0.0462  0.1075
  125MOL   H33845226   1.685   1.649   2.926  0.3547  1.1704 -0.2098
  125MOL   H33945227   1.464   1.727   2.867 -0.0342  0.0269  1.2158
  125MOL   H34045228   1.499   1.567   2.823 -2.4560  1.0103 -1.7827
  125MOL   H34145229   1.346   1.638   3.071  0.5040  0.6295 -1.4044
  125MOL   H34245230   1.379   1.473   3.019  0.2984 -0.0583  0.2645
  125MOL   H34345231   1.270   1.578   2.928 -1.1109  2.6038  0.5113
  125MOL   C34445232   1.774   1.864   3.256  0.2731  0.0584  0.6178
  125MOL   C34545233   1.857   1.969   3.175 -0.7678 -0.2994  0.4751
  125MOL   C34645234   2.005   1.918   3.162  0.1767  0.2353 -1.0448
  125MOL   C34745235   2.087   2.006   3.074  0.5062 -0.7333 -0.0907
  125MOL   C34845236   2.229   1.966   3.044  0.6728  0.4634  0.2562
  125MOL   C34945237   2.224   1.832   2.958 -0.1148 -0.9173  0.1273
  125MOL   H35045238   1.688   1.910   3.305  0.8667 -0.1341  1.8553
  125MOL   H35145239   1.838   1.843   3.342 -0.9863 -1.2613  1.2630
  125MOL   H35245240   1.859   2.069   3.220  1.7625 -0.5588  0.9906
  125MOL   H35345241   2.053   1.915   3.260 -1.0493  1.4322 -0.3903
  125MOL   H35445242   2.007   1.815   3.127 -1.7614 -1.0230  2.3548
  125MOL   H35545243   2.040   2.021   2.977  1.8930  0.5587 -0.5736
  125MOL   H35645244   2.091   2.107   3.116  0.3954 -0.5224 -0.5865
  125MOL   H35745245   2.287   2.047   3.000  0.5483  0.1850 -0.4427
  125MOL   H35845246   2.272   1.955   3.143  1.8832 -0.1145 -0.3133
  125MOL   H35945247   2.206   1.859   2.854 -0.5710  1.7267  0.8575
  125MOL   H36045248   2.321   1.782   2.966 -0.4548 -1.8228 -1.2160
  125MOL   H36145249   2.151   1.757   2.987  0.4896 -0.7750  2.0763
  125MOL   H36245250   1.814   1.989   3.076 -3.8299  0.6290  1.9272
  126MOL     C145251   0.392   5.719   7.572  0.0148 -0.3018 -0.0909
  126MOL     C245252   0.505   5.760   7.669  0.0657  0.1044  0.0642
  126MOL     C345253   0.504   5.658   0.056  0.9818 -0.2379  0.1328
  126MOL     C445254   0.561   5.516   0.011  0.9757 -0.4550 -0.3628
  126MOL     C545255   0.637   5.429   0.113  0.5674 -0.6497  0.0551
  126MOL     C645256   0.772   5.488   0.169  0.1776 -0.2678  0.0214
  126MOL     H745257   0.398   5.616   7.538 -0.2050 -0.2354 -0.3295
  126MOL     H845258   0.290   5.725   7.609 -0.0753 -0.0433 -0.3805
  126MOL     H945259   0.603   5.758   7.622 -0.7586 -0.1661 -1.6554
  126MOL    H1045260   0.404   5.635   0.094  0.0949  0.8297 -1.4753
  126MOL    H1145261   0.564   5.696   0.139 -0.0435 -1.3995  1.4455
  126MOL    H1245262   0.637   5.544   7.665  1.5360  2.7184  1.3832
  126MOL    H1345263   0.497   5.452   7.676 -1.5330  0.8919  0.7598
  126MOL    H1445264   0.567   5.400   0.191  0.4398 -1.0875 -0.2171
  126MOL    H1545265   0.667   5.349   0.045  1.0361 -0.6625  0.2699
  126MOL    H1645266   0.840   5.510   0.087 -0.6527  1.6151 -0.1957
  126MOL    H1745267   0.819   5.412   0.230 -1.1831 -1.7839 -0.7887
  126MOL    H1845268   0.750   5.578   0.226 -0.6741 -0.1768 -0.4430
  126MOL    H1945269   0.386   5.779   7.481  1.0718  1.1695  0.7852
  126MOL    C2045270   0.478   5.897   0.001 -0.1691 -0.3736  0.9690
  126MOL    C2145271   0.501   6.018   7.631  0.3447  1.0611  0.4912
  126MOL    C2245272   0.418   6.137   7.663 -0.4635 -0.7838  0.0493
  126MOL    C2345273   0.275   6.106   7.698  0.1045  0.1218  0.3538
  126MOL    C2445274   0.204   6.242   7.679 -0.7359  0.5567 -0.3254
  126MOL    C2545275   0.058   6.223   7.717  0.0099 -0.1312 -0.2105
  126MOL    H2645276   0.537   5.914   0.091 -0.3084 -1.5700  1.2951
  126MOL    H2745277   0.380   5.898   0.048 -1.7788 -2.0649 -2.2516
  126MOL    H2845278   0.454   5.986   7.538  0.7386 -2.1254  1.3329
  126MOL    H2945279   0.425   6.208   7.581  2.4362  0.5401  1.3642
  126MOL    H3045280   0.463   6.194   0.018  0.6055 -1.4764 -0.0487
  126MOL    H3145281   0.263   6.081   0.076 -2.3793 -0.0176  0.0674
  126MOL    H3245282   0.234   6.029   7.633  0.8119  0.1690 -0.1618
  126MOL    H3345283   0.251   6.320   0.012  1.4764 -0.0445 -1.2577
  126MOL    H3445284   0.201   6.262   7.572  1.9456  0.8107 -0.3806
  126MOL    H3545285   0.044   6.189   0.093 -0.5960 -1.2267 -0.6429
  126MOL    H3645286   0.008   6.319   7.706  1.3135  0.9470  2.6524
  126MOL    H3745287   0.001   6.152   7.656 -1.5042  1.8698 -1.1760
  126MOL    C3845288   0.657   6.043   7.604 -0.4904 -0.5053 -0.3810
  126MOL    C3945289   0.693   6.154   7.504 -0.6179 -1.0746  0.1596
  126MOL    C4045290   0.835   6.212   7.529  0.1773 -0.6536 -0.7744
  126MOL    C4145291   0.845   6.311   7.649 -0.7657  0.1100 -0.3991
  126MOL    C4245292   0.982   6.381   7.666 -0.2686  0.7042  0.3954
  126MOL    C4345293   0.999   6.482   7.560  0.5068  0.2959 -0.0080
  126MOL    H4445294   0.703   5.948   7.576 -0.4239 -0.6978  0.3477
  126MOL    H4545295   0.691   6.073   7.704  1.0844 -1.8373 -0.5005
  126MOL    H4645296   0.628   6.238   7.528  0.8243 -0.2684  1.3642
  126MOL    H4745297   0.908   6.136   7.558  1.3702  0.1427 -1.6728
  126MOL    H4845298   0.878   6.254   7.439  2.0368 -1.2340 -0.1853
  126MOL    H4945299   0.773   6.391   7.636 -0.1985  0.6343 -0.3624
  126MOL    H5045300   0.821   6.266   0.018  0.6245  0.6603  0.2306
  126MOL    H5145301   0.987   6.428   0.037  0.3943 -0.2572  0.8311
  126MOL    H5245302   1.063   6.309   7.674 -0.0953  0.9050  0.4527
  126MOL    H5345303   1.077   6.552   7.592 -0.7135  1.6954 -0.0344
  126MOL    H5445304   0.913   6.547   7.543  1.2753  1.0061 -1.3131
  126MOL    H5545305   1.019   6.436   7.464  0.4481 -0.5136  0.3642
  126MOL    C5645306   0.669   6.109   7.351 -0.2850 -0.3520  0.4446
  126MOL    C5745307   0.554   6.194   7.291  0.0483 -0.3658 -0.3208
  126MOL    C5845308   0.486   6.119   7.176  0.4125 -0.3635 -0.6011
  126MOL    C5945309   0.435   5.977   7.216  0.0093  0.0399 -0.1960
  126MOL    C6045310   0.305   5.946   7.130 -0.1535 -0.0354  0.4302
  126MOL    C6145311   0.184   6.034   7.163  0.0522 -0.2431  0.0731
  126MOL    H6245312   0.759   6.103   7.291 -0.1349 -1.1292  0.7378
  126MOL    H6345313   0.654   6.002   7.358  1.2462 -0.5354  1.0853
  126MOL    H6445314   0.479   6.206   7.369 -1.5214 -4.1250 -1.1452
  126MOL    H6545315   0.398   6.182   7.162  0.1870 -0.5098  0.1037
  126MOL    H6645316   0.551   6.110   7.090 -1.1879  0.0574 -1.8746
  126MOL    H6745317   0.419   5.966   7.323  0.8094 -0.9940 -0.1837
  126MOL    H6845318   0.514   5.907   7.189 -0.4279 -0.2120 -0.8303
  126MOL    H6945319   0.327   5.955   7.024 -1.3442 -1.2615  0.0644
  126MOL    H7045320   0.293   5.839   7.144  0.5778 -0.1883 -0.0835
  126MOL    H7145321   0.089   5.981   7.155 -0.4132  0.7897 -1.3758
  126MOL    H7245322   0.195   6.069   7.266  0.8763  0.5981 -0.2936
  126MOL    H7345323   0.177   6.128   7.110 -0.9323 -1.2512 -1.6217
  126MOL    C7445324   0.608   6.335   7.254  1.6466 -0.7012 -0.6213
  126MOL    C7545325   0.489   6.442   7.273 -0.3910  0.7969  0.7603
  126MOL    C7645326   0.467   6.471   7.423  0.2498 -0.2532 -0.5604
  126MOL    C7745327   0.366   6.581   7.459  0.0651  0.3996 -0.1312
  126MOL    C7845328   0.366   6.599   7.614 -0.7064 -0.7617 -0.2624
  126MOL    C7945329   0.487   6.672   7.669  0.3141  0.0521  0.6259
  126MOL    H8045330   0.692   6.351   7.321  2.3428 -3.5376 -0.7628
  126MOL    H8145331   0.647   6.335   7.152  0.7847  1.7476 -1.0023
  126MOL    H8245332   0.403   6.395   7.226  0.5222 -0.4953  0.3464
  126MOL    H8345333   0.440   6.382   7.478  1.4684  0.0061  0.4818
  126MOL    H8445334   0.563   6.502   7.466 -0.6359  0.2372  1.0965
  126MOL    H8545335   0.381   6.680   7.416  0.1961 -0.1067 -1.2516
  126MOL    H8645336   0.261   6.552   7.445 -0.3253  1.2807  0.8743
  126MOL    H8745337   0.364   6.500   7.659 -0.6078  0.0553  1.6249
  126MOL    H8845338   0.275   6.650   7.648  0.9447  1.6196  0.7591
  126MOL    H8945339   0.580   6.614   7.663  2.2879  2.9835  1.5664
  126MOL    H9045340   0.497   6.764   7.613 -0.3105  0.8025  1.7333
  126MOL    H9145341   0.472   6.714   0.042 -0.9052  1.3871 -0.1087
  126MOL    C9245342   0.537   6.571   7.201  0.0978  0.4709 -0.7739
  126MOL    C9345343   0.540   6.577   7.049 -0.4616 -0.1094  0.0646
  126MOL    C9445344   0.393   6.544   6.982 -0.7708 -0.5461 -0.3794
  126MOL    C9545345   0.412   6.452   6.863 -0.2573 -0.1585 -0.2855
  126MOL    C9645346   0.287   6.438   6.767 -0.3142 -0.1335 -0.7531
  126MOL    C9745347   0.158   6.373   6.827  0.2922  0.5484  0.0043
  126MOL    H9845348   0.460   6.646   7.216 -1.7220 -1.4237 -0.4379
  126MOL    H9945349   0.633   6.606   7.238 -0.6847  0.0466  1.7380
  126MOL   H10045350   0.613   6.503   7.015  1.2703  1.2769  0.6911
  126MOL   H10145351   0.356   6.640   6.947  0.6047  0.0448 -0.2216
  126MOL   H10245352   0.319   6.512   7.056 -0.5418  1.3541  0.6836
  126MOL   H10345353   0.501   6.482   6.807  0.6963 -0.0055  1.2769
  126MOL   H10445354   0.436   6.351   6.894 -2.7178 -0.2652  1.4635
  126MOL   H10545355   0.261   6.530   6.715 -0.7172  1.2156  1.7859
  126MOL   H10645356   0.326   6.370   6.691 -1.5050 -0.1130 -1.3830
  126MOL   H10745357   0.121   6.433   6.910 -2.4740  1.4147 -1.7663
  126MOL   H10845358   0.081   6.369   6.750  0.0644 -2.3884  0.3103
  126MOL   H10945359   0.170   6.271   6.864 -1.3169  0.2970 -0.1027
  126MOL   C11045360   0.590   6.714   7.006  0.2734 -0.0477 -0.1323
  126MOL   C11145361   0.637   6.729   6.860  0.8062 -0.0661 -0.3306
  126MOL   C11245362   0.765   6.646   6.825 -0.2004  0.1583 -0.3190
  126MOL   C11345363   0.887   6.721   6.874  0.0136  0.0730 -0.1069
  126MOL   C11445364   1.014   6.641   6.846  0.4003 -0.1223  0.0424
  126MOL   C11545365   1.063   6.659   6.705  0.0639 -0.6582 -0.4674
  126MOL   H11645366   0.516   6.786   7.037  0.2751 -0.3969  0.7038
  126MOL   H11745367   0.670   6.734   7.077  0.4304  1.9349 -0.8480
  126MOL   H11845368   0.567   6.683   6.791 -1.8994  1.8168  1.0540
  126MOL   H11945369   0.772   6.627   6.718  1.3724 -0.8629 -0.0533
  126MOL   H12045370   0.762   6.549   6.874  0.2977  0.9701  1.3765
  126MOL   H12145371   0.879   6.730   6.983  2.4405  0.1935  0.0988
  126MOL   H12245372   0.894   6.820   6.829 -3.0264 -0.4143 -1.7910
  126MOL   H12345373   0.989   6.537   6.868  2.3458 -0.3251  1.4743
  126MOL   H12445374   1.096   6.657   6.916 -0.5338 -1.6794  1.5281
  126MOL   H12545375   0.996   6.630   6.625 -3.1065  1.1780  1.4226
  126MOL   H12645376   1.095   6.762   6.690  0.8335 -0.3691  2.6398
  126MOL   H12745377   1.154   6.601   6.689  0.1867 -0.1230 -1.8033
  126MOL   C12845378   0.644   6.878   6.824 -0.2571  0.6765  0.8018
  126MOL   C12945379   0.675   6.900   6.666  0.1877  0.3967 -0.2086
  126MOL   C13045380   0.719   7.041   6.629  0.4422 -0.0513 -0.2142
  126MOL   C13145381   0.856   7.072   6.680 -0.3350  0.7163 -0.5916
  126MOL   C13245382   0.898   7.210   6.633 -0.6238  0.2255  0.1092
  126MOL   C13345383   1.041   7.242   6.673  0.5410 -0.3814  0.4776
  126MOL   H13445384   0.711   6.929   6.894  2.2765  1.2723 -1.9769
  126MOL   H13545385   0.546   6.920   6.844 -0.0189  0.2709  2.9852
  126MOL   H13645386   0.759   6.840   6.632 -1.0134 -1.0587 -0.6795
  126MOL   H13745387   0.711   7.028   6.521 -3.1993  2.5620 -0.3807
  126MOL   H13845388   0.634   7.105   6.654 -0.8142 -0.3836 -3.3840
  126MOL   H13945389   0.931   7.003   6.641  0.5496  3.5173 -4.1478
  126MOL   H14045390   0.876   7.063   6.786 -1.6461 -2.4271 -0.5769
  126MOL   H14145391   0.892   7.213   6.525 -0.4577  2.4465  0.1529
  126MOL   H14245392   0.835   7.297   6.651  0.6933  1.8694 -2.9808
  126MOL   H14345393   1.053   7.244   6.781  0.5088 -0.2047  0.4768
  126MOL   H14445394   1.054   7.344   6.636  1.2351 -0.8821 -0.7047
  126MOL   H14545395   1.110   7.166   6.636  0.6051  1.0627 -2.5552
  126MOL   C14645396   0.547   6.863   6.578 -0.6953 -0.2876 -0.2216
  126MOL   C14745397   0.555   6.812   6.429  0.3412  0.0043  0.0008
  126MOL   C14845398   0.421   6.810   6.361  0.2232  0.5280  0.1346
  126MOL   C14945399   0.312   6.725   6.434 -0.1190 -0.4236 -0.3121
  126MOL   C15045400   0.167   6.757   6.390  0.1876 -0.2896 -0.3214
  126MOL   C15145401   0.072   6.721   6.499  0.6706 -0.0408 -0.4462
  126MOL   H15245402   0.494   6.778   6.620 -1.1173 -1.3976 -2.9145
  126MOL   H15345403   0.479   6.947   6.595 -0.9399 -0.9643  2.3850
  126MOL   H15445404   0.619   6.883   6.376 -0.9483  0.0428 -1.5327
  126MOL   H15545405   0.432   6.784   6.255  2.0766  2.8655 -0.2734
  126MOL   H15645406   0.390   6.914   6.362 -0.0143  0.4908 -1.7185
  126MOL   H15745407   0.331   6.618   6.422  3.9947  0.2249 -0.4896
  126MOL   H15845408   0.313   6.754   6.539  0.4985 -3.8494  0.7198
  126MOL   H15945409   0.134   6.705   6.300  1.3306  1.6256 -1.9065
  126MOL   H16045410   0.146   6.863   6.372  0.5455  0.2952  2.4997
  126MOL   H16145411   0.075   6.616   6.528  0.4599  0.3494  1.0614
  126MOL   H16245412   0.081   6.777   6.592  2.9485  0.2536 -0.8082
  126MOL   H16345413   7.700   6.733   6.456  0.5256 -0.5939 -0.2771
  126MOL   C16445414   0.623   6.677   6.418  0.2404  0.2714 -0.3779
  126MOL   C16545415   0.636   6.611   6.278  0.5053 -0.4829  0.8989
  126MOL   C16645416   0.716   6.701   6.175  0.1059 -0.4285 -0.4348
  126MOL   C16745417   0.690   6.658   6.034 -0.6761 -0.4147 -0.1057
  126MOL   C16845418   0.725   6.770   5.931  0.0732  0.4668  0.2642
  126MOL   C16945419   0.674   6.744   5.791  0.3816  0.5308  0.3788
  126MOL   H17045420   0.721   6.686   6.465  0.5269  2.4657 -1.3529
  126MOL   H17145421   0.570   6.611   6.487  3.2867 -0.7713  1.0660
  126MOL   H17245422   0.540   6.590   6.232  0.4906  0.6342  0.4197
  126MOL   H17345423   0.821   6.702   6.203 -0.9522  0.6466  3.9041
  126MOL   H17445424   0.678   6.803   6.187  0.3353 -0.1076 -2.3361
  126MOL   H17545425   0.588   6.626   6.014 -0.6885 -0.2478 -0.3191
  126MOL   H17645426   0.748   6.567   6.022 -0.8984 -0.9092  2.4539
  126MOL   H17745427   0.829   6.804   5.933 -0.0079  0.7579 -0.5698
  126MOL   H17845428   0.684   6.865   5.965 -0.3589  0.1546  0.6302
  126MOL   H17945429   0.700   6.643   5.759 -2.3812 -0.2602  0.4865
  126MOL   H18045430   0.726   6.813   5.725 -1.1592  0.9783 -0.3960
  126MOL   H18145431   0.567   6.750   5.769  0.7362  1.7965 -1.0977
  126MOL   C18245432   0.704   6.474   6.285  0.1689 -0.4845  0.0571
  126MOL   C18345433   0.633   6.363   6.365  0.5612  1.0658 -0.1938
  126MOL   C18445434   0.733   6.279   6.443 -0.4089  0.3411 -0.0473
  126MOL   C18545435   0.804   6.337   6.573 -0.1261  0.0423  0.6432
  126MOL   C18645436   0.910   6.238   6.631  0.7707  0.0562  0.7677
  126MOL   C18745437   0.957   6.253   6.770 -0.0127  0.1890 -0.3127
  126MOL   H18845438   0.733   6.432   6.188 -2.1911 -0.1411 -0.8267
  126MOL   H18945439   0.793   6.490   6.346  0.1507 -1.0465  0.2428
  126MOL   H19045440   0.564   6.405   6.438 -0.1752 -0.4898  0.0244
  126MOL   H19145441   0.693   6.184   6.477 -0.3384 -0.7735 -2.9628
  126MOL   H19245442   0.813   6.247   6.376  1.1741  2.5826  0.6849
  126MOL   H19345443   0.721   6.371   6.635 -1.0366 -1.2584  0.1654
  126MOL   H19445444   0.856   6.426   6.537  1.3126 -1.4756 -1.1794
  126MOL   H19545445   0.990   6.242   6.557 -1.6352 -0.2438 -1.9310
  126MOL   H19645446   0.865   6.139   6.636 -0.3156  0.3008 -2.7788
  126MOL   H19745447   1.007   6.167   6.815  3.0090  0.9931 -2.0051
  126MOL   H19845448   0.876   6.271   6.841  1.0647  0.5767  0.8279
  126MOL   H19945449   1.026   6.337   6.779 -0.4458  0.5000  0.1613
  126MOL   C20045450   0.543   6.292   6.261  0.5884 -0.4515  0.5231
  126MOL   C20145451   0.461   6.169   6.320 -0.1708 -0.5042 -0.5164
  126MOL   C20245452   0.401   6.197   6.464 -0.5273 -0.1740  0.2434
  126MOL   C20345453   0.317   6.087   6.529  0.2934 -0.3966  0.3127
  126MOL   C20445454   0.407   5.970   6.577  1.1149  0.2251  0.0667
  126MOL   C20545455   0.494   6.001   6.702 -0.2235  0.2457 -0.3514
  126MOL   H20645456   0.600   6.247   6.179 -0.9807 -1.2770 -0.1487
  126MOL   H20745457   0.473   6.369   6.227  1.5179 -0.2853 -1.0945
  126MOL   H20845458   0.531   6.086   6.328 -0.4745 -0.7242 -0.0984
  126MOL   H20945459   0.332   6.280   6.453 -0.6472 -0.1222  1.3948
  126MOL   H21045460   0.468   6.245   6.536 -1.7019 -0.2913  1.4210
  126MOL   H21145461   0.247   6.045   6.457 -0.9949  2.0012  0.1060
  126MOL   H21245462   0.261   6.116   6.618 -0.7330 -0.1653 -0.3961
  126MOL   H21345463   0.473   5.944   6.495  2.2176  0.7170  0.7909
  126MOL   H21445464   0.355   5.876   6.597 -0.4698  1.0957  0.1446
  126MOL   H21545465   0.533   5.920   6.763  2.7352 -0.1729 -2.6879
  126MOL   H21645466   0.581   6.062   6.676 -0.3570  0.7632  0.3899
  126MOL   H21745467   0.434   6.067   6.765 -0.0507 -0.2850  0.3691
  126MOL   C21845468   0.358   6.128   6.214 -0.3149 -0.4279  0.0010
  126MOL   C21945469   0.417   6.047   6.094  0.8258  0.3906  0.5490
  126MOL   C22045470   0.334   6.074   5.972  0.0446  0.6020 -0.3510
  126MOL   C22145471   0.349   6.214   5.901 -0.5245 -0.6172  0.0755
  126MOL   C22245472   0.479   6.226   5.815  0.5851  0.1794 -0.0194
  126MOL   C22345473   0.500   6.363   5.757 -0.4290  1.1579  0.3536
  126MOL   H22445474   0.272   6.074   6.254  0.7951 -1.1569  1.4130
  126MOL   H22545475   0.319   6.226   6.185  1.2045  0.8065  2.0044
  126MOL   H22645476   0.516   6.090   6.077 -0.8230  2.8218 -3.5743
  126MOL   H22745477   0.231   6.058   6.003  0.7803 -3.4090  0.3130
  126MOL   H22845478   0.360   6.013   5.885  0.3873  1.2716 -0.7174
  126MOL   H22945479   0.356   6.297   5.971 -0.8618  1.1942 -1.9745
  126MOL   H23045480   0.260   6.241   5.843 -1.2793 -0.0265  1.5036
  126MOL   H23145481   0.565   6.196   5.874 -0.7636 -3.9131  0.0032
  126MOL   H23245482   0.461   6.158   5.732 -1.5030 -0.3815  0.8540
  126MOL   H23345483   0.418   6.392   5.692 -0.8716  0.4124  0.5672
  126MOL   H23445484   0.592   6.356   5.698  0.5591 -0.2577  2.0039
  126MOL   H23545485   0.504   6.434   5.839 -1.0015  0.6224  0.8561
  126MOL   C23645486   0.425   5.891   6.129  0.3127  0.3091  0.0138
  126MOL   C23745487   0.470   5.795   6.012  0.3341  0.4561  0.0142
  126MOL   C23845488   0.460   5.650   6.062  0.0995  0.0793  0.1773
  126MOL   C23945489   0.574   5.599   6.154  0.2443  0.6159 -0.1451
  126MOL   C24045490   0.562   5.464   6.226  0.0878  0.2676 -0.1667
  126MOL   C24145491   0.423   5.468   6.297  0.3134  0.0079  0.6203
  126MOL   H24245492   0.499   5.887   6.210  0.1505 -1.8820  0.0731
  126MOL   H24345493   0.332   5.856   6.172  0.4667 -1.6293 -1.1723
  126MOL   H24445494   0.402   5.797   5.927 -2.0901 -0.0695  1.9120
  126MOL   H24545495   0.356   5.639   6.090 -0.7741 -1.2027 -3.2866
  126MOL   H24645496   0.456   5.581   5.977  0.4110  0.0386  0.1950
  126MOL   H24745497   0.583   5.674   6.232  0.5526 -1.9852  2.4223
  126MOL   H24845498   0.670   5.609   6.104  0.2864 -2.3166 -0.7391
  126MOL   H24945499   0.553   5.383   6.153  1.3571  1.4810 -1.7029
  126MOL   H25045500   0.649   5.444   6.289 -0.3347 -0.5245  0.1717
  126MOL   H25145501   0.348   5.462   6.219  0.0946  1.1528  0.7355
  126MOL   H25245502   0.409   5.376   6.354 -0.9242  0.4764  1.0860
  126MOL   H25345503   0.416   5.557   6.359  1.6291  0.7680 -0.3044
  126MOL   C25445504   0.615   5.831   5.958 -0.4720 -1.0467  0.7064
  126MOL   C25545505   0.651   5.778   5.817  0.3437  0.4348  0.1050
  126MOL   C25645506   0.802   5.747   5.804  1.1554  0.3189  0.1138
  126MOL   C25745507   0.896   5.868   5.817 -0.6638  0.8063 -0.8319
  126MOL   C25845508   1.042   5.832   5.823 -0.8867 -0.0313 -0.0402
  126MOL   C25945509   1.087   5.775   5.961 -0.1380 -0.9673  0.4339
  126MOL   H26045510   0.698   5.817   6.027 -0.6797 -0.1338  1.1521
  126MOL   H26145511   0.616   5.938   5.934  3.7408 -0.9212  1.1872
  126MOL   H26245512   0.601   5.681   5.824 -2.1167  1.5470 -1.5902
  126MOL   H26345513   0.826   5.683   5.889  1.4707  0.7736  0.3705
  126MOL   H26445514   0.822   5.693   5.712  3.0767 -1.9424  1.7855
  126MOL   H26545515   0.889   5.944   5.739  2.0685  1.6289 -0.3306
  126MOL   H26645516   0.876   5.927   5.907 -0.6697  0.8617 -0.8699
  126MOL   H26745517   1.111   5.916   5.811 -0.0162 -0.4464  1.9443
  126MOL   H26845518   1.070   5.762   5.744 -0.5688  0.3168 -0.2415
  126MOL   H26945519   1.192   5.745   5.964  0.7663  2.1750  3.1067
  126MOL   H27045520   1.045   5.678   5.988  0.9711 -1.1269  1.6376
  126MOL   H27145521   1.064   5.844   6.042 -0.6452  0.2868 -0.7548
  126MOL   C27245522   0.592   5.867   5.696 -0.8719 -0.0039  0.6789
  126MOL   C27345523   0.593   5.807   5.550  0.4608 -0.3031  0.3551
  126MOL   C27445524   0.544   5.899   5.435  0.2372 -0.4942 -0.3352
  126MOL   C27545525   0.392   5.928   5.429  0.0526 -0.2485 -0.4058
  126MOL   C27645526   0.341   6.036   5.328  0.8482  0.5885 -0.4935
  126MOL   C27745527   0.367   6.173   5.383 -0.1780  0.5181  0.0042
  126MOL   H27845528   0.491   5.896   5.726 -0.7742  0.6823  0.3558
  126MOL   H27945529   0.639   5.966   5.697 -0.7218 -0.0414 -1.2151
  126MOL   H28045530   0.694   5.783   5.516 -0.0604 -1.3960 -0.4789
  126MOL   H28145531   0.571   5.861   5.337 -1.8552 -0.1731 -1.0606
  126MOL   H28245532   0.597   5.995   5.431  4.4037 -2.6066  1.4956
  126MOL   H28345533   0.369   5.943   5.534 -0.7251  1.7495 -0.8479
  126MOL   H28445534   0.349   5.830   5.405  1.2365 -1.6560  2.9415
  126MOL   H28545535   0.373   6.034   5.224  0.7959 -1.2170 -0.4848
  126MOL   H28645536   0.233   6.023   5.328  0.9798 -0.7184  0.6803
  126MOL   H28745537   0.337   6.185   5.487 -0.7391 -1.8748  0.1413
  126MOL   H28845538   0.472   6.198   5.398 -0.3085  1.2634 -0.2973
  126MOL   H28945539   0.315   6.245   5.319  1.3972  2.2513  0.6162
  126MOL   C29045540   0.516   5.668   5.549  0.1037  0.7801  0.2813
  126MOL   C29145541   0.508   5.590   5.417  0.1410 -0.2795  0.5042
  126MOL   C29245542   0.645   5.560   5.352 -0.1698  0.0262 -0.0250
  126MOL   C29345543   0.762   5.502   5.436 -0.4392  0.0486  0.5940
  126MOL   C29445544   0.901   5.523   5.374  0.4610 -0.0732  0.6365
  126MOL   C29545545   1.011   5.501   5.478  0.3880  0.0593  0.3596
  126MOL   H29645546   0.412   5.679   5.579 -0.0730  0.4511 -0.1894
  126MOL   H29745547   0.561   5.608   5.628 -0.5519 -0.2202 -0.0876
  126MOL   H29845548   0.446   5.643   5.345 -1.7682 -0.3571  2.0172
  126MOL   H29945549   0.673   5.656   5.309 -0.3571 -0.8811 -2.2772
  126MOL   H30045550   0.629   5.498   5.263 -1.5837  0.7493 -0.3022
  126MOL   H30145551   0.761   5.546   5.535  0.3887  0.0538  0.6019
  126MOL   H30245552   0.746   5.397   5.456 -0.8394  0.3483  1.8480
  126MOL   H30345553   0.917   5.621   5.329 -0.2182  0.2445  1.0706
  126MOL   H30445554   0.905   5.460   5.286  0.3167  1.0277 -0.1690
  126MOL   H30545555   1.108   5.525   5.434 -0.5610 -0.5280 -2.1449
  126MOL   H30645556   1.013   5.401   5.521  2.3185 -1.2600 -2.6003
  126MOL   H30745557   1.011   5.567   5.565  1.0951  1.8783 -0.9891
  126MOL   C30845558   0.436   5.449   5.408 -0.0172  0.4691 -0.1781
  126MOL   C30945559   0.287   5.433   5.467 -0.1784 -0.2139 -1.1093
  126MOL   C31045560   0.272   5.381   5.618 -0.1798 -0.0859 -0.1695
  126MOL   C31145561   0.353   5.246   5.642 -0.1209  0.2686  0.7210
  126MOL   C31245562   0.320   5.170   5.768  0.3284  0.3263 -0.5437
  126MOL   C31345563   0.379   5.243   5.898 -0.2122 -0.5122  0.4616
  126MOL   H31445564   0.434   5.423   5.302 -1.3541 -1.8868  0.3986
  126MOL   H31545565   0.501   5.369   5.443 -1.1022 -1.0607 -1.6390
  126MOL   H31645566   0.234   5.527   5.460 -0.2146 -0.0952  0.5145
  126MOL   H31745567   0.164   5.377   5.633 -0.5814  0.8858 -2.5216
  126MOL   H31845568   0.291   5.454   5.695  1.1733 -3.4103  2.7882
  126MOL   H31945569   0.458   5.273   5.646 -0.0991  0.2211  0.4636
  126MOL   H32045570   0.337   5.172   5.564 -0.1392  0.9532  0.0740
  126MOL   H32145571   0.213   5.150   5.775  0.4072 -0.0129 -0.2939
  126MOL   H32245572   0.364   5.071   5.757  2.3145  0.8902  1.8665
  126MOL   H32345573   0.487   5.255   5.902 -0.5437  3.2388  0.0036
  126MOL   H32445574   0.355   5.178   5.982 -2.8223 -1.1808 -0.7451
  126MOL   H32545575   0.335   5.339   5.923 -1.6868 -0.7808 -0.9553
  126MOL   C32645576   0.217   5.345   5.366  0.2855  0.2420 -1.1278
  126MOL   C32745577   0.067   5.308   5.389 -0.6764  0.5811 -0.6629
  126MOL   C32845578   7.713   5.341   5.263 -0.1254 -0.1289  0.1952
  126MOL   C32945579   7.695   5.488   5.219 -0.9835  0.1253  0.2620
  126MOL   C33045580   7.622   5.496   5.088 -0.4535 -0.1959 -0.5808
  126MOL   C33145581   7.571   5.636   5.056  0.2610  0.0841 -1.4440
  126MOL   H33245582   0.270   5.253   5.342  0.0089 -0.4345  0.7849
  126MOL   H33345583   0.231   5.405   5.276 -1.2737 -0.9218 -2.1503
  126MOL   H33445584   0.025   5.360   5.475 -0.6788 -1.4114  0.5854
  126MOL   H33545585   0.026   5.285   5.178  0.4774 -2.1236  1.7789
  126MOL   H33645586   7.614   5.300   5.279  0.5263 -2.0710 -0.6485
  126MOL   H33745587   0.061   5.541   5.200 -0.3135 -0.2504  2.3419
  126MOL   H33845588   7.651   5.535   5.307 -0.3598 -3.1257  2.3853
  126MOL   H33945589   7.688   5.466   5.006 -1.0008 -0.4591 -0.9277
  126MOL   H34045590   7.536   5.431   5.075 -0.9152  0.3270 -0.1099
  126MOL   H34145591   7.489   5.666   5.121  2.0415 -0.0735  0.9489
  126MOL   H34245592   7.529   5.633   4.956  1.4529  4.1912 -2.1587
  126MOL   H34345593   7.638   5.722   5.056  0.8238 -0.3125  0.6371
  126MOL   C34445594   0.050   5.160   5.424  0.4706 -0.0319  0.4268
  126MOL   C34545595   7.634   5.105   5.460 -0.3633 -0.1904  0.3572
  126MOL   C34645596   7.628   4.959   5.481  0.5554 -0.0483 -0.0945
  126MOL   C34745597   7.491   4.907   5.524  0.5652  0.2648  0.1794
  126MOL   C34845598   7.484   4.759   5.526  0.3795  0.5477  0.1359
  126MOL   C34945599   7.346   4.701   5.584  0.1070  0.3166 -0.7176
  126MOL   H35045600   0.082   5.102   5.338 -0.6576 -1.3042  0.8562
  126MOL   H35145601   0.121   5.140   5.505  0.7394  2.6832  0.9207
  126MOL   H35245602   7.563   5.127   5.381  0.0838 -2.1409 -0.6089
  126MOL   H35345603   7.662   4.899   5.397 -0.0538  0.5610 -0.7847
  126MOL   H35445604   7.699   4.921   5.554 -0.2387 -2.3552 -0.4844
  126MOL   H35545605   7.455   4.944   5.620  0.4786  1.6322 -0.3750
  126MOL   H35645606   7.418   4.947   5.454 -0.0806  0.4509  0.9533
  126MOL   H35745607   7.508   4.700   5.437 -1.9246  0.6265 -0.5671
  126MOL   H35845608   7.558   4.725   5.599 -1.4417  0.1730  1.8498
  126MOL   H35945609   7.332   4.730   5.688  1.8648  2.1740 -0.9778
  126MOL   H36045610   7.258   4.747   5.541 -1.1557  0.5924  2.0285
  126MOL   H36145611   7.347   4.592   5.588  1.0550  0.2719 -1.8964
  126MOL   H36245612   7.587   5.152   5.547 -2.8232 -0.2244 -0.9191
  127MOL     C145613   1.422   1.425   0.199  0.5447 -0.0342 -0.3502
  127MOL     C245614   1.445   1.269   0.167 -0.2965 -0.2994 -0.3859
  127MOL     C345615   1.439   1.243   0.015  0.1654  0.0722  0.2149
  127MOL     C445616   1.501   1.117   7.688 -0.3566 -0.0798 -0.2433
  127MOL     C545617   1.538   1.126   7.545 -0.3543  0.6751  0.1331
  127MOL     C645618   1.424   1.131   7.449  0.6357  0.6183  0.3119
  127MOL     H745619   1.421   1.444   0.306  1.5003 -1.2616 -0.1185
  127MOL     H845620   1.501   1.484   0.151  0.2094 -0.1650 -1.0738
  127MOL     H945621   1.553   1.260   0.181 -0.2240 -0.6756 -1.1634
  127MOL    H1045622   1.498   1.320   7.693  0.6214 -0.1703  0.3794
  127MOL    H1145623   1.335   1.245   7.711 -0.3801  1.7024  2.0668
  127MOL    H1245624   1.441   1.026   7.700  2.1819 -1.6405  1.0368
  127MOL    H1345625   1.587   1.100   0.025 -0.4028 -0.8881 -0.3885
  127MOL    H1445626   1.605   1.211   7.541  0.5102  0.0187  0.3639
  127MOL    H1545627   1.601   1.040   7.520 -0.9743 -0.2219  1.5707
  127MOL    H1645628   1.355   1.046   7.450  0.0650  1.0789  0.0869
  127MOL    H1745629   1.460   1.156   7.349  1.2700 -0.0870  0.3586
  127MOL    H1845630   1.359   1.211   7.482 -1.3846 -2.5002  4.3356
  127MOL    H1945631   1.324   1.452   0.159 -0.7755 -0.6362  2.4183
  127MOL    C2045632   1.370   1.174   0.261 -0.1524 -1.5017 -0.8231
  127MOL    C2145633   1.407   1.180   0.414  0.0107 -0.1531  0.1472
  127MOL    C2245634   1.320   1.075   0.487  0.3483  0.3475  0.1428
  127MOL    C2345635   1.170   1.120   0.494  0.1890  0.3482  0.0824
  127MOL    C2445636   1.087   1.024   0.577  0.3120 -0.5720 -0.1904
  127MOL    C2545637   0.935   1.040   0.552  0.0006 -0.7082 -0.9770
  127MOL    H2645638   1.383   1.070   0.231 -0.3904 -2.5808  2.5590
  127MOL    H2745639   1.261   1.180   0.256 -0.3999  0.9976  4.1133
  127MOL    H2845640   1.374   1.278   0.447  0.4796 -0.9315  3.1270
  127MOL    H2945641   1.355   1.061   0.590  2.0334  0.6746 -0.3572
  127MOL    H3045642   1.338   0.974   0.451  1.9761  0.5535  0.3354
  127MOL    H3145643   1.127   1.106   0.395 -2.3797 -1.2444  1.3653
  127MOL    H3245644   1.161   1.225   0.522  1.1778 -0.2254  2.6892
  127MOL    H3345645   1.108   0.920   0.552  1.8692 -0.1197 -0.8584
  127MOL    H3445646   1.109   1.038   0.683 -1.7708 -0.2650  0.2109
  127MOL    H3545647   0.910   1.053   0.447 -0.2754 -0.8723 -0.9305
  127MOL    H3645648   0.882   0.949   0.577 -2.5184  0.5031 -1.7823
  127MOL    H3745649   0.894   1.128   0.602 -0.9348 -1.0384 -1.1731
  127MOL    C3845650   1.563   1.161   0.443  1.4429 -0.1951  0.8277
  127MOL    C3945651   1.620   1.190   0.584  0.8210  0.0071 -0.2929
  127MOL    C4045652   1.534   1.302   0.652 -0.1078 -0.0264 -0.1574
  127MOL    C4145653   1.607   1.374   0.768 -0.1531 -0.2503  0.2873
  127MOL    C4245654   1.500   1.449   0.847  0.7073  0.1310 -0.0269
  127MOL    C4345655   1.574   1.507   0.971  0.0811  0.2693 -0.0041
  127MOL    H4445656   1.623   1.226   0.378  0.5018 -0.3930 -0.2531
  127MOL    H4545657   1.590   1.058   0.418  0.9177 -0.6745  2.2402
  127MOL    H4645658   1.717   1.238   0.570  0.9051 -0.1078 -0.1246
  127MOL    H4745659   1.515   1.380   0.578  0.4740 -0.8200 -1.1521
  127MOL    H4845660   1.436   1.265   0.681  0.7362 -0.6707  1.9113
  127MOL    H4945661   1.666   1.315   0.840  0.4600  0.2917  0.2360
  127MOL    H5045662   1.679   1.442   0.722 -1.0831  1.9293  1.9903
  127MOL    H5145663   1.446   1.521   0.786  0.8133 -0.1405 -0.4407
  127MOL    H5245664   1.416   1.385   0.876 -1.3358  1.9917 -1.6706
  127MOL    H5345665   1.497   1.539   1.040  1.1098  1.4775  0.6137
  127MOL    H5445666   1.627   1.600   0.950  0.3972  0.4496  1.5099
  127MOL    H5545667   1.645   1.443   1.024  1.8792  0.6791 -1.8149
  127MOL    C5645668   1.656   1.064   0.666  0.1876  0.4513  0.4001
  127MOL    C5745669   1.769   0.972   0.617  0.2972 -1.2596  0.1828
  127MOL    C5845670   1.751   0.840   0.700  0.2988  0.7210 -0.0243
  127MOL    C5945671   1.634   0.743   0.663  0.2090  0.1817 -0.1043
  127MOL    C6045672   1.624   0.614   0.750 -0.2112 -0.4320  0.2318
  127MOL    C6145673   1.533   0.508   0.689 -0.0718  0.0114  0.2032
  127MOL    H6245674   1.668   1.103   0.767  2.1043  0.0820  0.3216
  127MOL    H6345675   1.561   1.010   0.676  1.0823 -1.1585  0.4381
  127MOL    H6445676   1.761   0.949   0.511  0.2898  2.0858 -0.5812
  127MOL    H6545677   1.850   0.798   0.683  0.4701  0.9000  0.5227
  127MOL    H6645678   1.747   0.855   0.808  0.2403  0.8704 -0.0479
  127MOL    H6745679   1.653   0.716   0.559  0.7818  1.2210 -0.2768
  127MOL    H6845680   1.540   0.800   0.665 -1.3581 -2.1978 -2.2791
  127MOL    H6945681   1.718   0.559   0.764  0.3374  0.0190 -1.5850
  127MOL    H7045682   1.596   0.643   0.851  2.7253 -0.9592  1.2355
  127MOL    H7145683   1.540   0.409   0.735 -2.6525  0.6942  2.1714
  127MOL    H7245684   1.429   0.527   0.713  0.2026 -0.0426  1.5105
  127MOL    H7345685   1.533   0.503   0.580 -0.7457  1.7544  0.1145
  127MOL    C7445686   1.916   1.037   0.645  0.6839  0.5845 -0.1162
  127MOL    C7545687   2.039   0.975   0.572 -0.0399 -0.0218 -0.8253
  127MOL    C7645688   2.067   1.029   0.433 -0.4878 -0.6218  0.5970
  127MOL    C7745689   1.965   1.012   0.324 -0.2751  0.4388 -0.2622
  127MOL    C7845690   1.948   0.864   0.284 -0.7214 -0.1256  0.3774
  127MOL    C7945691   2.071   0.808   0.221 -0.0250 -0.2439  0.6222
  127MOL    H8045692   1.908   1.144   0.626 -1.0290  0.7069  1.1089
  127MOL    H8145693   1.942   1.029   0.750 -1.0324 -0.8982  0.2265
  127MOL    H8245694   2.022   0.868   0.583 -0.8672  0.2558  0.7322
  127MOL    H8345695   2.091   1.135   0.435 -0.1498 -0.7013  0.9380
  127MOL    H8445696   2.158   0.982   0.395 -1.4580 -2.2380  0.1868
  127MOL    H8545697   1.866   1.042   0.358 -0.0430  0.7657  0.1311
  127MOL    H8645698   1.992   1.070   0.236  0.3094 -0.1140 -0.4465
  127MOL    H8745699   1.868   0.855   0.211 -0.0323  0.7350 -0.4964
  127MOL    H8845700   1.921   0.806   0.372  0.0750 -0.6710  0.2742
  127MOL    H8945701   2.055   0.719   0.161  0.9942  1.5672 -2.4374
  127MOL    H9045702   2.119   0.878   0.153  1.2121 -0.9392  0.7553
  127MOL    H9145703   2.142   0.791   0.302 -0.3666  1.5433  1.3343
  127MOL    C9245704   2.167   1.000   0.659 -0.1004  0.0685  0.0121
  127MOL    C9345705   2.297   0.920   0.635  0.0781 -0.3327 -0.2109
  127MOL    C9445706   2.405   0.938   0.747 -0.2053 -0.2145 -0.2916
  127MOL    C9545707   2.435   1.084   0.771 -0.1146 -1.1504  0.3924
  127MOL    C9645708   2.550   1.109   0.872 -0.8272 -0.6969 -0.0777
  127MOL    C9745709   2.582   1.257   0.887  0.2804  0.2720 -0.5945
  127MOL    H9845710   2.195   1.105   0.659 -0.4573  0.1651 -0.5538
  127MOL    H9945711   2.143   0.982   0.764  0.5005 -0.9144 -0.0188
  127MOL   H10045712   2.335   0.975   0.549 -0.9344  0.4594 -0.1738
  127MOL   H10145713   2.502   0.896   0.720 -1.2702 -1.9588 -1.4905
  127MOL   H10245714   2.372   0.900   0.844  0.6383  2.0720  0.9164
  127MOL   H10345715   2.466   1.141   0.683  2.6319 -1.4150  1.1380
  127MOL   H10445716   2.346   1.135   0.807  0.0193 -1.2285  0.8388
  127MOL   H10545717   2.522   1.088   0.976 -1.1426 -0.2802 -0.0768
  127MOL   H10645718   2.640   1.053   0.848  1.0608  1.4156  1.8651
  127MOL   H10745719   2.491   1.317   0.892 -0.3318 -0.7661  1.1497
  127MOL   H10845720   2.639   1.268   0.979  0.9158  2.8161 -1.2659
  127MOL   H10945721   2.629   1.293   0.795 -0.5665  2.1066 -0.3305
  127MOL   C11045722   2.276   0.775   0.592 -0.3299  0.1146  0.8931
  127MOL   C11145723   2.398   0.690   0.535 -0.3035  0.0761 -0.2441
  127MOL   C11245724   2.484   0.758   0.425  0.3327 -0.4379  0.7138
  127MOL   C11345725   2.418   0.805   0.294  0.0457 -0.3338  0.5288
  127MOL   C11445726   2.513   0.877   0.201  0.6308  1.3251 -0.0270
  127MOL   C11545727   2.450   0.896   0.063 -0.0051 -0.2460 -1.0147
  127MOL   H11645728   2.235   0.732   0.683 -1.1184 -2.6437 -0.7021
  127MOL   H11745729   2.206   0.773   0.509 -1.3391  1.5403  1.6803
  127MOL   H11845730   2.473   0.675   0.613 -0.5117 -1.0987 -0.2614
  127MOL   H11945731   2.561   0.684   0.406  0.9299  0.3172  0.1616
  127MOL   H12045732   2.530   0.845   0.471  2.2742 -1.6125  1.0124
  127MOL   H12145733   2.333   0.870   0.317  0.5050 -0.4741  2.7147
  127MOL   H12245734   2.361   0.727   0.243  1.7768  0.2274 -2.4025
  127MOL   H12345735   2.601   0.816   0.182  0.4836  0.4411  1.9346
  127MOL   H12445736   2.553   0.968   0.246 -1.2251  2.0886  0.1408
  127MOL   H12545737   2.371   0.970   0.073  0.9816  0.7356 -0.3745
  127MOL   H12645738   2.524   0.947   0.002  0.4610  0.2691 -0.0368
  127MOL   H12745739   2.412   0.804   0.019 -1.1933  0.8978 -2.4289
  127MOL   C12845740   2.366   0.545   0.506 -0.2259  0.7590  0.4392
  127MOL   C12945741   2.283   0.457   0.603 -0.0227 -0.1921  1.0409
  127MOL   C13045742   2.368   0.417   0.726 -0.4127  0.3879 -0.8135
  127MOL   C13145743   2.286   0.346   0.832 -0.0796  0.4401  0.2938
  127MOL   C13245744   2.353   0.355   0.968  0.1529  0.5973 -0.0298
  127MOL   C13345745   2.283   0.277   1.080 -0.1348 -0.6986  0.3921
  127MOL   H13445746   2.460   0.491   0.490 -0.5874  0.4528 -0.7129
  127MOL   H13545747   2.317   0.547   0.408  0.1203 -2.1222  0.1663
  127MOL   H13645748   2.198   0.516   0.639 -0.4955  0.8388 -1.6579
  127MOL   H13745749   2.466   0.374   0.706  1.2018  2.0711  2.8864
  127MOL   H13845750   2.405   0.507   0.775  1.0691 -0.2886 -0.6698
  127MOL   H13945751   2.279   0.239   0.809  2.4777  0.8025 -2.4284
  127MOL   H14045752   2.186   0.391   0.833 -1.2748 -2.0850 -0.2518
  127MOL   H14145753   2.454   0.313   0.973 -0.2824 -0.5785 -0.7391
  127MOL   H14245754   2.354   0.459   1.001  0.7216  0.2803  0.9890
  127MOL   H14345755   2.296   0.169   1.082  2.1243 -0.5025 -0.8713
  127MOL   H14445756   2.178   0.304   1.088 -0.3607 -0.9722 -1.3424
  127MOL   H14545757   2.329   0.315   1.171  2.0363  0.4104 -1.0950
  127MOL   C14645758   2.227   0.332   0.534  0.6714 -0.0302 -0.7440
  127MOL   C14745759   2.136   0.348   0.413  0.0448  0.4195  0.1345
  127MOL   C14845760   1.998   0.417   0.450  0.5680 -0.1588 -0.6233
  127MOL   C14945761   1.894   0.450   0.338 -0.4789 -0.3923  0.4696
  127MOL   C15045762   1.766   0.518   0.391  0.0711 -0.7042 -0.3748
  127MOL   C15145763   1.646   0.536   0.298 -0.1823  0.3776  0.2808
  127MOL   H15245764   2.313   0.267   0.518  0.6248 -0.4449  0.6664
  127MOL   H15345765   2.162   0.279   0.602  1.3542  1.6384  1.2614
  127MOL   H15445766   2.180   0.415   0.339 -0.7480 -0.3019 -1.0116
  127MOL   H15545767   2.021   0.509   0.503 -2.2948  0.8234 -1.0024
  127MOL   H15645768   1.948   0.351   0.521  2.6520 -0.5385  0.5597
  127MOL   H15745769   1.931   0.504   0.251  2.1725 -1.5997  0.8254
  127MOL   H15845770   1.860   0.353   0.302 -1.5663  0.3432 -0.5083
  127MOL   H15945771   1.802   0.621   0.401 -3.1282  0.5540 -1.0288
  127MOL   H16045772   1.735   0.484   0.490 -1.3163 -2.4565 -1.4030
  127MOL   H16145773   1.581   0.618   0.328 -0.1776 -0.2145  1.9353
  127MOL   H16245774   1.686   0.576   0.204 -0.7875 -0.2780 -0.2640
  127MOL   H16345775   1.580   0.450   0.290  0.0653  0.1010  1.2294
  127MOL   C16445776   2.107   0.208   0.348  0.9418 -0.2030  0.1115
  127MOL   C16545777   2.233   0.134   0.271  0.9392 -0.1399  0.3398
  127MOL   C16645778   2.218   7.716   0.276  0.0128  0.0583  0.4785
  127MOL   C16745779   2.256   7.653   0.417 -0.1745  0.0144  0.3594
  127MOL   C16845780   2.258   7.500   0.404  0.4114  0.2851 -0.1187
  127MOL   C16945781   2.303   7.429   0.531 -0.3303 -0.9942 -0.2870
  127MOL   H17045782   2.080   0.147   0.434 -0.4477  1.9823  1.2556
  127MOL   H17145783   2.026   0.200   0.276  1.1303 -1.9281  0.0560
  127MOL   H17245784   2.329   0.148   0.320  0.0270 -0.7123  2.3861
  127MOL   H17345785   2.292   7.668   0.212  1.2150  1.5313  0.7318
  127MOL   H17445786   2.119   7.676   0.253  0.3880 -0.9690  0.6490
  127MOL   H17545787   2.173   7.676   0.484 -0.4311 -2.5007  0.9611
  127MOL   H17645788   2.352   7.693   0.450 -1.9666  4.0040  1.0198
  127MOL   H17745789   2.321   7.471   0.320  0.9437 -0.0451  0.3908
  127MOL   H17845790   2.159   7.464   0.376 -0.3353  0.8440  1.7289
  127MOL   H17945791   2.267   7.496   0.610  0.0239 -2.0550  0.7911
  127MOL   H18045792   2.408   7.401   0.542 -0.5447 -1.5051  0.5280
  127MOL   H18145793   2.256   7.332   0.542  1.2244 -1.6276  1.0695
  127MOL   C18245794   2.238   0.187   0.124  0.0824  0.2815  0.4812
  127MOL   C18345795   2.372   0.160   0.056  0.7002  0.3937  0.0390
  127MOL   C18445796   2.463   0.272   0.094 -0.0601  0.8360 -0.4626
  127MOL   C18545797   2.619   0.263   0.089  0.1753  0.2050  0.2889
  127MOL   C18645798   2.684   0.399   0.129 -0.3224  0.0947  0.0178
  127MOL   C18745799   2.638   0.526   0.062 -0.3214  0.4330 -0.3129
  127MOL   H18845800   2.153   0.138   0.077  0.6155  1.4743 -1.8203
  127MOL   H18945801   2.207   0.291   0.111  1.2771  0.6411  0.4951
  127MOL   H19045802   2.411   0.069   0.102  0.8269  1.6688  2.5283
  127MOL   H19145803   2.442   0.362   0.036  0.4881 -0.2496 -2.4113
  127MOL   H19245804   2.449   0.307   0.196  1.8271 -1.2562  0.5620
  127MOL   H19345805   2.639   0.231   7.713  0.4787  1.9045 -0.1982
  127MOL   H19445806   2.648   0.188   0.162  0.1997 -0.3943 -0.3306
  127MOL   H19545807   2.792   0.398   0.115 -0.1849  0.0260  1.0547
  127MOL   H19645808   2.665   0.408   0.236  2.3166 -0.5538  0.5741
  127MOL   H19745809   2.715   0.600   0.082  2.6256 -2.4098 -0.7162
  127MOL   H19845810   2.543   0.562   0.102  0.4533  0.8496  1.2069
  127MOL   H19945811   2.618   0.512   7.683  1.4540 -2.1174 -0.3493
  127MOL   C20045812   2.368   0.133   7.628 -0.1974 -0.0297  1.0620
  127MOL   C20145813   2.275   0.024   7.565  0.6993  0.2082  0.5456
  127MOL   C20245814   2.270   0.043   7.415 -0.4881  0.1187  0.5110
  127MOL   C20345815   2.200   0.172   7.363 -0.3565  0.5507  0.0573
  127MOL   C20445816   2.240   0.196   7.217 -0.0096  0.2128 -0.1478
  127MOL   C20545817   2.171   0.319   7.155 -0.7820  0.1445  0.0291
  127MOL   H20645818   2.467   0.132   7.582  0.0388  4.5187  1.3071
  127MOL   H20745819   2.336   0.225   7.579 -1.5268 -1.2930 -0.4971
  127MOL   H20845820   2.173   0.033   7.602  0.8423  0.5608  0.8590
  127MOL   H20945821   2.219   7.683   7.374  1.6606 -0.8228 -0.2469
  127MOL   H21045822   2.371   0.036   7.373 -0.9310  0.3386 -0.5839
  127MOL   H21145823   2.232   0.263   7.413 -0.4234  0.7716 -0.2979
  127MOL   H21245824   2.093   0.156   7.373 -0.1280 -0.9094  0.2309
  127MOL   H21345825   2.218   0.107   7.158  1.2171  0.3111 -0.7665
  127MOL   H21445826   2.345   0.227   7.213  0.1409 -0.2315  0.2673
  127MOL   H21545827   2.065   0.293   7.150 -1.0154  0.9136  0.7866
  127MOL   H21645828   2.174   0.405   7.223 -1.1053 -0.1382  0.4073
  127MOL   H21745829   2.215   0.343   7.058  1.6282 -0.3419  0.9579
  127MOL   C21845830   2.321   7.602   7.593  0.2930 -0.1587  0.4900
  127MOL   C21945831   2.448   7.539   7.527  0.6134  0.3321  0.5950
  127MOL   C22045832   2.415   7.461   7.395  0.3048  0.1845 -0.3174
  127MOL   C22145833   2.334   7.328   7.417  0.3204  0.3596  0.0552
  127MOL   C22245834   2.286   7.270   7.286 -0.2260  0.8098 -0.3420
  127MOL   C22345835   2.229   7.129   7.295 -0.6033 -0.6444 -0.3675
  127MOL   H22445836   2.326   7.596   7.702 -2.7844  0.1130  0.6831
  127MOL   H22545837   2.233   7.539   7.583  0.4594 -0.8083  2.7607
  127MOL   H22645838   2.520   7.612   7.491  0.0827  0.5475 -0.0371
  127MOL   H22745839   2.510   7.428   7.352  0.9622  0.1934  1.0829
  127MOL   H22845840   2.380   7.525   7.314 -1.1727  1.1185  1.0340
  127MOL   H22945841   2.248   7.349   7.481  0.3156  0.4249  0.0275
  127MOL   H23045842   2.398   7.254   7.465  0.8741  0.2889 -0.7848
  127MOL   H23145843   2.209   7.329   7.237  0.5378  1.6459 -0.5466
  127MOL   H23245844   2.365   7.273   7.211 -3.0547  1.5109 -3.4273
  127MOL   H23345845   2.147   7.127   7.367  0.9480  1.1033  1.5420
  127MOL   H23445846   2.303   7.067   7.347 -0.6299 -0.0309  0.4075
  127MOL   H23545847   2.198   7.075   7.206  0.6689 -0.4881 -0.9086
  127MOL   C23645848   2.525   7.447   7.621 -1.2751  0.4960 -1.1932
  127MOL   C23745849   2.597   7.517   0.007  0.2476  0.1385  0.7134
  127MOL   C23845850   2.716   7.602   7.680 -0.0376 -0.0511 -0.2663
  127MOL   C23945851   2.833   7.526   7.619  0.9871  0.0671 -0.8273
  127MOL   C24045852   2.914   7.618   7.520 -0.3095  0.4886 -0.1782
  127MOL   C24145853   2.846   7.672   7.393  0.4742  0.6225  0.1243
  127MOL   H24245854   2.460   7.363   7.643  1.4181 -1.5163 -0.6387
  127MOL   H24345855   2.607   7.403   7.564 -2.0439 -2.2508 -0.2388
  127MOL   H24445856   2.525   7.587   0.048 -0.0287  0.6003 -0.5351
  127MOL   H24545857   2.677   7.672   7.606  0.6501  0.4062 -0.2009
  127MOL   H24645858   2.757   7.673   0.025  2.3224 -0.9591 -0.6564
  127MOL   H24745859   2.810   7.438   7.560 -2.3953  0.9417 -0.9242
  127MOL   H24845860   2.890   7.499   7.708 -0.4100  1.6677  0.6026
  127MOL   H24945861   2.935   7.707   7.578 -0.9080  0.2555  0.4020
  127MOL   H25045862   3.004   7.559   7.498 -0.1143  1.3500 -1.7647
  127MOL   H25145863   2.743   7.708   7.401  0.0939  0.3699 -2.9476
  127MOL   H25245864   2.908   0.025   7.354  0.5841  1.3128  1.6730
  127MOL   H25345865   2.849   7.598   7.313 -0.1907  0.1784  0.4964
  127MOL   C25445866   2.626   7.419   0.126 -0.1275 -0.4373  0.4237
  127MOL   C25545867   2.699   7.480   0.252  0.3861 -0.3469  0.2434
  127MOL   C25645868   2.715   7.370   0.358  0.1108  0.1166  0.0311
  127MOL   C25745869   2.802   7.248   0.317  0.0478  0.4494  0.1900
  127MOL   C25845870   2.822   7.130   0.417  0.3490 -0.0023  0.4697
  127MOL   C25945871   2.920   7.028   0.359 -0.9632  0.1630 -0.2080
  127MOL   H26045872   2.700   7.349   0.087  0.3360 -2.0217  3.9757
  127MOL   H26145873   2.530   7.374   0.153 -0.4461 -0.3789 -0.6065
  127MOL   H26245874   2.801   7.508   0.224  1.0260 -1.7225  1.1605
  127MOL   H26345875   2.758   7.403   0.453 -1.0531  1.5883  0.0679
  127MOL   H26445876   2.614   7.333   0.375  0.1768 -0.6155 -1.1329
  127MOL   H26545877   2.758   7.203   0.228  1.9566  0.5506 -0.8356
  127MOL   H26645878   2.904   7.275   0.290  0.3392  0.3917  1.2245
  127MOL   H26745879   2.722   7.091   0.440  0.1904  0.4925  0.6108
  127MOL   H26845880   2.857   7.161   0.516 -3.6195 -2.3871  2.7771
  127MOL   H26945881   2.953   6.958   0.436  1.3264 -0.1605 -1.4183
  127MOL   H27045882   2.999   7.087   0.311 -2.1685  1.6305 -0.4085
  127MOL   H27145883   2.872   6.958   0.291  0.1781 -1.3524  0.5186
  127MOL   C27245884   2.633   7.607   0.315 -0.3761  0.3212  0.6974
  127MOL   C27345885   2.716   7.675   0.428  0.3582 -0.6851 -0.2140
  127MOL   C27445886   2.631   0.031   0.521  0.7515 -1.0008 -0.4191
  127MOL   C27545887   2.561   7.678   0.634 -0.4359 -0.8316 -0.0493
  127MOL   C27645888   2.483   0.040   0.727  0.2805  0.3835 -0.6507
  127MOL   C27745889   2.432   7.694   0.851  0.8222  0.1122  0.5571
  127MOL   H27845890   2.599   7.682   0.244  0.3598 -0.3419 -0.3628
  127MOL   H27945891   2.540   7.562   0.351 -0.1042  0.5755  1.7294
  127MOL   H28045892   2.762   7.605   0.498 -0.7868 -2.7475 -1.4521
  127MOL   H28145893   2.559   0.094   0.469 -0.0777 -1.9292 -0.4120
  127MOL   H28245894   2.690   0.118   0.549  0.3515 -0.5484 -0.9667
  127MOL   H28345895   2.641   7.633   0.692 -0.2121  0.9136  1.0527
  127MOL   H28445896   2.499   7.594   0.605 -1.3678 -0.5657  1.1202
  127MOL   H28545897   2.536   0.129   0.763  0.9790 -0.1781 -0.2759
  127MOL   H28645898   2.391   0.068   0.676 -1.4796 -0.5906  1.8579
  127MOL   H28745899   2.495   7.616   0.894  2.3660  0.4049 -1.1416
  127MOL   H28845900   2.386   0.034   0.923 -0.1582  0.8163 -0.6939
  127MOL   H28945901   2.353   7.626   0.816 -0.1243  0.0568  2.6926
  127MOL   C29045902   2.836   0.035   0.379  0.0609 -0.2364 -0.2311
  127MOL   C29145903   2.955   0.050   0.470 -0.3665 -0.0006 -0.3027
  127MOL   C29245904   3.051   7.659   0.438 -0.0674  0.1378 -0.1471
  127MOL   C29345905   3.193   7.667   0.489  0.0304  0.4851  0.6342
  127MOL   C29445906   3.273   7.534   0.494  0.2583  0.2994 -0.7838
  127MOL   C29545907   3.293   7.472   0.362  0.7384 -0.3437 -0.4128
  127MOL   H29645908   2.807   0.137   0.353  0.2928 -0.1081  0.0170
  127MOL   H29745909   2.853   7.714   0.283  0.4508  0.5718 -0.5705
  127MOL   H29845910   2.927   0.043   0.575  0.0206  0.1771 -0.1864
  127MOL   H29945911   3.052   7.632   0.333  2.8137  2.9552 -0.9309
  127MOL   H30045912   3.009   7.567   0.480 -1.3975  0.0470 -1.6285
  127MOL   H30145913   3.251   0.009   0.427 -1.0172  0.5573 -0.2756
  127MOL   H30245914   3.191   7.717   0.586  2.8409  1.6824  0.1263
  127MOL   H30345915   3.237   7.464   0.569  0.5418  0.1321 -0.8005
  127MOL   H30445916   3.374   7.558   0.527 -0.1379 -0.9410  1.4590
  127MOL   H30545917   3.332   7.550   0.295  0.4069  1.5458  1.5247
  127MOL   H30645918   3.201   7.439   0.314  0.1648  0.0211  0.4164
  127MOL   H30745919   3.366   7.392   0.367 -0.9521 -1.9063 -0.4275
  127MOL   C30845920   3.027   0.191   0.457  0.6454 -0.3789  0.6808
  127MOL   C30945921   2.962   0.308   0.542 -0.4780 -0.2109 -0.4040
  127MOL   C31045922   2.949   0.433   0.449  0.1108 -0.5847 -0.1116
  127MOL   C31145923   2.894   0.562   0.511 -0.2262 -0.1639  0.5537
  127MOL   C31245924   2.859   0.664   0.410  0.2575 -0.5178  0.0674
  127MOL   C31345925   2.839   0.802   0.464  0.0862  0.5180  0.2430
  127MOL   H31445926   3.133   0.185   0.481  1.0601  0.7824 -0.7785
  127MOL   H31545927   3.012   0.215   0.352  0.8682  0.1450  0.7668
  127MOL   H31645928   2.861   0.269   0.558 -0.8891  0.7490 -0.6421
  127MOL   H31745929   2.879   0.399   0.373 -0.8091 -1.4774  1.1097
  127MOL   H31845930   3.041   0.458   0.398 -0.0211  0.7629  0.2763
  127MOL   H31945931   2.949   0.611   0.592 -0.5611  1.0725  0.0492
  127MOL   H32045932   2.806   0.533   0.567 -1.4685  2.1402 -0.1307
  127MOL   H32145933   2.946   0.674   0.346 -0.7864 -0.9910 -1.4398
  127MOL   H32245934   2.781   0.623   0.346  0.5914  0.4447 -0.9582
  127MOL   H32345935   2.805   0.861   0.379 -0.0655 -0.0976 -0.1318
  127MOL   H32445936   2.934   0.835   0.507  1.1205 -0.4431 -1.2248
  127MOL   H32545937   2.763   0.811   0.541  2.2485  2.6767  2.2073
  127MOL   C32645938   3.046   0.339   0.664 -0.0652 -0.5026 -0.4044
  127MOL   C32745939   3.056   0.230   0.772  0.8571 -0.2531  0.2719
  127MOL   C32845940   3.175   0.247   0.867  0.1022 -0.0064  0.0297
  127MOL   C32945941   3.307   0.201   0.793 -0.1453  0.1861 -0.0637
  127MOL   C33045942   3.428   0.218   0.885  0.0136 -0.0269 -0.5130
  127MOL   C33145943   3.575   0.201   0.834  0.3960 -0.3936 -0.1589
  127MOL   H33245944   3.020   0.433   0.713  1.9435 -0.2832  0.2999
  127MOL   H33345945   3.144   0.365   0.624 -0.7053  2.1547 -0.3523
  127MOL   H33445946   3.063   0.136   0.718  0.7968 -0.0673 -0.0641
  127MOL   H33545947   3.194   0.348   0.902 -0.2357  0.1646 -0.2822
  127MOL   H33645948   3.160   0.185   0.955 -4.0364  0.7337 -0.0848
  127MOL   H33745949   3.332   0.251   0.699 -1.9376 -0.1284 -0.7279
  127MOL   H33845950   3.309   0.092   0.793 -0.3175  0.1437  3.0815
  127MOL   H33945951   3.418   0.315   0.935  1.4806  0.1598 -0.5545
  127MOL   H34045952   3.418   0.150   0.970 -0.6668  0.4712 -0.1890
  127MOL   H34145953   3.643   0.185   0.918 -3.2543  0.1062  3.0385
  127MOL   H34245954   3.599   0.298   0.790  2.8136 -0.2659  1.3080
  127MOL   H34345955   3.571   0.128   0.753 -3.5875 -1.1665  0.6195
  127MOL   C34445956   2.918   0.227   0.850  0.4166 -0.8850 -0.5575
  127MOL   C34545957   2.919   0.152   0.979 -0.4684  0.2185  0.1803
  127MOL   C34645958   2.780   0.100   1.015 -0.1007 -0.0501  0.1268
  127MOL   C34745959   2.779   0.036   1.157  0.5745  0.0191 -0.4299
  127MOL   C34845960   2.639   0.008   1.209  0.4109  1.0452 -0.0883
  127MOL   C34945961   2.632   7.670   1.351  1.0214 -0.9090  0.0131
  127MOL   H35045962   2.894   0.332   0.865  0.0378 -0.9835 -0.4835
  127MOL   H35145963   2.845   0.183   0.781  0.8523  0.7503 -2.1190
  127MOL   H35245964   2.965   0.210   1.059 -1.4604  0.8117  0.3276
  127MOL   H35345965   2.720   0.190   1.010 -0.5479 -0.2145  2.0773
  127MOL   H35445966   2.741   0.033   0.939 -0.4636 -1.6366  1.6807
  127MOL   H35545967   2.827   7.666   1.157  0.4053 -0.0643 -0.5031
  127MOL   H35645968   2.821   0.101   1.234  1.1833 -0.7922 -0.0839
  127MOL   H35745969   2.610   0.111   1.227  1.2386  1.0742  1.1738
  127MOL   H35845970   2.568   7.705   1.133  1.1323  0.3438 -0.4927
  127MOL   H35945971   2.535   7.682   1.399  0.3753  1.8845 -1.8973
  127MOL   H36045972   2.661   7.565   1.344  0.6470 -0.9467 -0.9946
  127MOL   H36145973   2.705   0.002   1.405 -0.6113  1.4349 -0.2909
  127MOL   H36245974   2.978   0.062   0.963  2.7880  2.0201  1.6546
  128MOL     C145975   6.715   4.945   6.533  0.0604 -0.7753  0.8802
  128MOL     C245976   6.570   4.928   6.577 -0.1381 -0.2374 -0.4501
  128MOL     C345977   6.479   4.867   6.471 -0.2183 -0.1894  0.0665
  128MOL     C445978   6.454   4.958   6.347  0.9023 -0.8722  0.1718
  128MOL     C545979   6.344   4.893   6.258 -0.5854  0.2775  0.2048
  128MOL     C645980   6.332   4.964   6.118 -0.0052  0.2241 -0.1063
  128MOL     H745981   6.782   4.968   6.617  2.8327 -1.3573 -1.0819
  128MOL     H845982   6.749   4.852   6.487  0.1650 -0.1964 -0.2145
  128MOL     H945983   6.572   4.855   6.659  1.0238 -0.1202 -0.3708
  128MOL    H1045984   6.385   4.841   6.521 -0.5512  0.7508 -0.0687
  128MOL    H1145985   6.520   4.775   6.430 -1.4702  0.1782 -2.1017
  128MOL    H1245986   6.550   4.967   6.296 -0.4985  1.4810 -2.1899
  128MOL    H1345987   6.427   5.062   6.367  1.1450 -1.0606  1.5374
  128MOL    H1445988   6.371   4.788   6.248 -0.5808  0.0908  1.9708
  128MOL    H1545989   6.250   4.890   6.312 -0.5672 -0.9341  0.1750
  128MOL    H1645990   6.292   5.065   6.127 -0.5938  0.0714 -0.9384
  128MOL    H1745991   6.272   4.910   6.045 -1.3948  0.5301  0.7945
  128MOL    H1845992   6.433   4.965   6.077 -0.3034 -2.0002 -1.0060
  128MOL    H1945993   6.717   5.030   6.465  0.9469  0.2646  2.1694
  128MOL    C2045994   6.523   5.056   6.645  0.4470 -0.3494  0.8505
  128MOL    C2145995   6.403   5.037   6.742 -0.6396  0.0981  0.2888
  128MOL    C2245996   6.437   4.950   6.857 -0.0279  0.4257  0.0774
  128MOL    C2345997   6.528   5.013   6.963 -0.5561 -0.2609 -0.3633
  128MOL    C2445998   6.546   4.925   7.092 -0.6019 -0.2859 -0.4659
  128MOL    C2545999   6.655   4.987   7.183  0.3023  0.2011  0.2259
  128MOL    H2646000   6.498   5.130   6.569  0.0919 -0.5415  0.7819
  128MOL    H2746001   6.603   5.099   6.705  1.4527 -0.0520 -0.6516
  128MOL    H2846002   6.338   4.969   6.687  0.0770  1.1062 -1.8558
  128MOL    H2946003   6.471   4.848   6.834  0.3941  0.7024 -0.5565
  128MOL    H3046004   6.347   4.925   6.913 -1.3414  0.2601 -2.0482
  128MOL    H3146005   6.483   5.107   6.996 -1.9364 -0.2808 -2.0909
  128MOL    H3246006   6.627   5.032   6.921 -0.7061 -1.3621 -1.2615
  128MOL    H3346007   6.454   4.916   7.151 -0.3170  0.8074  0.1562
  128MOL    H3446008   6.585   4.827   7.065  1.8783  0.4118  0.4745
  128MOL    H3546009   6.628   5.083   7.227  3.0709  1.0086  0.2490
  128MOL    H3646010   6.691   4.923   7.263 -0.0849 -1.0710 -0.6048
  128MOL    H3746011   6.748   5.011   7.132  1.5300  0.8662  2.7043
  128MOL    C3846012   6.331   5.170   6.775  0.4811  0.5488  0.5733
  128MOL    C3946013   6.187   5.164   6.818  0.3144 -0.4378  0.1708
  128MOL    C4046014   6.129   5.296   6.882  0.7968  0.7369 -0.0650
  128MOL    C4146015   6.202   5.337   7.013 -0.6962  0.5323 -0.1603
  128MOL    C4246016   6.162   5.462   7.091  0.1053 -0.3689  0.6877
  128MOL    C4346017   6.026   5.445   7.159  0.3764 -0.0790  0.7449
  128MOL    H4446018   6.336   5.233   6.686 -0.0902 -0.4323 -0.1646
  128MOL    H4546019   6.399   5.214   6.848 -0.8715  0.2075  2.0670
  128MOL    H4646020   6.183   5.090   6.898  0.5892  1.6141  2.1592
  128MOL    H4746021   6.135   5.371   6.803  0.4982  2.3382  1.4227
  128MOL    H4846022   6.022   5.287   6.900  0.6652 -0.1549 -1.1873
  128MOL    H4946023   6.191   5.255   7.084  0.7769 -1.5830 -2.2906
  128MOL    H5046024   6.308   5.349   6.993 -1.0371  2.5981 -0.8361
  128MOL    H5146025   6.237   5.486   7.165  0.7863 -3.4799  1.0874
  128MOL    H5246026   6.163   5.549   7.025 -2.1638 -0.6729  0.1871
  128MOL    H5346027   6.008   5.537   7.216 -0.0123 -0.2734  0.9344
  128MOL    H5446028   6.032   5.368   7.236  2.1149 -0.7442 -0.0195
  128MOL    H5546029   5.949   5.419   7.087 -1.0163  2.0557  1.4259
  128MOL    C5646030   6.094   5.122   6.699 -0.0587  0.5404  0.2970
  128MOL    C5746031   5.949   5.094   6.735  0.2359 -0.2613 -0.1467
  128MOL    C5846032   5.936   5.016   6.875  0.2077  0.3991  0.1908
  128MOL    C5946033   5.790   4.983   6.921  0.6010  0.1504 -0.3851
  128MOL    C6046034   5.791   4.953   7.069  0.3380  0.1835  0.5382
  128MOL    C6146035   5.798   5.074   7.168  0.1510  0.0699 -0.0731
  128MOL    H6246036   6.090   5.196   6.619 -1.1960  0.4755  0.2868
  128MOL    H6346037   6.128   5.035   6.642  0.7264  0.4482  0.8940
  128MOL    H6446038   5.904   5.192   6.745  4.8934  2.0596 -0.5948
  128MOL    H6546039   5.993   4.923   6.867 -1.5117 -0.5496 -1.4502
  128MOL    H6646040   5.963   5.078   6.960 -1.3133 -0.3169  1.2107
  128MOL    H6746041   5.742   4.899   6.870 -0.7028 -0.0804  1.1855
  128MOL    H6846042   5.726   5.068   6.900 -0.5381 -0.8894 -1.2184
  128MOL    H6946043   5.698   4.902   7.094  0.1751  0.9588  1.5063
  128MOL    H7046044   5.870   4.880   7.092  1.1896  0.7106 -0.6619
  128MOL    H7146045   5.705   5.132   7.165  0.2697  0.2854  0.3425
  128MOL    H7246046   5.801   5.034   7.270 -2.6401  0.1931  0.1228
  128MOL    H7346047   5.883   5.141   7.158  1.2003 -0.9990  1.3487
  128MOL    C7446048   5.868   5.036   6.616  0.3108 -0.2751 -0.3649
  128MOL    C7546049   5.809   5.133   6.524  0.6643  0.1796  0.6789
  128MOL    C7646050   5.812   5.090   6.373  0.3275  0.3578  0.2100
  128MOL    C7746051   5.945   5.078   6.297  0.4227 -0.1036 -0.4718
  128MOL    C7846052   5.933   5.042   6.147  0.0960 -0.1274  0.1836
  128MOL    C7946053   5.850   5.136   6.058  0.0331 -0.0296 -0.5620
  128MOL    H8046054   5.928   4.963   6.562 -0.2493 -2.1432  1.4569
  128MOL    H8146055   5.786   4.971   6.648 -1.5637  1.4142 -1.6756
  128MOL    H8246056   5.885   5.211   6.528  0.9355 -0.0963  0.8676
  128MOL    H8346057   5.759   4.996   6.359  0.4167  0.2075  0.8744
  128MOL    H8446058   5.753   5.163   6.319 -0.9481 -0.4400  0.4998
  128MOL    H8546059   5.986   5.178   6.313  1.9812 -0.7702 -0.2410
  128MOL    H8646060   6.013   5.011   6.350 -0.9511 -0.6112  0.7249
  128MOL    H8746061   5.903   4.937   6.143 -0.6436 -0.0696  3.0112
  128MOL    H8846062   6.036   5.038   6.113 -0.2788  0.3852 -1.0092
  128MOL    H8946063   5.845   5.111   5.952  0.1673 -2.1672 -0.0993
  128MOL    H9046064   5.747   5.148   6.091  0.2334  0.1609  0.0076
  128MOL    H9146065   5.882   5.239   6.073  0.4974 -0.2137 -0.2586
  128MOL    C9246066   5.665   5.199   6.563 -0.0389 -0.2017  0.3078
  128MOL    C9346067   5.652   5.352   6.538 -0.0893 -0.9869  0.0100
  128MOL    C9446068   5.726   5.442   6.640 -0.2344  0.1632 -0.1940
  128MOL    C9546069   5.679   5.428   6.786  0.2030  0.0231 -0.2967
  128MOL    C9646070   5.749   5.525   6.875 -0.2249  0.2054 -0.4192
  128MOL    C9746071   5.690   5.518   7.010 -0.1112 -0.0033 -0.8357
  128MOL    H9846072   5.587   5.153   6.502 -3.1666  1.9596  2.5230
  128MOL    H9946073   5.640   5.186   6.668  0.1740  2.3960  0.7146
  128MOL   H10046074   5.551   5.380   6.566  0.1930 -0.3753  0.4196
  128MOL   H10146075   5.728   5.541   6.595 -1.5914 -1.5602 -4.2967
  128MOL   H10246076   5.830   5.408   6.636 -0.0744  0.7405 -0.9781
  128MOL   H10346077   5.572   5.448   6.790  0.3861  0.7591  0.9863
  128MOL   H10446078   5.679   5.328   6.829 -0.5522  0.2709  0.2907
  128MOL   H10546079   5.856   5.510   6.887 -0.3353 -0.4310 -0.1686
  128MOL   H10646080   5.739   5.628   6.843 -2.5078  0.4583  0.9178
  128MOL   H10746081   5.583   5.541   7.002 -1.2943 -3.8560  2.0927
  128MOL   H10846082   5.693   5.421   7.060  1.4602  0.4867  0.0611
  128MOL   H10946083   5.727   5.584   7.089 -1.0326  0.9573 -1.1913
  128MOL   C11046084   5.666   5.387   6.388 -0.1153  1.1306  0.1722
  128MOL   C11146085   5.606   5.517   6.333  0.5764 -0.3967  0.6504
  128MOL   C11246086   5.457   5.500   6.299 -0.7040 -0.3225 -0.0331
  128MOL   C11346087   5.381   5.621   6.338  0.3502 -0.0248  0.1439
  128MOL   C11446088   5.223   5.605   6.336  0.3659  0.1314 -0.0945
  128MOL   C11546089   5.152   5.738   6.356  0.6634 -0.4166  0.2705
  128MOL   H11646090   5.773   5.383   6.368 -0.4456 -2.8294 -1.3200
  128MOL   H11746091   5.618   5.307   6.331 -1.5263  0.7127  1.8808
  128MOL   H11846092   5.626   5.589   6.413  0.5226  1.4515 -0.9724
  128MOL   H11946093   5.414   5.419   6.358 -0.4969 -0.6442 -0.3158
  128MOL   H12046094   5.447   5.465   6.196 -0.7324  0.5646 -0.3391
  128MOL   H12146095   5.417   5.709   6.286  5.5600 -0.8030  2.0701
  128MOL   H12246096   5.405   5.639   6.443 -0.6616  1.4991  0.1175
  128MOL   H12346097   5.193   5.535   6.414  0.3252  0.4544  0.1767
  128MOL   H12446098   5.200   5.570   6.235  0.4774  1.6760 -0.6728
  128MOL   H12546099   5.162   5.793   6.262 -0.7790 -0.7966 -0.1164
  128MOL   H12646100   5.045   5.739   6.374  0.2840  1.0826 -1.8078
  128MOL   H12746101   5.196   5.785   6.443  1.4866 -2.4055  0.9694
  128MOL   C12846102   5.685   5.569   6.217 -0.8901  0.3706  0.5163
  128MOL   C12946103   5.805   5.653   6.253  0.3548  0.9764  0.3793
  128MOL   C13046104   5.759   5.792   6.297 -0.0917  0.3875 -0.0181
  128MOL   C13146105   5.859   5.888   6.360 -0.0229  0.0192  0.0032
  128MOL   C13246106   5.935   5.830   6.479 -0.4059 -0.5029  0.0144
  128MOL   C13346107   6.017   5.937   6.552  0.6854  0.5902  0.4251
  128MOL   H13446108   5.619   5.633   6.160 -0.7168  0.9955  1.0052
  128MOL   H13546109   5.707   5.475   6.167  0.2100  0.6139  0.5205
  128MOL   H13646110   5.855   5.602   6.335  1.5369 -0.7193 -1.3695
  128MOL   H13746111   5.705   5.834   6.212 -0.1399  0.4781  0.0571
  128MOL   H13846112   5.683   5.784   6.375  0.0664 -0.9106  0.0064
  128MOL   H13946113   5.809   5.982   6.384  2.4895  1.0926  1.1916
  128MOL   H14046114   5.937   5.917   6.290 -1.5241 -0.2759 -1.8091
  128MOL   H14146115   5.872   5.785   6.556  0.1273  1.8137  1.8936
  128MOL   H14246116   6.013   5.756   6.461  0.1435 -0.8168  3.3279
  128MOL   H14346117   6.102   5.885   6.595  0.0452 -0.4820  0.4262
  128MOL   H14446118   5.957   5.990   6.626 -0.4279 -3.0501  2.2999
  128MOL   H14546119   6.066   6.006   6.484  1.8645  2.0825  2.7193
  128MOL   C14646120   5.911   5.663   6.143  0.3207 -0.8937  1.5391
  128MOL   C14746121   5.974   5.531   6.091 -0.4510 -0.0432  0.1858
  128MOL   C14846122   6.044   5.454   6.206  0.3874 -0.0274  0.3784
  128MOL   C14946123   6.162   5.530   6.258 -0.7008  0.0334 -0.0814
  128MOL   C15046124   6.223   5.455   6.383  0.3421 -0.2883 -0.2211
  128MOL   C15146125   6.300   5.330   6.346  0.2844 -0.6452 -0.0380
  128MOL   H15246126   5.854   5.721   6.071 -1.6157 -4.5969 -0.0331
  128MOL   H15346127   5.993   5.728   6.174 -0.5591  1.2007 -0.4281
  128MOL   H15446128   5.887   5.470   6.067 -2.3976  2.3098  1.1204
  128MOL   H15546129   6.094   5.364   6.169  0.1518 -0.3126  0.7455
  128MOL   H15646130   5.975   5.425   6.285  0.6732  0.3268  0.7577
  128MOL   H15746131   6.234   5.531   6.177 -1.4574 -1.1741 -0.7829
  128MOL   H15846132   6.142   5.637   6.273 -0.7811 -0.1395  1.0746
  128MOL   H15946133   6.142   5.428   6.451 -2.6070  4.0270 -1.8086
  128MOL   H16046134   6.288   5.528   6.432 -0.8050  1.2294 -0.9186
  128MOL   H16146135   6.378   5.368   6.281 -0.5228 -0.5155 -0.9499
  128MOL   H16246136   6.350   5.285   6.432  0.5685  0.8481  0.5875
  128MOL   H16346137   6.239   5.255   6.295  1.8660 -0.3910 -2.3781
  128MOL   C16446138   6.060   5.543   5.957  0.6258  0.3368 -1.6236
  128MOL   C16546139   5.975   5.556   5.828 -0.3103 -0.6297 -0.0535
  128MOL   C16646140   6.059   5.592   5.699 -0.3751 -0.2460  0.1176
  128MOL   C16746141   6.170   5.486   5.663 -0.1186  0.5793  0.3587
  128MOL   C16846142   6.208   5.506   5.515  0.0487 -0.3187  0.1582
  128MOL   C16946143   6.286   5.628   5.479  0.5328  0.2507 -0.4654
  128MOL   H17046144   6.137   5.619   5.971  1.0942 -0.1921 -1.3252
  128MOL   H17146145   6.117   5.450   5.956  1.7696  0.8131  4.0657
  128MOL   H17246146   5.920   5.648   5.849  0.6189 -0.4069  1.4673
  128MOL   H17346147   6.115   5.684   5.714  0.4585 -0.9549  1.4479
  128MOL   H17446148   5.989   5.597   5.615 -0.4471 -3.2029 -0.0508
  128MOL   H17546149   6.129   5.386   5.678  3.8210 -1.0813  0.6572
  128MOL   H17646150   6.255   5.484   5.731 -1.1192 -1.7625  1.6066
  128MOL   H17746151   6.130   5.486   5.441 -0.7775  0.6299  0.7555
  128MOL   H17846152   6.270   5.421   5.487  0.3777 -0.6883  1.9681
  128MOL   H17946153   6.238   5.725   5.463  0.7458  0.0835 -2.1603
  128MOL   H18046154   6.352   5.616   5.394  0.3730 -1.8171 -0.3069
  128MOL   H18146155   6.351   5.652   5.564 -0.0063 -0.4675  0.1594
  128MOL   C18246156   5.873   5.438   5.804  0.0707 -0.4732  0.0358
  128MOL   C18346157   5.733   5.495   5.761 -0.2880 -0.4081 -0.0526
  128MOL   C18446158   5.650   5.553   5.879  0.0938 -0.6251 -0.4194
  128MOL   C18546159   5.517   5.632   5.836 -0.1918 -0.4077  0.4159
  128MOL   C18646160   5.465   5.710   5.950 -0.0055  0.0772 -0.3002
  128MOL   C18746161   5.336   5.776   5.905 -0.0839  0.3711 -0.3075
  128MOL   H18846162   5.908   5.390   5.712 -0.9561  0.5558 -0.9230
  128MOL   H18946163   5.863   5.359   5.878  0.4226 -0.4042  0.1597
  128MOL   H19046164   5.747   5.579   5.693 -3.4274  0.9982  0.9486
  128MOL   H19146165   5.641   5.471   5.951 -0.5797  0.1119  0.3457
  128MOL   H19246166   5.697   5.629   5.941 -2.7746  0.1604  0.8462
  128MOL   H19346167   5.443   5.561   5.799  0.6271 -0.3630 -1.3309
  128MOL   H19446168   5.547   5.687   5.747 -0.8530 -0.7029  0.0108
  128MOL   H19546169   5.532   5.787   5.987 -0.7880  0.1859  0.9320
  128MOL   H19646170   5.438   5.641   6.030 -3.1405  1.1315 -0.4016
  128MOL   H19746171   5.354   5.861   5.838 -2.0419  0.1786 -1.0926
  128MOL   H19846172   5.277   5.812   5.990 -2.1227 -2.8444 -0.3070
  128MOL   H19946173   5.281   5.719   5.831  1.4925  0.5498 -1.6540
  128MOL   C20046174   5.651   5.383   5.695 -0.2968  0.4090  0.3616
  128MOL   C20146175   5.671   5.354   5.540  0.2431  0.4116  0.1319
  128MOL   C20246176   5.738   5.215   5.531 -0.2649  0.6942  0.2598
  128MOL   C20346177   5.812   5.176   5.399  0.0420 -0.1113  0.0785
  128MOL   C20446178   5.902   5.044   5.404 -0.7902  0.3576  0.3076
  128MOL   C20546179   6.027   5.064   5.491 -0.7992 -0.0164 -1.1623
  128MOL   H20646180   5.544   5.405   5.696 -0.9258 -2.3830 -1.3047
  128MOL   H20746181   5.646   5.290   5.752 -0.0859  0.8190  1.0533
  128MOL   H20846182   5.741   5.425   5.495 -0.3629  1.5771  0.9971
  128MOL   H20946183   5.666   5.142   5.567  0.0707 -0.7154 -1.7883
  128MOL   H21046184   5.816   5.211   5.607 -0.9187 -0.4110  0.8752
  128MOL   H21146185   5.874   5.261   5.371 -1.9714  1.5630  0.6557
  128MOL   H21246186   5.746   5.160   5.313 -3.3118 -0.8277  2.6881
  128MOL   H21346187   5.928   5.009   5.304 -2.4219  0.4790 -0.1723
  128MOL   H21446188   5.849   4.961   5.449 -1.6538 -0.1106 -1.5290
  128MOL   H21546189   6.089   4.976   5.510  0.8102  0.9158 -1.9296
  128MOL   H21646190   6.094   5.148   5.471  0.7708 -1.2799 -1.3763
  128MOL   H21746191   6.001   5.075   5.596  2.6496 -2.5038  0.0653
  128MOL   C21846192   5.539   5.352   5.459 -0.2494  0.1788 -0.2510
  128MOL   C21946193   5.462   5.479   5.453  0.4609 -0.5058 -0.5164
  128MOL   C22046194   5.317   5.464   5.506  0.4822  0.6739  0.3063
  128MOL   C22146195   5.225   5.595   5.476 -0.6953  0.6686  0.2855
  128MOL   C22246196   5.100   5.597   5.561  0.0917  0.1152 -0.2698
  128MOL   C22346197   5.010   5.716   5.536  0.1394 -0.4841 -0.6691
  128MOL   H22446198   5.555   5.306   5.361  1.1691 -1.0243  0.5330
  128MOL   H22546199   5.484   5.280   5.519 -0.3945 -0.3420 -0.9948
  128MOL   H22646200   5.509   5.554   5.516  0.8689 -0.3152 -1.0409
  128MOL   H22746201   5.327   5.452   5.614  1.5381 -1.7759 -0.0308
  128MOL   H22846202   5.272   5.374   5.465  0.7059  0.3358  0.7925
  128MOL   H22946203   5.202   5.590   5.369 -0.0029 -1.7551  0.2195
  128MOL   H23046204   5.281   5.683   5.507  0.0020  1.2014 -2.3646
  128MOL   H23146205   5.047   5.504   5.537  1.0464 -0.9956  1.8166
  128MOL   H23246206   5.125   5.596   5.667  0.5773  1.7429 -0.3589
  128MOL   H23346207   5.069   5.808   5.538  1.6187 -1.4272  0.0951
  128MOL   H23446208   4.938   5.723   5.617  0.3270  1.9945 -0.6732
  128MOL   H23546209   4.956   5.723   5.441  0.0475  1.2183 -0.5084
  128MOL   C23646210   5.471   5.525   5.299 -0.6517 -0.2099 -0.6610
  128MOL   C23746211   5.621   5.544   5.244  0.2523 -0.2147 -0.7349
  128MOL   C23846212   5.686   5.658   5.328 -1.0611  0.2029 -0.3758
  128MOL   C23946213   5.843   5.655   5.336  0.4029  0.3564  0.0630
  128MOL   C24046214   5.906   5.770   5.405 -0.3656  0.1349 -0.8107
  128MOL   C24146215   5.917   5.883   5.312 -0.0237 -0.3636  0.2130
  128MOL   H24246216   5.412   5.456   5.238 -1.0179  0.1378 -0.6975
  128MOL   H24346217   5.424   5.623   5.296 -2.1086 -0.8665  0.3137
  128MOL   H24446218   5.676   5.450   5.255 -0.9949 -0.6191  2.7590
  128MOL   H24546219   5.656   5.757   5.296 -0.6004  0.3246 -0.4432
  128MOL   H24646220   5.647   5.663   5.429 -0.4416 -0.1642 -0.1098
  128MOL   H24746221   5.891   5.633   5.241  2.2171  0.6955  0.8891
  128MOL   H24846222   5.861   5.569   5.400 -2.2696 -0.2743  0.0327
  128MOL   H24946223   5.845   5.779   5.495  0.0909 -0.4267 -0.4475
  128MOL   H25046224   6.009   5.747   5.433 -0.6574 -0.3082 -0.1019
  128MOL   H25146225   6.011   5.871   5.258  0.8480 -1.7720  1.9751
  128MOL   H25246226   5.835   5.890   5.241  1.0035 -0.8498 -1.0292
  128MOL   H25346227   5.921   5.974   5.372 -0.2089 -0.9754  1.1686
  128MOL   C25446228   5.622   5.567   5.092 -0.0777 -0.4391 -0.2985
  128MOL   C25546229   5.740   5.518   5.004  0.8855 -0.1823  1.0098
  128MOL   C25646230   5.711   5.576   4.861  0.2092  0.0848 -0.0769
  128MOL   C25746231   5.744   5.728   4.845 -0.2438 -0.2411 -0.3511
  128MOL   C25846232   5.737   5.782   4.700 -0.6479  0.7280 -0.1648
  128MOL   C25946233   5.754   5.935   4.689 -0.2237  0.2007  0.3333
  128MOL   H26046234   5.610   5.674   5.076  2.3561 -0.5087 -2.9684
  128MOL   H26146235   5.536   5.520   5.045  0.1777 -1.5519  0.3235
  128MOL   H26246236   5.837   5.560   5.032  0.6480 -0.2508  1.9520
  128MOL   H26346237   5.775   5.520   4.793  1.7728  2.7803 -0.9122
  128MOL   H26446238   5.610   5.548   4.832 -0.0051  1.1522 -0.3512
  128MOL   H26546239   5.670   5.787   4.900  1.8766  1.3764  0.8318
  128MOL   H26646240   5.845   5.745   4.881  0.0925 -0.6247 -1.1116
  128MOL   H26746241   5.641   5.757   4.654 -0.5064 -1.8030  0.8880
  128MOL   H26846242   5.806   5.727   4.637 -1.9255 -0.4500 -0.5584
  128MOL   H26946243   5.692   5.994   4.757 -1.3046 -0.8182  0.2457
  128MOL   H27046244   5.734   5.954   4.584 -0.0823  0.0130  0.2724
  128MOL   H27146245   5.854   5.964   4.723 -0.2380 -0.1682  0.6931
  128MOL   C27246246   5.743   5.364   4.998 -0.7247  0.3865 -0.0322
  128MOL   C27346247   5.872   5.297   4.942  0.3263  0.0701  0.1908
  128MOL   C27446248   5.858   5.162   4.872  0.4125  0.3874 -0.3451
  128MOL   C27546249   5.842   5.039   4.962  0.0927  1.0565  1.4425
  128MOL   C27646250   5.838   4.907   4.888 -0.0103  0.4067  0.4759
  128MOL   C27746251   5.858   4.782   4.982  0.4062  0.0615 -0.3967
  128MOL   H27846252   5.716   5.313   5.091 -0.3405 -0.5307 -0.4180
  128MOL   H27946253   5.660   5.332   4.936  1.1257 -0.7797 -1.9618
  128MOL   H28046254   5.910   5.378   4.880  1.2211  0.9634  1.8958
  128MOL   H28146255   5.943   5.131   4.812 -0.7095  0.1363 -1.8212
  128MOL   H28246256   5.768   5.166   4.811  0.2534  1.2299 -0.0542
  128MOL   H28346257   5.767   5.058   5.039 -1.5305 -0.8215  0.3694
  128MOL   H28446258   5.930   5.025   5.025  0.7741 -0.0477  0.2546
  128MOL   H28546259   5.741   4.898   4.840 -0.0109 -3.0029  1.0008
  128MOL   H28646260   5.904   4.899   4.802 -0.5625  1.4225 -0.0473
  128MOL   H28746261   5.788   4.780   5.066 -0.7472  0.4460 -1.3522
  128MOL   H28846262   5.837   4.692   4.924  2.7643 -1.6409  1.2430
  128MOL   H28946263   5.956   4.791   5.029  0.3041  0.5529 -0.2815
  128MOL   C29046264   5.967   5.295   5.062  0.5918 -0.4584  0.2355
  128MOL   C29146265   6.120   5.282   5.023  0.3437  0.0505  0.2710
  128MOL   C29246266   6.186   5.406   4.966  0.0340 -0.7765  0.4953
  128MOL   C29346267   6.195   5.535   5.058 -0.4752 -0.2190 -1.2640
  128MOL   C29446268   6.250   5.662   4.994 -0.5412 -0.4570 -0.0068
  128MOL   C29546269   6.269   5.788   5.085  0.0740 -0.3648  0.4799
  128MOL   H29646270   5.923   5.228   5.135 -1.1699 -1.9314 -2.1412
  128MOL   H29746271   5.964   5.390   5.116 -0.6408  1.0206 -2.3799
  128MOL   H29846272   6.116   5.218   4.935  1.3577 -2.3078  1.8893
  128MOL   H29946273   6.152   5.449   4.872  0.1893 -0.6022  0.5189
  128MOL   H30046274   6.287   5.378   4.936  0.2868  0.2956  0.3199
  128MOL   H30146275   6.100   5.567   5.102  1.1741 -0.5922  2.7810
  128MOL   H30246276   6.260   5.506   5.142  0.3189  0.4618 -1.6390
  128MOL   H30346277   6.209   5.686   4.896 -1.3322 -1.4131  0.0872
  128MOL   H30446278   6.348   5.635   4.954 -0.5489  0.2240 -0.4995
  128MOL   H30546279   6.234   5.877   5.034 -1.8204 -1.0195  0.6124
  128MOL   H30646280   6.373   5.801   5.117  0.3442  1.5297 -1.0858
  128MOL   H30746281   6.215   5.775   5.179 -1.4059 -0.4861 -0.3732
  128MOL   C30846282   6.200   5.210   5.132  0.0884  0.2875  0.7354
  128MOL   C30946283   6.340   5.146   5.082  0.4421 -0.0069  0.1125
  128MOL   C31046284   6.329   5.014   5.005  0.1003  0.5579  0.6590
  128MOL   C31146285   6.451   4.988   4.908 -0.0264 -0.2108 -0.1576
  128MOL   C31246286   6.420   4.879   4.807  0.1119 -0.0420 -0.3200
  128MOL   C31346287   6.309   4.909   4.708  0.2806 -0.4244  0.5225
  128MOL   H31446288   6.214   5.277   5.217  0.1044  1.7370 -0.4083
  128MOL   H31546289   6.138   5.135   5.181 -1.1337 -0.5272 -1.9785
  128MOL   H31646290   6.397   5.219   5.025  0.4511  0.0985  0.2561
  128MOL   H31746291   6.246   5.023   4.936 -0.3466 -1.0578  0.9628
  128MOL   H31846292   6.303   4.934   5.074  0.9838 -0.4875 -0.1990
  128MOL   H31946293   6.535   4.955   4.969  0.5918  0.4817 -0.6376
  128MOL   H32046294   6.485   5.080   4.862 -0.2378 -0.0742 -0.0414
  128MOL   H32146295   6.507   4.878   4.741 -0.3703 -2.0412 -0.9534
  128MOL   H32246296   6.422   4.781   4.854 -0.7328  0.7055  1.3009
  128MOL   H32346297   6.324   4.852   4.616  2.2428  1.3831 -0.3166
  128MOL   H32446298   6.293   5.015   4.688  0.8009 -0.4229  0.0925
  128MOL   H32546299   6.224   4.859   4.756  1.2735 -1.0276  1.6753
  128MOL   C32646300   6.424   5.112   5.203 -0.5184 -0.0605 -0.4890
  128MOL   C32746301   6.491   5.245   5.266 -0.3380 -0.4451 -0.4516
  128MOL   C32846302   6.536   5.217   5.411 -0.5334 -0.0748 -0.2223
  128MOL   C32946303   6.430   5.168   5.514 -0.1683 -0.0242 -0.1326
  128MOL   C33046304   6.480   5.183   5.661  0.0029 -0.0017  0.1967
  128MOL   C33146305   6.384   5.103   5.754 -0.1234 -0.0820 -0.4274
  128MOL   H33246306   6.505   5.044   5.177 -0.8634 -1.3862  1.7840
  128MOL   H33346307   6.360   5.059   5.274 -1.3255  0.5024 -0.7865
  128MOL   H33446308   6.419   5.326   5.274  0.1060  0.0711 -1.5614
  128MOL   H33546309   6.627   5.157   5.423 -0.4533 -0.5237 -2.7501
  128MOL   H33646310   6.564   5.317   5.444  0.9354  0.3528 -2.6060
  128MOL   H33746311   6.413   5.064   5.485 -1.6582 -0.6664  2.8855
  128MOL   H33846312   6.338   5.223   5.497  0.4904  0.7096 -1.3847
  128MOL   H33946313   6.576   5.131   5.658 -0.5188 -0.9527 -0.4010
  128MOL   H34046314   6.485   5.289   5.686  1.5298 -0.4057  1.6735
  128MOL   H34146315   6.287   5.152   5.755 -0.9146 -1.6413  0.3092
  128MOL   H34246316   6.429   5.092   5.852 -0.3232  0.9551 -0.2103
  128MOL   H34346317   6.388   5.001   5.716  0.5004 -0.5227  0.8084
  128MOL   C34446318   6.615   5.304   5.183  0.1737  0.4405  0.6919
  128MOL   C34546319   6.640   5.458   5.204 -0.2480  0.2126 -1.0876
  128MOL   C34646320   6.753   5.522   5.119  0.1771  0.3414 -0.2577
  128MOL   C34746321   6.760   5.673   5.155 -0.1362 -0.0424 -0.1553
  128MOL   C34846322   6.643   5.760   5.110  0.0299 -0.0520  0.2240
  128MOL   C34946323   6.649   5.905   5.124 -0.5237  0.1824  0.3248
  128MOL   H35046324   6.712   5.262   5.208 -0.3677 -0.0587  2.0164
  128MOL   H35146325   6.597   5.291   5.076  0.3552  0.3807  0.6695
  128MOL   H35246326   6.633   5.483   5.310  2.8867  1.8792 -1.2293
  128MOL   H35346327   6.847   5.467   5.131 -1.5128 -2.6495 -0.1110
  128MOL   H35446328   6.728   5.503   5.015  3.8034 -1.6499 -0.8379
  128MOL   H35546329   6.768   5.692   5.262 -0.1025  3.3798 -0.7190
  128MOL   H35646330   6.852   5.720   5.120  0.4917 -1.2784 -0.2134
  128MOL   H35746331   6.610   5.743   5.007  1.8210  3.7972 -1.1322
  128MOL   H35846332   6.558   5.727   5.170 -0.4663 -1.9422 -1.4662
  128MOL   H35946333   6.740   5.954   5.088  0.9780 -3.3424 -0.9312
  128MOL   H36046334   6.565   5.951   5.072  0.9089  2.3532 -0.1602
  128MOL   H36146335   6.627   5.941   5.225 -0.9353  0.3835  0.1643
  128MOL   H36246336   6.544   5.498   5.169 -1.5677 -1.2681  0.7367
  129MOL     C146337   0.946   2.801   5.616  0.0724  0.8526  0.1831
  129MOL     C246338   1.014   2.756   5.487  1.5374 -0.3656  0.4921
  129MOL     C346339   0.937   2.640   5.421  0.6238 -0.7971  0.1522
  129MOL     C446340   0.968   2.611   5.267 -0.0896 -0.2091 -0.1533
  129MOL     C546341   0.866   2.513   5.195  0.1350 -0.0151 -0.1863
  129MOL     C646342   0.896   2.364   5.229  0.2309 -0.2614 -0.0483
  129MOL     H746343   0.998   2.893   5.643  1.1892  0.4132 -0.4267
  129MOL     H846344   0.842   2.832   5.607  0.2827  1.0199 -1.9323
  129MOL     H946345   0.994   2.837   5.417 -0.1268 -2.5810 -1.6945
  129MOL    H1046346   0.833   2.668   5.439  0.4934 -2.1832  1.6486
  129MOL    H1146347   0.955   2.547   5.475 -0.5672 -0.8752  0.4379
  129MOL    H1246348   1.075   2.590   5.257 -0.0808 -0.2670  0.0699
  129MOL    H1346349   0.958   2.708   5.219  0.5013  0.5050  1.1209
  129MOL    H1446350   0.763   2.529   5.229 -0.5996 -1.8434 -1.4664
  129MOL    H1546351   0.876   2.528   5.088 -0.7540  0.9393 -0.1573
  129MOL    H1646352   0.823   2.301   5.178  0.3219 -1.1363  0.8985
  129MOL    H1746353   0.903   2.347   5.336  0.9567 -0.4262 -0.1248
  129MOL    H1846354   0.990   2.331   5.186  0.3072  1.2911 -1.1332
  129MOL    H1946355   0.955   2.726   5.694 -1.9242  1.9409  1.5122
  129MOL    C2046356   1.160   2.722   5.509  0.7948  0.5251 -0.7963
  129MOL    C2146357   1.267   2.832   5.517  0.5638 -0.4264 -0.6981
  129MOL    C2246358   1.406   2.771   5.563 -0.1737 -0.6987  0.5002
  129MOL    C2346359   1.507   2.879   5.593  0.2101  0.3472  0.7882
  129MOL    C2446360   1.640   2.826   5.639 -0.6653  0.3392 -0.1001
  129MOL    C2546361   1.722   2.936   5.705  0.0284  0.0799 -0.2614
  129MOL    H2646362   1.196   2.649   5.436  0.6774  0.0708 -0.4020
  129MOL    H2746363   1.176   2.658   5.595  0.5577 -0.3537 -1.4007
  129MOL    H2846364   1.221   2.897   5.592  0.5889 -0.8969 -0.2681
  129MOL    H2946365   1.446   2.710   5.482 -2.3123  2.4891 -3.1192
  129MOL    H3046366   1.388   2.717   5.656  0.4365 -1.1875  0.3430
  129MOL    H3146367   1.466   2.939   5.675 -0.7302 -2.0561  2.1273
  129MOL    H3246368   1.526   2.941   5.505  2.2635  0.5577  1.3401
  129MOL    H3346369   1.627   2.748   5.714  1.6988 -0.3755 -0.3991
  129MOL    H3446370   1.693   2.787   5.552 -0.4253  3.2424 -1.3221
  129MOL    H3546371   1.758   3.010   5.634  0.2512  2.0165  1.8005
  129MOL    H3646372   1.665   2.992   5.780 -1.4234  0.8623 -1.9064
  129MOL    H3746373   1.801   2.881   5.756 -0.0611 -2.6614 -2.9491
  129MOL    C3846374   1.274   2.918   5.387  0.3772  0.4215 -0.9468
  129MOL    C3946375   1.261   3.069   5.394 -0.0251  0.3244 -0.4196
  129MOL    C4046376   1.301   3.124   5.252 -0.6350  0.3512 -0.8823
  129MOL    C4146377   1.450   3.104   5.210  1.0435 -0.1427 -0.0164
  129MOL    C4246378   1.466   3.091   5.062  0.2416 -0.5938  0.1806
  129MOL    C4346379   1.478   2.941   5.023 -0.3493  0.0561  0.0124
  129MOL    H4446380   1.197   2.884   5.317 -0.5929  1.8328 -0.5888
  129MOL    H4546381   1.364   2.894   5.331  0.8623 -0.7194  0.3046
  129MOL    H4646382   1.338   3.109   5.461 -0.5053 -1.4484  1.2035
  129MOL    H4746383   1.228   3.079   5.186  1.0470 -1.1629 -1.7440
  129MOL    H4846384   1.289   3.232   5.241  1.3159  0.7491  0.4827
  129MOL    H4946385   1.498   3.200   5.233 -0.7030  0.9747 -0.9557
  129MOL    H5046386   1.517   3.035   5.262  0.7202 -1.7286 -1.6431
  129MOL    H5146387   1.378   3.141   5.022 -0.2744 -1.3482  0.3654
  129MOL    H5246388   1.544   3.156   5.022 -0.6370 -0.0437 -0.6515
  129MOL    H5346389   1.541   2.886   5.094 -0.3235 -1.1847 -0.9483
  129MOL    H5446390   1.536   2.928   4.931 -1.3384  2.2549 -0.9429
  129MOL    H5546391   1.381   2.892   5.013  0.6895 -2.5815  2.0295
  129MOL    C5646392   1.122   3.114   5.434  0.1974 -0.4397 -0.2827
  129MOL    C5746393   1.103   3.268   5.435 -0.0159 -0.3461  0.8923
  129MOL    C5846394   1.218   3.334   5.520  0.0691  0.2679 -0.1212
  129MOL    C5946395   1.236   3.291   5.670  0.2522  0.6519 -0.0278
  129MOL    C6046396   1.357   3.365   5.734  0.4036  0.1188  0.0022
  129MOL    C6146397   1.494   3.315   5.695 -0.2121  0.0595 -0.6113
  129MOL    H6246398   1.044   3.067   5.373 -1.1941  1.4539 -0.0341
  129MOL    H6346399   1.105   3.074   5.534  0.8030  1.4412  0.6070
  129MOL    H6446400   1.108   3.307   5.333  0.0418 -0.0286  1.0158
  129MOL    H6546401   1.310   3.322   5.463  1.3953 -1.2858  2.2786
  129MOL    H6646402   1.199   3.441   5.517  0.2089  0.2741 -1.3772
  129MOL    H6746403   1.237   3.183   5.687  1.1482  0.8225  1.0319
  129MOL    H6846404   1.145   3.319   5.722  0.3846  1.2455 -0.1068
  129MOL    H6946405   1.358   3.472   5.713  0.9141 -0.2675 -2.0745
  129MOL    H7046406   1.361   3.351   5.842 -0.8320  1.3328  0.2205
  129MOL    H7146407   1.496   3.207   5.711 -3.2090 -0.0430 -0.5410
  129MOL    H7246408   1.507   3.334   5.588  2.6996 -0.0165 -0.2957
  129MOL    H7346409   1.575   3.359   5.752  0.5247 -1.5868 -0.3456
  129MOL    C7446410   0.969   3.320   5.485  0.1130 -0.5641 -0.2167
  129MOL    C7546411   0.842   3.309   5.383  0.0364  0.7048  0.0564
  129MOL    C7646412   0.766   3.176   5.409  0.0469 -0.2373  0.7170
  129MOL    C7746413   0.663   3.144   5.304  0.5588  0.1880  0.0716
  129MOL    C7846414   0.591   3.015   5.336  0.2769 -0.5523  0.2198
  129MOL    C7946415   0.476   3.039   5.433 -0.0783 -0.0704 -0.1085
  129MOL    H8046416   0.941   3.272   5.579 -2.2599 -1.2846 -1.2352
  129MOL    H8146417   0.989   3.423   5.515  0.8036 -1.1548  1.3890
  129MOL    H8246418   0.873   3.311   5.278 -2.1457  0.0026 -0.6283
  129MOL    H8346419   0.839   3.095   5.410  0.9141  0.5362  0.5993
  129MOL    H8446420   0.714   3.182   5.505  1.3031  0.7945  1.3473
  129MOL    H8546421   0.587   3.223   5.299 -1.6891 -1.8813  0.3019
  129MOL    H8646422   0.701   3.153   5.202  1.6032  0.9863  0.5286
  129MOL    H8746423   0.661   2.941   5.374  1.1049 -0.1491 -0.4777
  129MOL    H8846424   0.549   2.961   5.251 -0.0185  1.1192 -0.7240
  129MOL    H8946425   0.518   3.033   5.533 -0.3119  1.5874  0.1066
  129MOL    H9046426   0.414   3.126   5.412 -0.4798 -0.0397  1.1986
  129MOL    H9146427   0.402   2.960   5.425  0.2606 -0.2853 -1.1964
  129MOL    C9246428   0.746   3.434   5.402 -0.0167 -0.1173  0.2674
  129MOL    C9346429   0.813   3.571   5.367  0.0091 -0.0275  0.0683
  129MOL    C9446430   0.907   3.580   5.247  0.1627 -0.1987  0.2307
  129MOL    C9546431   0.830   3.549   5.112 -0.0755 -0.9630  1.1422
  129MOL    C9646432   0.905   3.601   4.993 -0.1137 -0.1967  0.4955
  129MOL    C9746433   0.812   3.611   4.870  0.1763 -0.1289 -0.5916
  129MOL    H9846434   0.658   3.436   5.338  0.6127  4.9003 -0.6910
  129MOL    H9946435   0.698   3.445   5.499 -1.3652 -1.5458 -0.2236
  129MOL   H10046436   0.871   3.603   5.454  1.4622  1.6206 -1.4767
  129MOL   H10146437   0.989   3.509   5.247  0.3093 -0.0493 -1.4207
  129MOL   H10246438   0.947   3.680   5.229 -0.0576 -0.2492 -0.5776
  129MOL   H10346439   0.817   3.441   5.107  0.9066 -0.9911 -1.0444
  129MOL   H10446440   0.734   3.601   5.110  1.2630  1.5816 -2.2173
  129MOL   H10546441   0.937   3.704   5.009 -0.9469 -0.0893  1.5140
  129MOL   H10646442   0.991   3.534   4.986  1.9587  2.5688 -2.2773
  129MOL   H10746443   0.714   3.650   4.898  0.9444  2.1404 -0.9271
  129MOL   H10846444   0.851   3.672   4.789  0.1096  2.0749  0.9882
  129MOL   H10946445   0.801   3.512   4.827  0.0136 -0.7025  0.7346
  129MOL   C11046446   0.696   3.680   5.366 -0.5961  0.2289  0.3591
  129MOL   C11146447   0.640   3.715   5.508 -0.1102  0.5049 -0.7114
  129MOL   C11246448   0.500   3.659   5.536  0.1507 -0.2018  0.6820
  129MOL   C11346449   0.453   3.679   5.684 -0.3770 -0.4440 -0.5738
  129MOL   C11446450   0.301   3.644   5.708 -0.2469 -0.5914  0.8893
  129MOL   C11546451   0.253   3.667   5.850 -0.2920  0.0756  0.0472
  129MOL   H11646452   0.744   3.758   5.308  1.5511 -1.3287 -0.0275
  129MOL   H11746453   0.622   3.651   5.292 -0.8142  2.6306 -0.4033
  129MOL   H11846454   0.699   3.670   5.588 -0.8480 -0.3408 -0.6284
  129MOL   H11946455   0.520   3.552   5.540  2.0101  0.1444  0.7792
  129MOL   H12046456   0.425   3.692   5.464 -1.5180 -2.6777  1.2384
  129MOL   H12146457   0.461   3.780   5.724  1.2400 -1.5328  1.9305
  129MOL   H12246458   0.510   3.610   5.745  0.0365  1.1378  0.8573
  129MOL   H12346459   0.288   3.539   5.681  2.5046 -1.2151  1.8122
  129MOL   H12446460   0.241   3.690   5.629  1.2092 -1.8791 -1.0064
  129MOL   H12546461   0.147   3.645   5.863 -0.5741  1.6163  0.5346
  129MOL   H12646462   0.317   3.626   5.927  1.2995 -1.5199 -2.0787
  129MOL   H12746463   0.256   3.774   5.870 -0.3920 -0.0569  0.7828
  129MOL   C12846464   0.644   3.874   5.519  0.0456 -0.0233  0.2135
  129MOL   C12946465   0.782   3.920   5.572  0.0174 -0.4387 -0.2131
  129MOL   C13046466   0.796   3.923   5.731 -0.1815 -0.1674 -0.6931
  129MOL   C13146467   0.707   4.037   5.796 -0.0740  0.1093  0.0248
  129MOL   C13246468   0.692   4.017   5.947 -0.3119  0.1079 -1.0133
  129MOL   C13346469   0.582   3.926   5.982 -0.2405 -0.1504  0.0817
  129MOL   H13446470   0.571   3.913   5.592 -0.2188  2.2840 -1.2213
  129MOL   H13546471   0.622   3.909   5.418  0.9647  1.2362  0.4438
  129MOL   H13646472   0.855   3.846   5.540  0.0357  0.1512 -1.5409
  129MOL   H13746473   0.767   3.826   5.770 -0.0114 -0.2678 -0.8165
  129MOL   H13846474   0.894   3.956   5.765 -1.6023  3.0663  0.4899
  129MOL   H13946475   0.610   4.030   5.746  0.7336 -1.9963 -1.3139
  129MOL   H14046476   0.752   4.135   5.779 -1.3292  1.0291  1.8051
  129MOL   H14146477   0.785   3.973   5.982  1.2920  5.2424  1.5727
  129MOL   H14246478   0.678   4.116   5.990  1.4966 -0.2070  0.3593
  129MOL   H14346479   0.559   3.846   5.912 -0.8660  0.8083 -0.8246
  129MOL   H14446480   0.491   3.983   5.997 -1.2134 -1.9405  1.0973
  129MOL   H14546481   0.608   3.874   6.074  1.4159 -1.5639 -1.1495
  129MOL   C14646482   0.828   4.059   5.513  0.1637 -0.1860  0.7811
  129MOL   C14746483   0.841   4.077   5.357 -0.4299 -0.3505  0.1872
  129MOL   C14846484   0.990   4.086   5.314 -0.1017 -0.0657  0.0992
  129MOL   C14946485   1.068   3.950   5.333  0.4344 -0.2249  0.2797
  129MOL   C15046486   1.218   3.949   5.307 -0.6664  0.1070  0.2640
  129MOL   C15146487   1.276   3.814   5.273 -0.3909  0.0452 -0.2159
  129MOL   H15246488   0.750   4.126   5.547 -1.0436 -0.7106 -0.8628
  129MOL   H15346489   0.922   4.094   5.556  2.5890 -3.5135 -1.5018
  129MOL   H15446490   0.804   3.985   5.312 -1.0784  0.9336 -1.9623
  129MOL   H15546491   1.037   4.175   5.355  1.3743 -1.6365  1.9584
  129MOL   H15646492   0.993   4.105   5.207  1.4761  0.7030  0.2734
  129MOL   H15746493   1.067   3.919   5.438  0.5229  0.8398  0.6098
  129MOL   H15846494   1.017   3.872   5.278 -0.7350  1.2938 -0.8261
  129MOL   H15946495   1.282   3.990   5.386  0.5646  1.4398 -1.3881
  129MOL   H16046496   1.237   4.014   5.221  0.3132 -2.0498 -1.1856
  129MOL   H16146497   1.379   3.833   5.244  0.4107 -1.3720  1.5997
  129MOL   H16246498   1.280   3.750   5.362  0.9726  0.0303 -0.2758
  129MOL   H16346499   1.227   3.756   5.195 -2.0802 -0.8588  1.4609
  129MOL   C16446500   0.763   4.204   5.301 -0.8793  0.3199 -0.7741
  129MOL   C16546501   0.610   4.187   5.285 -0.7286 -0.2050  0.1376
  129MOL   C16646502   0.539   4.320   5.268 -0.2522  0.6256  0.3053
  129MOL   C16746503   0.579   4.392   5.149  0.1504  0.5396  0.7703
  129MOL   C16846504   0.490   4.511   5.114  0.4760  0.2440  0.3193
  129MOL   C16946505   0.537   4.585   4.982  0.1742  0.0447  0.1177
  129MOL   H17046506   0.789   4.295   5.357  0.9003  2.2538 -4.5574
  129MOL   H17146507   0.804   4.234   5.205 -0.2897  0.2151 -0.5555
  129MOL   H17246508   0.569   4.139   5.374  0.5718 -0.1235  0.7814
  129MOL   H17346509   0.556   4.388   5.352  1.1270  2.8911 -1.7369
  129MOL   H17446510   0.431   4.315   5.266 -0.2050 -0.7894  0.9153
  129MOL   H17546511   0.587   4.332   5.059  1.6030  1.8182  0.0237
  129MOL   H17646512   0.679   4.432   5.168  0.7540  0.0657 -1.3289
  129MOL   H17746513   0.468   4.586   5.189  1.9776  1.7530 -0.7106
  129MOL   H17846514   0.393   4.463   5.095  1.5139 -0.5865 -3.2250
  129MOL   H17946515   0.456   4.647   4.945  0.6452  0.1579 -0.7535
  129MOL   H18046516   0.555   4.522   4.894  2.5482  2.0169 -0.8613
  129MOL   H18146517   0.631   4.640   4.991 -0.2994  0.7194  0.9377
  129MOL   C18246518   0.575   4.080   5.168  0.1303 -0.0481  0.0623
  129MOL   C18346519   0.429   4.049   5.138 -0.4478  0.2383  0.4196
  129MOL   C18446520   0.359   3.971   5.255 -1.5261 -0.6562 -0.1391
  129MOL   C18546521   0.200   3.970   5.260  0.0664  0.0625 -0.1560
  129MOL   C18646522   0.137   4.103   5.225 -0.0693 -0.3625 -0.2127
  129MOL   C18746523   7.722   4.112   5.269  0.1313  0.3880  0.3764
  129MOL   H18846524   0.640   4.117   5.089  0.0636  1.1245  0.5418
  129MOL   H18946525   0.622   3.984   5.191  0.4647 -0.1143 -0.9013
  129MOL   H19046526   0.375   4.141   5.114  3.3304  2.2316 -0.8041
  129MOL   H19146527   0.404   3.874   5.274  0.3623  0.4386  1.2497
  129MOL   H19246528   0.380   4.034   5.342  2.3654 -0.0508 -1.3963
  129MOL   H19346529   0.160   3.932   5.353 -1.1338  2.3575  0.3169
  129MOL   H19446530   0.169   3.896   5.186 -0.3999 -0.7317  0.8330
  129MOL   H19546531   0.133   4.109   5.116 -0.2948  1.5185 -0.1094
  129MOL   H19646532   0.191   4.193   5.254 -1.9885  1.5045 -2.2211
  129MOL   H19746533   0.002   4.150   5.371 -0.3146  1.3368  0.0583
  129MOL   H19846534   7.666   4.019   5.273 -1.6524  1.2459 -2.6550
  129MOL   H19946535   7.672   4.189   5.209 -0.9040 -0.4120  0.2019
  129MOL   C20046536   0.434   3.968   5.006 -0.1496 -0.2543 -0.3945
  129MOL   C20146537   0.490   4.031   4.875 -0.1316 -0.5681 -0.3942
  129MOL   C20246538   0.510   3.925   4.762 -0.4593  0.1109  0.0188
  129MOL   C20346539   0.394   3.879   4.670 -0.4727  0.5978 -1.3677
  129MOL   C20446540   0.437   3.762   4.576 -0.3438  0.1210 -0.4254
  129MOL   C20546541   0.339   3.718   4.477  0.3313 -0.1169  0.4375
  129MOL   H20646542   0.336   3.925   4.984 -0.2844  0.6781 -1.6206
  129MOL   H20746543   0.503   3.885   5.022 -1.3553 -1.0492  0.9118
  129MOL   H20846544   0.591   4.067   4.895 -0.1081 -0.2740 -1.0442
  129MOL   H20946545   0.552   3.835   4.808 -1.5284  0.0360  0.8784
  129MOL   H21046546   0.592   3.971   4.708 -1.0155 -2.1623 -2.8486
  129MOL   H21146547   0.362   3.967   4.615 -1.7593  1.0267  0.0362
  129MOL   H21246548   0.314   3.845   4.736  0.0887  1.1689 -0.3860
  129MOL   H21346549   0.463   3.675   4.636 -0.5870 -0.3683 -1.0242
  129MOL   H21446550   0.532   3.783   4.525  0.1051 -2.5270 -0.7495
  129MOL   H21546551   0.308   3.618   4.510  0.2460  0.4325  2.0955
  129MOL   H21646552   0.258   3.788   4.454  1.2989  1.3396  1.3960
  129MOL   H21746553   0.369   3.682   4.379 -2.1447 -0.6996 -0.1557
  129MOL   C21846554   0.409   4.153   4.830 -0.1813  0.1507 -0.5215
  129MOL   C21946555   0.456   4.224   4.697 -0.0149 -0.8296  0.1175
  129MOL   C22046556   0.604   4.260   4.678 -0.5526  0.4301 -0.0824
  129MOL   C22146557   0.672   4.231   4.540  0.1239  0.5444 -0.6017
  129MOL   C22246558   0.821   4.233   4.536 -0.2161  0.4966  0.1907
  129MOL   C22346559   0.867   4.285   4.394  0.3209  0.2217  0.5910
  129MOL   H22446560   0.301   4.135   4.835 -0.2014  0.1163 -1.1017
  129MOL   H22546561   0.432   4.218   4.915  1.7756 -2.6466  1.1398
  129MOL   H22646562   0.444   4.157   4.612 -0.2614 -0.7536  0.0922
  129MOL   H22746563   0.669   4.208   4.748  2.2275  0.6915 -2.3855
  129MOL   H22846564   0.612   4.364   4.711 -2.1673  0.6618 -0.3668
  129MOL   H22946565   0.623   4.309   4.481 -1.6435 -1.0781 -1.3380
  129MOL   H23046566   0.629   4.147   4.486 -1.2906  0.5987  0.4197
  129MOL   H23146567   0.872   4.288   4.615 -0.5662  4.7712 -2.4153
  129MOL   H23246568   0.861   4.132   4.548 -0.4460  0.1761 -1.6202
  129MOL   H23346569   0.976   4.291   4.383  0.4077  1.4068  1.9266
  129MOL   H23446570   0.829   4.385   4.374  0.4805  0.0489 -0.6145
  129MOL   H23546571   0.820   4.228   4.315  1.3249 -4.2231  3.0293
  129MOL   C23646572   0.367   4.353   4.679  0.4758  0.6077 -0.2383
  129MOL   C23746573   0.240   4.324   4.594 -0.0966  0.3778  0.0354
  129MOL   C23846574   0.280   4.314   4.443  0.2276 -0.0571 -0.4193
  129MOL   C23946575   0.182   4.235   4.352 -0.2992  0.0455 -0.2253
  129MOL   C24046576   0.233   4.245   4.206  0.4980  0.1929  0.1232
  129MOL   C24146577   0.157   4.165   4.100 -0.5229  0.4558 -0.3211
  129MOL   H24246578   0.320   4.395   4.767 -3.1378 -1.3209 -1.1214
  129MOL   H24346579   0.419   4.441   4.640 -0.6079  1.6100  0.5564
  129MOL   H24446580   0.194   4.228   4.619  1.5206 -0.4041  0.0929
  129MOL   H24546581   0.303   4.412   4.402  1.5760  0.1305  0.7491
  129MOL   H24646582   0.376   4.263   4.439 -0.7312 -1.8172 -1.8102
  129MOL   H24746583   0.086   4.288   4.351 -0.1495  0.3187 -0.0873
  129MOL   H24846584   0.173   4.134   4.392  0.6030 -0.0598 -0.2802
  129MOL   H24946585   0.211   4.349   4.186 -0.7111  0.1419  1.1073
  129MOL   H25046586   0.340   4.236   4.185  0.4224 -1.0859  0.2342
  129MOL   H25146587   0.147   4.201   3.998 -1.4328  0.5449 -0.1965
  129MOL   H25246588   0.200   4.066   4.082  1.9671  1.8692 -2.3931
  129MOL   H25346589   0.060   4.136   4.141  0.0296 -0.4816  0.3698
  129MOL   C25446590   0.133   4.438   4.613 -0.1424 -0.2239  0.0524
  129MOL   C25546591   0.049   4.423   4.740  0.5073  0.6483 -0.0511
  129MOL   C25646592   7.691   4.295   4.727  0.7419  0.7872  0.5632
  129MOL   C25746593   7.647   4.229   4.856 -0.2413  0.5608 -0.4254
  129MOL   C25846594   7.578   4.092   4.835  0.6072  0.1070 -1.1792
  129MOL   C25946595   7.482   4.055   4.944 -0.1164  0.1362 -0.2210
  129MOL   H26046596   0.065   4.430   4.528 -1.8075  1.5910  1.1661
  129MOL   H26146597   0.188   4.532   4.606  2.3447 -1.7107 -0.9382
  129MOL   H26246598   0.120   4.399   4.820 -1.4944 -2.1127  0.9970
  129MOL   H26346599   7.601   4.330   4.676  1.2188  2.2909  0.7158
  129MOL   H26446600   7.722   4.220   4.654  2.7395  2.1655 -0.0653
  129MOL   H26546601   0.006   4.195   4.913  0.3103  3.2931  0.4831
  129MOL   H26646602   7.583   4.285   4.925 -0.4220 -1.8557  1.4076
  129MOL   H26746603   7.641   4.010   4.800  0.5660  0.3746 -1.8874
  129MOL   H26846604   7.515   4.115   4.749  0.1400  1.0693 -0.6027
  129MOL   H26946605   7.448   3.953   4.929 -0.5340 -0.1761  2.4922
  129MOL   H27046606   7.402   4.129   4.935 -0.1202  0.0560 -0.8866
  129MOL   H27146607   7.533   4.068   5.039  2.0784 -1.3923 -1.1572
  129MOL   C27246608   7.698   4.553   4.775  0.0463  0.3570 -0.5951
  129MOL   C27346609   0.049   4.680   4.823  0.1901  0.7059  0.0092
  129MOL   C27446610   0.110   4.670   4.966 -0.0201  0.4928  0.2537
  129MOL   C27546611   0.019   4.595   5.071  0.2011 -0.9256 -0.1042
  129MOL   C27646612   0.090   4.602   5.208  0.4665  0.3392 -0.5026
  129MOL   C27746613   0.012   4.520   5.316 -0.6328 -1.0392 -0.5586
  129MOL   H27846614   7.639   4.575   4.687  2.7348 -0.8043 -2.7700
  129MOL   H27946615   7.621   4.526   4.847 -1.0348  3.6020 -0.4632
  129MOL   H28046616   0.132   4.680   4.753 -1.2274 -1.1874 -1.7380
  129MOL   H28146617   0.132   4.772   5.000 -1.9235  0.6131  1.2143
  129MOL   H28246618   0.203   4.614   4.957 -0.8500 -0.9694  0.5889
  129MOL   H28346619   0.012   4.492   5.037 -1.5147 -0.4731 -1.1788
  129MOL   H28446620   7.642   4.628   5.074  0.4316 -0.2078  0.1668
  129MOL   H28546621   0.192   4.565   5.214  0.7294  1.4416  3.7606
  129MOL   H28646622   0.100   4.710   5.225 -1.7534  0.3893  0.6386
  129MOL   H28746623   0.052   4.543   5.414 -0.3082  1.0043 -1.1531
  129MOL   H28846624   7.631   4.533   5.312 -0.3790  0.6659 -2.0830
  129MOL   H28946625   0.032   4.416   5.290 -0.7286 -0.9842 -0.8546
  129MOL   C29046626   7.687   4.804   4.826 -0.4265  0.6523 -0.7084
  129MOL   C29146627   7.608   4.845   4.707 -0.1326 -1.0105 -0.2103
  129MOL   C29246628   7.546   4.992   4.725 -0.2156 -0.0527 -0.0136
  129MOL   C29346629   7.442   5.001   4.844 -0.0112 -0.8937  0.3366
  129MOL   C29446630   7.371   5.139   4.867 -0.1620  0.0850 -0.7210
  129MOL   C29546631   7.274   5.177   4.764 -0.7729  0.8547 -0.1898
  129MOL   H29646632   0.021   4.888   4.859 -0.3381 -0.1828  1.3140
  129MOL   H29746633   7.619   4.787   4.910  2.7274  0.0867  1.8301
  129MOL   H29846634   7.521   4.780   4.692 -1.2394  0.7761 -1.7835
  129MOL   H29946635   7.497   5.032   4.636 -0.9307 -0.8613  0.0190
  129MOL   H30046636   7.623   5.067   4.748 -0.5392  0.0663  0.7024
  129MOL   H30146637   7.360   4.933   4.821 -0.6310 -0.3212  0.8201
  129MOL   H30246638   7.488   4.955   4.932 -1.1469 -0.3300  1.2383
  129MOL   H30346639   7.439   5.224   4.879 -0.6963  0.3258  0.5969
  129MOL   H30446640   7.326   5.123   4.964  1.7933 -0.0778  0.1941
  129MOL   H30546641   7.195   5.104   4.749 -0.5591  0.6858 -0.5142
  129MOL   H30646642   7.334   5.189   4.674 -0.7411  0.2800 -0.2519
  129MOL   H30746643   7.240   5.275   4.796  0.1816  0.8362  0.9357
  129MOL   C30846644   7.693   4.835   4.575  0.0551 -0.6495 -0.1760
  129MOL   C30946645   7.623   4.889   4.450 -0.0197  0.3553  1.0795
  129MOL   C31046646   7.482   4.838   4.433  0.4780  0.4827 -0.4414
  129MOL   C31146647   7.392   4.936   4.365 -0.3729  0.1432  0.8279
  129MOL   C31246648   7.265   4.859   4.333  0.6322 -0.1987  0.7012
  129MOL   C31346649   7.145   4.940   4.271 -0.3845 -0.3986 -0.8950
  129MOL   H31446650   0.053   4.898   4.595 -0.8470 -0.0671  2.1159
  129MOL   H31546651   0.018   4.740   4.564  2.1174  0.0693  2.7356
  129MOL   H31646652   7.612   4.994   4.478  3.2109  0.7833  0.9058
  129MOL   H31746653   7.425   4.814   4.523  1.7090 -0.5612  0.0678
  129MOL   H31846654   7.490   4.739   4.387 -0.0568 -0.1439  0.7918
  129MOL   H31946655   7.425   4.983   4.272 -0.0241 -0.7715  0.4833
  129MOL   H32046656   7.372   5.021   4.430  1.1304  2.3311 -1.4035
  129MOL   H32146657   7.281   4.779   4.260 -2.8900  0.2448 -0.6262
  129MOL   H32246658   7.228   4.807   4.422 -3.5412 -0.9628 -1.3800
  129MOL   H32346659   7.103   5.022   4.329 -0.5887  0.2075 -1.9035
  129MOL   H32446660   7.069   4.862   4.262  0.1197 -1.3191  2.1779
  129MOL   H32546661   7.182   4.974   4.175  0.9382  0.1305 -0.2118
  129MOL   C32646662   7.697   4.866   4.322  0.7260 -0.1233  0.2168
  129MOL   C32746663   0.113   4.922   4.306 -0.2292  0.0127 -0.6802
  129MOL   C32846664   0.174   4.892   4.167 -0.9426 -0.5712  0.3949
  129MOL   C32946665   0.222   4.744   4.157 -0.3970  0.1361  0.7945
  129MOL   C33046666   0.253   4.702   4.014  0.1335 -0.3424  0.7986
  129MOL   C33146667   0.246   4.549   3.997 -0.7398  0.4493  0.3538
  129MOL   H33246668   7.647   4.919   4.241 -0.5096 -0.3194  0.8450
  129MOL   H33346669   7.699   4.758   4.308 -0.1944  0.0576 -1.4374
  129MOL   H33446670   0.179   4.878   4.381 -3.8646  0.3533  2.8899
  129MOL   H33546671   0.096   4.913   4.095  0.3559  2.1614 -0.2747
  129MOL   H33646672   0.259   4.959   4.155 -0.0747 -1.2622  2.3754
  129MOL   H33746673   0.143   4.677   4.188 -0.4279  0.4729  1.4408
  129MOL   H33846674   0.305   4.720   4.224 -0.1899  0.4483  0.6536
  129MOL   H33946675   0.176   4.739   3.946 -0.8703 -2.6029  0.6605
  129MOL   H34046676   0.354   4.734   3.988  0.4615 -1.5516  0.5613
  129MOL   H34146677   0.285   4.525   3.898  0.3297 -1.6185  1.2482
  129MOL   H34246678   0.146   4.506   3.998 -1.1917  1.4885  1.1782
  129MOL   H34346679   0.315   4.502   4.067 -3.0873 -0.8520  1.8520
  129MOL   C34446680   0.117   5.075   4.345  0.1135 -0.6492 -0.2956
  129MOL   C34546681   0.252   5.145   4.354  0.5272  0.3672  0.2699
  129MOL   C34646682   0.254   5.265   4.443  0.1704  0.0596  0.3721
  129MOL   C34746683   0.379   5.356   4.442 -0.1558  0.3024  0.0708
  129MOL   C34846684   0.344   5.496   4.497 -0.3031 -0.4127 -0.1870
  129MOL   C34946685   0.469   5.589   4.472 -0.2766  0.6434  0.2243
  129MOL   H35046686   0.052   5.124   4.272  1.0843 -2.5617 -2.5419
  129MOL   H35146687   0.074   5.094   4.443 -0.8558 -0.9776 -0.6506
  129MOL   H35246688   0.292   5.179   4.259  3.2791  0.9633  1.5649
  129MOL   H35346689   0.169   5.328   4.417  2.7355  2.5760 -2.4296
  129MOL   H35446690   0.236   5.219   4.540 -1.2331 -1.8743 -0.7633
  129MOL   H35546691   0.451   5.298   4.500 -0.8069 -0.9621 -0.3665
  129MOL   H35646692   0.416   5.371   4.341  2.2249  0.7106  0.9724
  129MOL   H35746693   0.269   5.540   4.430 -0.2917 -1.2111 -0.7333
  129MOL   H35846694   0.313   5.485   4.600 -1.7568 -1.7822 -0.7480
  129MOL   H35946695   0.445   5.692   4.498  0.5806  1.2466 -1.3079
  129MOL   H36046696   0.554   5.562   4.535 -1.1157  2.1433  2.0348
  129MOL   H36146697   0.511   5.583   4.371  0.1654 -0.9426  0.4934
  129MOL   H36246698   0.323   5.077   4.403 -1.2619 -1.7634  0.0163
  130MOL     C146699   0.684   7.183   4.570  0.1386 -0.1290 -0.1991
  130MOL     C246700   0.812   7.118   4.509  0.0534  0.1613 -0.1010
  130MOL     C346701   0.790   7.086   4.360 -0.6473  0.1000 -0.0874
  130MOL     C446702   0.668   6.981   4.345  0.0976  0.4095 -0.4538
  130MOL     C546703   0.641   6.934   4.204 -0.0958 -0.8832 -0.0272
  130MOL     C646704   0.734   6.823   4.144  0.3501  0.0765 -1.0653
  130MOL     H746705   0.651   7.270   4.514 -0.8528  1.0936  2.2383
  130MOL     H846706   0.604   7.109   4.573  1.2127 -1.3812 -1.5188
  130MOL     H946707   0.885   7.194   4.539  1.6311 -2.6397  3.5383
  130MOL    H1046708   0.883   7.039   4.332 -1.0543 -0.2719 -0.8293
  130MOL    H1146709   0.781   7.176   4.299  3.0436  1.2578  0.9694
  130MOL    H1246710   0.576   7.028   4.380  0.3553  0.6285 -0.0706
  130MOL    H1346711   0.683   6.892   4.405  2.3035  3.3190  3.5031
  130MOL    H1446712   0.538   6.902   4.197 -0.7018  0.3008  2.8240
  130MOL    H1546713   0.648   7.007   4.123  3.2364 -1.9413 -0.7874
  130MOL    H1646714   0.714   6.811   4.037 -2.5015  3.2022 -1.0024
  130MOL    H1746715   0.723   6.731   4.200  0.3635  0.2703 -0.7438
  130MOL    H1846716   0.836   6.862   4.147 -0.4290  2.1448  0.1807
  130MOL    H1946717   0.707   7.223   4.668  1.2191 -1.1954  0.0001
  130MOL    C2046718   0.848   6.988   4.595 -1.0748  0.4447  0.1007
  130MOL    C2146719   0.984   6.982   4.680 -0.0537 -0.0754  0.0194
  130MOL    C2246720   1.113   7.012   4.603 -0.2246 -0.5822  0.0464
  130MOL    C2346721   1.228   6.909   4.585 -0.2790 -0.1021 -0.2696
  130MOL    C2446722   1.345   6.953   4.504 -0.9847  0.4275 -0.2274
  130MOL    C2546723   1.424   7.071   4.565  0.4543  0.3080 -0.5273
  130MOL    H2646724   0.868   6.905   4.526 -2.6506 -1.1466  1.4902
  130MOL    H2746725   0.768   6.960   4.664 -0.4569 -1.8425 -0.0531
  130MOL    H2846726   0.977   6.878   4.711 -0.6192 -0.1674 -0.4031
  130MOL    H2946727   1.154   7.094   4.660  1.2794 -0.9052 -0.5577
  130MOL    H3046728   1.090   7.056   4.506 -2.3987  0.1919  0.8832
  130MOL    H3146729   1.177   6.827   4.536 -0.6410 -0.7123  1.1132
  130MOL    H3246730   1.269   6.866   4.676 -0.5078 -0.3491 -0.2826
  130MOL    H3346731   1.414   6.870   4.491 -1.1984  0.5342 -2.1658
  130MOL    H3446732   1.313   6.981   4.404 -0.8572 -0.4223 -0.5084
  130MOL    H3546733   1.376   7.164   4.596  0.1461  1.1006 -3.2145
  130MOL    H3646734   1.464   7.041   4.662  0.4496 -2.1796 -1.2512
  130MOL    H3746735   1.502   7.108   4.498  0.2711  2.8528  0.6294
  130MOL    C3846736   0.969   7.069   4.813  0.3119 -0.7879  0.5568
  130MOL    C3946737   1.082   7.059   4.916 -0.0049  0.3998 -0.3885
  130MOL    C4046738   1.125   7.195   4.970  0.9247 -0.0441  0.2577
  130MOL    C4146739   1.021   7.266   5.057 -0.1159 -0.0120  0.2905
  130MOL    C4246740   1.076   7.401   5.097  0.4724  0.1532 -0.1228
  130MOL    C4346741   0.973   7.478   5.177 -0.1822  0.2303 -0.2321
  130MOL    H4446742   0.872   7.043   4.856  0.1934  0.1491  0.8600
  130MOL    H4546743   0.958   7.174   4.787  2.4243 -0.8098 -0.5273
  130MOL    H4646744   1.169   7.021   4.862 -0.8037 -0.0543 -1.3759
  130MOL    H4746745   1.218   7.192   5.027  0.4734  1.9321  1.1355
  130MOL    H4846746   1.153   7.263   4.890 -0.7574  1.6160  1.0582
  130MOL    H4946747   0.923   7.274   5.009 -0.1915  0.1961  0.4817
  130MOL    H5046748   1.011   7.208   5.149 -1.8814  0.4871  0.4344
  130MOL    H5146749   1.170   7.393   5.152  1.8182  1.5491 -2.1205
  130MOL    H5246750   1.096   7.464   5.010 -0.9658  2.2065  0.9985
  130MOL    H5346751   0.880   7.488   5.121  0.1704  2.5038 -0.4708
  130MOL    H5446752   1.011   7.579   5.193  1.8762 -0.5175 -0.2343
  130MOL    H5546753   0.950   7.433   5.273  0.1833  0.8450  0.1452
  130MOL    C5646754   1.056   6.955   5.014  0.1378  0.4989 -0.3473
  130MOL    C5746755   1.158   6.949   5.131 -0.2286 -0.2939  0.1987
  130MOL    C5846756   1.294   6.905   5.076  0.0181  0.0995  0.2557
  130MOL    C5946757   1.297   6.788   4.984 -0.3394  0.2135 -0.1823
  130MOL    C6046758   1.442   6.757   4.941 -0.1663  0.2674  0.0699
  130MOL    C6146759   1.457   6.646   4.839 -0.4877  0.2698 -0.0920
  130MOL    H6246760   0.956   6.969   5.056  0.4694 -0.4207  0.7844
  130MOL    H6346761   1.040   6.856   4.970 -0.3711 -0.2438  1.4252
  130MOL    H6446762   1.169   7.048   5.174 -0.2598  0.3576 -1.2656
  130MOL    H6546763   1.335   6.994   5.028  0.5834  0.2873  1.0815
  130MOL    H6646764   1.360   6.868   5.155  0.9828 -1.8140 -1.3930
  130MOL    H6746765   1.242   6.823   4.896 -1.3807  0.2601  0.4815
  130MOL    H6846766   1.251   6.696   5.019  0.9312 -1.2608 -2.3011
  130MOL    H6946767   1.500   6.846   4.919  1.7461 -0.1600  3.0620
  130MOL    H7046768   1.497   6.716   5.026 -0.3156 -0.0354  0.0212
  130MOL    H7146769   1.562   6.617   4.833 -0.5976 -0.0321 -0.6074
  130MOL    H7246770   1.392   6.560   4.854 -0.3072  0.3486  1.1508
  130MOL    H7346771   1.435   6.685   4.739  1.2949 -2.4049 -1.6010
  130MOL    C7446772   1.101   6.858   5.240 -0.0171 -0.1826  0.6470
  130MOL    C7546773   1.192   6.853   5.374  0.3520  0.0595 -0.1977
  130MOL    C7646774   1.223   6.997   5.424 -0.2484  0.2686 -0.1040
  130MOL    C7746775   1.102   7.092   5.439 -0.0012  0.0878 -0.6523
  130MOL    C7846776   1.128   7.242   5.442  0.3212 -0.0564  0.0646
  130MOL    C7946777   1.242   7.282   5.530  0.6450 -0.0116  0.4154
  130MOL    H8046778   0.994   6.870   5.254 -0.3070 -1.9545  0.1133
  130MOL    H8146779   1.113   6.758   5.198 -0.6551  0.2133 -0.4897
  130MOL    H8246780   1.291   6.813   5.350 -0.8230 -1.5510 -2.4901
  130MOL    H8346781   1.276   6.984   5.518  1.1743  1.5323 -0.7219
  130MOL    H8446782   1.296   7.043   5.357  0.6505 -0.9251  0.0358
  130MOL    H8546783   1.036   7.077   5.353  0.4372 -0.0623 -0.9621
  130MOL    H8646784   1.048   7.066   5.530  1.4483 -0.9318 -0.0707
  130MOL    H8746785   1.033   7.283   5.476 -2.0006 -2.4902 -3.1551
  130MOL    H8846786   1.156   7.278   5.343  1.0826 -0.3368  0.1687
  130MOL    H8946787   1.335   7.230   5.507  1.4142  0.9386  1.3239
  130MOL    H9046788   1.264   7.388   5.540  1.6350 -0.2729  1.1564
  130MOL    H9146789   1.220   7.254   5.633 -0.0396  0.1681  0.3182
  130MOL    C9246790   1.128   6.760   5.485 -0.0734 -0.2093 -0.4211
  130MOL    C9346791   1.127   6.606   5.461 -0.0315  0.8127 -0.2580
  130MOL    C9446792   1.268   6.535   5.452 -0.2863 -0.8784  0.0898
  130MOL    C9546793   1.353   6.537   5.587 -0.0157  0.4641 -0.3893
  130MOL    C9646794   1.482   6.451   5.587 -0.3538 -0.6018  0.0910
  130MOL    C9746795   1.594   6.518   5.514 -0.7923 -0.3593 -0.0672
  130MOL    H9846796   1.184   6.770   5.578 -4.8843  1.7487  2.4687
  130MOL    H9946797   1.030   6.800   5.510  0.2642 -0.5357  1.5078
  130MOL   H10046798   1.068   6.573   5.375 -0.1653 -0.8024  0.4456
  130MOL   H10146799   1.314   6.604   5.380  0.1922 -0.0178  1.2057
  130MOL   H10246800   1.258   6.438   5.404  0.4853 -0.9156 -0.0076
  130MOL   H10346801   1.381   6.640   5.608 -0.0821  0.4235 -0.1007
  130MOL   H10446802   1.290   6.509   5.670 -1.5741 -0.0355 -1.7167
  130MOL   H10546803   1.522   6.424   5.684 -0.9798 -2.3973 -0.1405
  130MOL   H10646804   1.457   6.355   5.541 -0.3164 -0.1165 -0.9718
  130MOL   H10746805   1.634   6.611   5.556  0.7029 -2.1755  2.6522
  130MOL   H10846806   1.681   6.458   5.487 -0.6337 -0.3695  0.4674
  130MOL   H10946807   1.555   6.548   5.417 -0.1775 -2.4001 -0.9643
  130MOL   C11046808   1.038   6.544   5.577  0.6021 -0.3293  0.9743
  130MOL   C11146809   0.978   6.411   5.550 -0.2711  0.8168 -0.8197
  130MOL   C11246810   0.859   6.405   5.441  0.1879  0.1772  0.0322
  130MOL   C11346811   0.749   6.506   5.468  0.4237 -0.4960 -0.1763
  130MOL   C11446812   0.636   6.492   5.364 -0.0355 -0.2769  0.7046
  130MOL   C11546813   0.517   6.583   5.394  0.6701  0.8383  0.5198
  130MOL   H11646814   1.095   6.541   5.670  2.8161 -2.1226 -0.3791
  130MOL   H11746815   0.970   6.624   5.607 -0.8662 -0.7688 -1.0594
  130MOL   H11846816   1.053   6.347   5.504 -0.5462 -0.8311  0.9937
  130MOL   H11946817   0.812   6.307   5.437 -1.1355  0.7771  0.6636
  130MOL   H12046818   0.910   6.420   5.346  1.1626  0.8847  0.6437
  130MOL   H12146819   0.778   6.611   5.459 -2.3736  0.1134 -3.2269
  130MOL   H12246820   0.712   6.501   5.570 -1.8504  2.2168 -0.7924
  130MOL   H12346821   0.605   6.388   5.359  3.1709 -1.3154  1.1001
  130MOL   H12446822   0.666   6.526   5.265 -0.5903  0.1614  0.6851
  130MOL   H12546823   0.485   6.576   5.498 -2.8831  1.9382 -0.4553
  130MOL   H12646824   0.545   6.687   5.380 -0.5227  1.1786  0.6736
  130MOL   H12746825   0.438   6.564   5.322  0.3079  0.1790  1.0859
  130MOL   C12846826   0.947   6.333   5.676 -0.1111  0.0216 -0.3261
  130MOL   C12946827   1.064   6.292   5.778 -0.7229  0.3649  0.4875
  130MOL   C13046828   1.146   6.173   5.716 -0.2497 -0.4595 -0.1836
  130MOL   C13146829   1.279   6.151   5.781  0.0429  0.4301  0.6161
  130MOL   C13246830   1.381   6.081   5.684  1.0794 -0.1439  0.3205
  130MOL   C13346831   1.515   6.041   5.750 -0.6279 -0.4726 -0.2351
  130MOL   H13446832   0.893   6.244   5.645 -2.6221  1.2103  0.4591
  130MOL   H13546833   0.862   6.386   5.720 -0.3505 -1.9675  1.7620
  130MOL   H13646834   1.141   6.367   5.791 -1.0937  0.6552  1.0239
  130MOL   H13746835   1.079   6.087   5.708 -0.4720 -0.4733  1.7184
  130MOL   H13846836   1.171   6.203   5.614 -0.0816 -1.8459 -0.5541
  130MOL   H13946837   1.251   6.080   5.859 -0.5037 -0.8022 -0.6778
  130MOL   H14046838   1.328   6.238   5.824  1.5185  0.8462 -1.8549
  130MOL   H14146839   1.337   5.986   5.653  1.0799  0.3009 -1.0769
  130MOL   H14246840   1.403   6.141   5.596 -2.0129 -0.0154 -0.4222
  130MOL   H14346841   1.497   5.960   5.821 -4.3322 -0.8232 -1.4357
  130MOL   H14446842   1.565   6.123   5.802  0.0945  0.6350 -2.6042
  130MOL   H14546843   1.593   6.009   5.682  0.2433 -1.8070  1.3602
  130MOL   C14646844   1.005   6.267   5.926 -0.1321  0.9634 -0.3522
  130MOL   C14746845   1.084   6.345   6.032 -0.5358  0.8061  0.5079
  130MOL   C14846846   1.057   6.286   6.174  0.2593 -0.1823  0.7458
  130MOL   C14946847   1.151   6.164   6.200 -0.5727  0.1823 -1.1162
  130MOL   C15046848   1.167   6.127   6.348  0.3029  0.0485  0.4739
  130MOL   C15146849   1.270   6.214   6.409 -0.2262 -0.6194 -0.3623
  130MOL   H15246850   0.898   6.283   5.933 -0.5387 -1.8844  0.6119
  130MOL   H15346851   1.009   6.160   5.946  0.8714  1.2439  1.0104
  130MOL   H15446852   1.187   6.321   6.005 -0.3481  0.1639  1.7549
  130MOL   H15546853   0.951   6.273   6.193 -0.3699  0.2706 -2.2253
  130MOL   H15646854   1.087   6.367   6.240 -0.2096 -1.3095  2.3540
  130MOL   H15746855   1.112   6.083   6.139  2.4619 -0.8389 -1.7647
  130MOL   H15846856   1.248   6.184   6.155 -0.9640 -1.4574 -2.7573
  130MOL   H15946857   1.188   6.020   6.346  0.5345  0.0212  2.8348
  130MOL   H16046858   1.072   6.138   6.400 -0.0858  1.4507 -0.5181
  130MOL   H16146859   1.265   6.204   6.517  0.9275 -2.1344 -0.4275
  130MOL   H16246860   1.372   6.192   6.376 -1.4839 -0.3994 -4.6303
  130MOL   H16346861   1.266   6.318   6.377 -1.3341 -1.0154 -1.5617
  130MOL   C16446862   1.069   6.496   6.019 -0.1936 -0.6973 -0.4177
  130MOL   C16546863   1.199   6.577   6.020  0.4570 -0.5686  0.3155
  130MOL   C16646864   1.189   6.730   5.986 -0.2257 -0.2585 -0.2567
  130MOL   C16746865   1.117   6.770   5.855  0.8190 -0.4336  1.2072
  130MOL   C16846866   1.110   6.922   5.826 -0.2843  0.2463 -0.3674
  130MOL   C16946867   1.248   6.988   5.796  0.0786  0.6618 -1.0820
  130MOL   H17046868   1.015   6.512   5.926 -0.2378  0.2777 -0.2269
  130MOL   H17146869   1.012   6.542   6.100 -0.8306  1.1360 -1.8595
  130MOL   H17246870   1.250   6.535   5.933 -0.4492  0.5656 -0.7809
  130MOL   H17346871   1.290   6.769   5.975 -0.3775 -0.2323 -1.6395
  130MOL   H17446872   1.147   6.782   6.072 -0.6237 -1.9016  0.5729
  130MOL   H17546873   1.015   6.733   5.849  0.4378  0.4294  2.1222
  130MOL   H17646874   1.171   6.721   5.774 -0.8584  2.3355 -1.6993
  130MOL   H17746875   1.039   6.977   5.888  2.0880 -0.2250  2.9507
  130MOL   H17846876   1.063   6.924   5.728  1.8707 -1.0611 -1.4713
  130MOL   H17946877   1.223   7.070   5.729 -1.6091  0.1095 -1.1637
  130MOL   H18046878   1.324   6.930   5.744 -0.8361  2.0731 -4.0398
  130MOL   H18146879   1.285   7.030   5.890 -1.0503  0.5133 -0.5494
  130MOL   C18246880   1.270   6.552   6.144  0.0129  0.1379  0.3912
  130MOL   C18346881   1.413   6.613   6.155 -0.1555  1.2054 -0.2161
  130MOL   C18446882   1.513   6.558   6.052  0.9041 -0.4120 -0.0915
  130MOL   C18546883   1.539   6.404   6.059  0.9633  0.6617  0.9084
  130MOL   C18646884   1.667   6.354   5.993 -0.2287 -0.2946  0.3147
  130MOL   C18746885   1.784   6.406   6.070 -0.2641  0.2938  0.3395
  130MOL   H18846886   1.203   6.596   6.218 -0.9932  0.4806 -0.7132
  130MOL   H18946887   1.281   6.445   6.166  1.9154  0.5437  1.5220
  130MOL   H19046888   1.410   6.719   6.130  2.7860  0.9613 -1.8076
  130MOL   H19146889   1.479   6.583   5.951  1.0718  0.2457  0.0093
  130MOL   H19246890   1.604   6.612   6.079 -0.4505  1.4049  0.9418
  130MOL   H19346891   1.463   6.354   5.999  1.5249 -0.8549  1.4318
  130MOL   H19446892   1.534   6.348   6.153 -0.1446 -0.0182  0.4553
  130MOL   H19546893   1.679   6.380   5.888 -0.2869  0.4877  0.4937
  130MOL   H19646894   1.677   6.246   6.000  0.6547 -0.4685 -3.0552
  130MOL   H19746895   1.792   6.389   6.177 -0.1755 -0.2051  0.2565
  130MOL   H19846896   1.812   6.510   6.050  1.9017 -0.4415 -0.6887
  130MOL   H19946897   1.869   6.356   6.022 -1.9993 -1.5936 -0.8111
  130MOL   C20046898   1.474   6.597   6.292  0.2001 -0.2736 -0.0797
  130MOL   C20146899   1.397   6.662   6.416  0.1114  0.3761 -0.3270
  130MOL   C20246900   1.446   6.614   6.554  0.0710 -0.1863  0.6973
  130MOL   C20346901   1.409   6.468   6.601 -0.7325 -0.0640 -0.2353
  130MOL   C20446902   1.445   6.449   6.747 -0.4705 -0.2119 -0.0029
  130MOL   C20546903   1.400   6.317   6.816 -0.0499 -0.0503  0.3247
  130MOL   H20646904   1.571   6.645   6.281 -0.2538  0.5263 -0.6176
  130MOL   H20746905   1.482   6.490   6.313 -0.6509 -0.4469 -0.6112
  130MOL   H20846906   1.292   6.630   6.412  0.1389  0.2190  0.2453
  130MOL   H20946907   1.417   6.683   6.633 -2.2713 -1.3981  0.9304
  130MOL   H21046908   1.554   6.629   6.551  0.1046 -0.3081 -5.4309
  130MOL   H21146909   1.470   6.398   6.544 -1.2564  1.8758 -3.2491
  130MOL   H21246910   1.306   6.435   6.587 -1.6069  1.7398  1.6330
  130MOL   H21346911   1.394   6.523   6.808 -1.4311 -0.4051 -0.5566
  130MOL   H21446912   1.552   6.465   6.752 -0.7782  1.8314  0.5385
  130MOL   H21546913   1.436   6.218   6.788 -1.7804 -0.4936 -0.3736
  130MOL   H21646914   1.429   6.331   6.920  1.2637  0.7750 -0.1372
  130MOL   H21746915   1.293   6.316   6.835 -0.0078  0.8133  0.6160
  130MOL   C21846916   1.410   6.818   6.409 -1.0492 -0.4529  0.7138
  130MOL   C21946917   1.320   6.905   6.497 -0.6945  0.3740 -0.1636
  130MOL   C22046918   1.176   6.927   6.444 -0.6470  0.9669  0.0052
  130MOL   C22146919   1.174   6.991   6.304  0.4297 -0.5623 -0.1469
  130MOL   C22246920   1.051   7.076   6.261 -0.1254  0.4144  0.3743
  130MOL   C22346921   0.922   6.988   6.249  0.1783  0.3565 -0.1860
  130MOL   H22446922   1.514   6.850   6.418 -0.7761 -0.5705 -1.6971
  130MOL   H22546923   1.396   6.850   6.306 -1.4611 -1.1885  0.5354
  130MOL   H22646924   1.316   6.856   6.594  0.1727 -0.6161 -0.6103
  130MOL   H22746925   1.119   6.970   6.526 -1.5652 -1.6399  0.7703
  130MOL   H22846926   1.139   6.825   6.438 -0.6488  0.9087  0.9783
  130MOL   H22946927   1.183   6.911   6.230 -0.4678 -0.2595 -0.5960
  130MOL   H23046928   1.262   7.051   6.281 -0.0370  0.7191  1.2882
  130MOL   H23146929   1.038   7.166   6.321 -1.1819  0.1701  0.5214
  130MOL   H23246930   1.077   7.115   6.163  2.2072 -2.2581 -0.1085
  130MOL   H23346931   0.886   6.947   6.344 -0.5519  1.0229 -0.1645
  130MOL   H23446932   0.945   6.910   6.176  2.0474 -0.5317  1.3088
  130MOL   H23546933   0.835   7.037   6.205 -0.5287  0.0567  0.8434
  130MOL   C23646934   1.402   7.038   6.522 -0.1409 -0.0159  0.3476
  130MOL   C23746935   1.514   7.020   6.628 -0.0021  0.4978 -0.1140
  130MOL   C23846936   1.479   7.063   6.764 -0.3740  0.6544 -0.0456
  130MOL   C23946937   1.371   6.973   6.828 -0.2569 -0.5094  0.2355
  130MOL   C24046938   1.335   6.996   6.978 -0.5595 -0.2831  0.5665
  130MOL   C24146939   1.313   7.134   7.025  0.5760  0.2279  0.4600
  130MOL   H24246940   1.445   7.065   6.425 -0.1004  0.6931  0.5642
  130MOL   H24346941   1.339   7.125   6.539  1.4264  1.1684  0.1970
  130MOL   H24446942   1.539   6.915   6.642 -1.5319  0.4963  3.0834
  130MOL   H24546943   1.569   7.049   6.825  0.7133 -1.7889 -2.1355
  130MOL   H24646944   1.449   7.168   6.768 -3.4145 -0.1839  1.3215
  130MOL   H24746945   1.417   6.876   6.811 -1.0633 -0.5125 -2.1086
  130MOL   H24846946   1.282   6.987   6.767 -0.5930  0.6918  0.9950
  130MOL   H24946947   1.244   6.938   6.993 -0.6635 -0.5826 -1.1588
  130MOL   H25046948   1.422   6.958   7.032  0.6207  0.9679 -0.4035
  130MOL   H25146949   1.234   7.189   6.972  1.9554  1.9864  0.1500
  130MOL   H25246950   1.288   7.137   7.131  1.5251 -0.0609  0.6922
  130MOL   H25346951   1.397   7.199   7.002  1.2209 -1.5448 -2.4293
  130MOL   C25446952   1.656   7.073   6.584  0.0488 -0.4229 -0.7010
  130MOL   C25546953   1.780   7.002   6.647 -0.0106  0.5032  0.0848
  130MOL   C25646954   1.901   7.088   6.645  0.3744  0.1248  0.0748
  130MOL   C25746955   1.953   7.147   6.507 -0.3109  0.3178  0.1918
  130MOL   C25846956   2.019   7.284   6.518 -0.0019 -0.1513 -0.9399
  130MOL   C25946957   2.060   7.321   6.381 -0.0595 -0.0720 -0.1028
  130MOL   H26046958   1.653   7.179   6.610  0.1509 -0.2894 -1.2197
  130MOL   H26146959   1.673   7.067   6.476  0.5142  0.8727 -0.7088
  130MOL   H26246960   1.772   6.992   6.755  0.9969 -1.3979  0.0019
  130MOL   H26346961   1.874   7.177   6.701 -0.6432 -0.0318 -0.1561
  130MOL   H26446962   1.984   7.042   6.698  0.7544  0.3529 -0.3172
  130MOL   H26546963   2.024   7.073   6.469  0.6024  0.9823  0.5628
  130MOL   H26646964   1.874   7.145   6.433  0.3603 -0.2498 -0.5101
  130MOL   H26746965   2.111   7.281   6.576 -0.3370 -0.2464 -0.4069
  130MOL   H26846966   1.951   7.364   6.547 -0.5641  0.3165 -3.3845
  130MOL   H26946967   1.997   7.354   6.299 -2.6468 -2.1639  0.9826
  130MOL   H27046968   2.112   7.241   6.328 -0.0438 -0.0856 -0.0654
  130MOL   H27146969   2.139   7.396   6.385  0.2239 -0.3429 -0.6072
  130MOL   C27246970   1.797   6.863   6.574 -0.3971  0.6906  0.1975
  130MOL   C27346971   1.835   6.759   6.680 -0.2866 -0.0570 -0.3795
  130MOL   C27446972   1.867   6.623   6.610 -0.5281 -0.0025 -0.5227
  130MOL   C27546973   1.977   6.612   6.503  0.6231  0.5878  0.0866
  130MOL   C27646974   1.992   6.463   6.448  0.1138  0.1059 -0.0482
  130MOL   C27746975   2.114   6.456   6.350 -0.5020 -0.3130  0.8434
  130MOL   H27846976   1.709   6.832   6.517  0.6303  0.6242 -1.3823
  130MOL   H27946977   1.878   6.877   6.503 -0.7762 -0.4089 -0.4727
  130MOL   H28046978   1.927   6.792   6.727  1.2117 -3.5130 -0.6958
  130MOL   H28146979   1.780   6.571   6.571 -1.1170 -0.1058  0.9093
  130MOL   H28246980   1.899   6.559   6.692 -0.8117  0.9140  0.3184
  130MOL   H28346981   2.068   6.649   6.551  1.2217  1.3584 -1.6024
  130MOL   H28446982   1.952   6.680   6.422 -0.3427 -2.0474 -1.9023
  130MOL   H28546983   2.007   6.396   6.532 -0.3496 -1.6769 -1.3605
  130MOL   H28646984   1.900   6.433   6.400 -1.3135  1.3015  1.8674
  130MOL   H28746985   2.216   6.445   6.384  0.0560  0.1359 -0.6486
  130MOL   H28846986   2.108   6.371   6.281  0.2528 -0.2490  0.6919
  130MOL   H28946987   2.108   6.542   6.284 -0.7520  0.7793  2.2791
  130MOL   C29046988   1.737   6.733   6.801  0.4667  0.1590  0.0329
  130MOL   C29146989   1.803   6.702   6.940 -0.5727  0.0151 -0.0873
  130MOL   C29246990   1.882   6.825   6.991 -0.8211  0.6828 -0.8061
  130MOL   C29346991   1.809   6.932   7.070 -0.0707  0.6625  0.0160
  130MOL   C29446992   1.881   7.066   7.081 -0.1007  0.0343 -0.0717
  130MOL   C29546993   1.792   7.181   7.124  0.3476  0.4252 -0.3346
  130MOL   H29646994   1.681   6.648   6.762 -0.5733  0.8344  0.0116
  130MOL   H29746995   1.659   6.808   6.816 -0.0827  0.0203 -2.0046
  130MOL   H29846996   1.880   6.631   6.910 -1.4092 -0.8499 -0.2093
  130MOL   H29946997   1.944   6.872   6.914 -0.4811 -1.8490 -2.1373
  130MOL   H30046998   1.959   6.795   7.062 -1.0261  0.5688 -0.6335
  130MOL   H30146999   1.724   6.968   7.012  0.1663  1.1994  0.0001
  130MOL   H30247000   1.784   6.900   7.172  0.9310 -0.2282 -0.0136
  130MOL   H30347001   1.904   7.092   6.978  0.6168  0.1207  0.1131
  130MOL   H30447002   1.967   7.064   7.147  0.9555 -1.2008 -1.4471
  130MOL   H30547003   1.773   7.167   7.230  2.3613 -0.7211 -0.0982
  130MOL   H30647004   1.706   7.188   7.057 -2.2042  0.7457  2.8736
  130MOL   H30747005   1.851   7.271   7.107  0.8369  0.7621  2.8282
  130MOL   C30847006   1.719   6.638   7.051  0.1874 -0.1053 -0.4115
  130MOL   C30947007   1.688   6.492   7.036 -0.2721  0.4472 -0.1706
  130MOL   C31047008   1.567   6.453   7.136 -0.1161  0.1498 -0.1984
  130MOL   C31147009   1.584   6.495   7.285 -0.5196  0.0063  0.1373
  130MOL   C31247010   1.476   6.439   7.378 -0.2069 -0.9166 -0.8054
  130MOL   C31347011   1.353   6.532   7.388  0.1859 -0.0474  0.1106
  130MOL   H31447012   1.765   6.649   7.150 -0.1898 -0.1204 -0.2336
  130MOL   H31547013   1.622   6.689   7.053 -0.6913 -1.7147 -1.1694
  130MOL   H31647014   1.642   6.470   6.940  1.1078 -0.4986 -0.6336
  130MOL   H31747015   1.547   6.346   7.141  0.0338 -0.0965 -3.8560
  130MOL   H31847016   1.472   6.496   7.104 -2.1847 -2.0586  2.6862
  130MOL   H31947017   1.583   6.604   7.283  1.1659  0.0130 -0.9463
  130MOL   H32047018   1.677   6.450   7.321 -0.1728 -1.5312 -2.5682
  130MOL   H32147019   1.448   6.341   7.340  1.5047 -1.7563  0.0381
  130MOL   H32247020   1.502   6.419   7.482 -0.5977 -0.1668 -0.5600
  130MOL   H32347021   1.382   6.626   7.434 -0.5672 -0.4529  1.4350
  130MOL   H32447022   1.272   6.494   7.450  1.9524 -0.1214  2.4370
  130MOL   H32547023   1.320   6.571   7.292  0.3392  0.9277  0.4551
  130MOL   C32647024   1.809   6.394   7.051 -0.7742 -0.1515 -0.1893
  130MOL   C32747025   1.862   6.344   6.921 -0.1903  0.2159 -0.0254
  130MOL   C32847026   2.000   6.274   6.936 -0.3169 -0.5181 -0.2424
  130MOL   C32947027   2.113   6.371   6.975 -1.1202 -0.2859 -0.1543
  130MOL   C33047028   2.247   6.290   6.982  0.3785 -0.2957  0.1907
  130MOL   C33147029   2.383   6.363   7.003 -0.0163 -0.0238 -0.8753
  130MOL   H33247030   1.778   6.309   7.113 -1.7071  0.5838  0.3679
  130MOL   H33347031   1.888   6.427   7.118 -1.1356 -1.4755  0.9369
  130MOL   H33447032   1.877   6.429   6.854 -0.6476  0.6511  0.4195
  130MOL   H33547033   2.000   6.182   6.995 -3.5831 -0.5324 -0.1491
  130MOL   H33647034   2.024   6.240   6.836 -1.1947 -0.4297 -0.4873
  130MOL   H33747035   2.106   6.412   7.076 -1.8724 -2.4907  0.7187
  130MOL   H33847036   2.124   6.452   6.902 -1.8406 -1.4373 -1.5566
  130MOL   H33947037   2.239   6.212   7.058  0.3915 -1.2826 -0.8075
  130MOL   H34047038   2.263   6.242   6.886  3.0329  0.5010  0.2104
  130MOL   H34147039   2.396   6.446   6.934 -0.2796  1.5391  0.9523
  130MOL   H34247040   2.470   6.299   6.988 -0.9505 -1.6126  0.3643
  130MOL   H34347041   2.384   6.393   7.107  0.8137  0.0985 -0.9170
  130MOL   C34447042   1.768   6.250   6.846  0.2046  0.0540  1.1335
  130MOL   C34547043   1.781   6.264   6.685  0.3964  0.1344 -0.2115
  130MOL   C34647044   1.713   6.157   6.600  1.2406 -0.0547  0.0214
  130MOL   C34747045   1.731   6.174   6.453 -0.4669  0.0141  0.3321
  130MOL   C34847046   1.860   6.111   6.411  0.5049  0.0172 -0.3399
  130MOL   C34947047   1.865   6.092   6.254 -0.0469 -0.4551 -1.0139
  130MOL   H35047048   1.785   6.147   6.876  0.0314 -0.6469 -1.0921
  130MOL   H35147049   1.663   6.267   6.868 -0.5551 -1.5372 -1.0506
  130MOL   H35247050   1.885   6.268   6.654  0.3523 -2.7095 -0.9124
  130MOL   H35347051   1.740   6.056   6.631 -0.4897 -0.0992  1.4307
  130MOL   H35447052   1.607   6.154   6.623  1.1965 -2.3423 -0.3633
  130MOL   H35547053   1.649   6.125   6.401 -0.3041  0.1936 -0.0967
  130MOL   H35647054   1.721   6.281   6.435  0.3687 -0.2345 -1.6796
  130MOL   H35747055   1.943   6.162   6.460  0.4982  1.7070 -2.0282
  130MOL   H35847056   1.863   6.011   6.452  0.5430 -0.3462 -1.2029
  130MOL   H35947057   1.883   6.174   6.184 -1.5223  1.9076  1.2364
  130MOL   H36047058   1.949   6.025   6.237  0.5122  0.2673 -1.1316
  130MOL   H36147059   1.778   6.031   6.230 -1.4478  0.8711  0.5616
  130MOL   H36247060   1.735   6.362   6.668 -1.0594 -0.3737  0.6273
  131MOL     C147061   2.794   6.021   2.843 -0.1864 -0.7647  0.2553
  131MOL     C247062   2.854   5.896   2.908  0.3725 -0.1948  0.1351
  131MOL     C347063   2.823   5.899   3.060  0.6066  0.4721  0.3236
  131MOL     C447064   2.672   5.876   3.087 -0.7590  0.3151 -0.5816
  131MOL     C547065   2.645   5.863   3.237  0.2106 -0.2805 -0.5423
  131MOL     C647066   2.496   5.827   3.269  0.9506 -0.0439  0.0064
  131MOL     H747067   2.686   6.022   2.849 -0.1104  0.8587  1.5751
  131MOL     H847068   2.814   6.114   2.896 -0.7168  1.1355 -2.8144
  131MOL     H947069   2.813   5.804   2.867 -1.4223  0.4473  0.4500
  131MOL    H1047070   2.851   5.990   3.113 -1.0252  0.5360  1.1119
  131MOL    H1147071   2.882   5.819   3.106 -0.2943  0.1496  0.9202
  131MOL    H1247072   2.654   5.781   3.037  2.6759 -0.5214 -0.3557
  131MOL    H1347073   2.608   5.948   3.035 -0.6247  1.6654  1.0690
  131MOL    H1447074   2.710   5.791   3.285  0.1936  0.2975  0.3510
  131MOL    H1547075   2.673   5.953   3.292  0.0953  0.5360 -1.7931
  131MOL    H1647076   2.478   5.732   3.218  3.1022 -0.9692  0.9139
  131MOL    H1747077   2.420   5.889   3.221  0.1744 -2.0751 -1.4895
  131MOL    H1847078   2.478   5.805   3.374  2.6618  0.9483  0.5225
  131MOL    H1947079   2.815   6.029   2.736 -2.1294 -1.0468 -0.1539
  131MOL    C2047080   3.007   5.897   2.894  0.0909 -0.0749 -0.0653
  131MOL    C2147081   3.057   5.760   2.831 -0.1520 -0.3664  0.1652
  131MOL    C2247082   3.207   5.780   2.794 -0.7220 -0.0420 -0.1476
  131MOL    C2347083   3.249   5.852   2.665 -0.2367 -0.0968  0.6668
  131MOL    C2447084   3.388   5.904   2.674  0.1879 -0.3432 -0.7125
  131MOL    C2547085   3.445   5.951   2.546 -0.1157 -0.9649 -0.1536
  131MOL    H2647086   3.062   5.909   2.987  1.4463 -0.1670 -0.8548
  131MOL    H2747087   3.039   5.981   2.832 -0.5936 -0.6946 -1.2858
  131MOL    H2847088   2.990   5.728   2.751 -0.1348  0.0359 -0.0150
  131MOL    H2947089   3.269   5.691   2.779  2.1743  1.6950  1.0087
  131MOL    H3047090   3.260   5.825   2.877 -0.4975 -1.3188  0.4132
  131MOL    H3147091   3.178   5.931   2.639  0.7723  0.0562 -1.7587
  131MOL    H3247092   3.233   5.780   2.584  3.3050  1.7298 -1.8200
  131MOL    H3347093   3.384   5.984   2.748 -0.1159 -1.6500  0.7168
  131MOL    H3447094   3.447   5.822   2.715 -0.5050 -1.4600 -1.9030
  131MOL    H3547095   3.435   5.876   2.467  0.2479 -1.1609 -0.0164
  131MOL    H3647096   3.403   6.043   2.504 -1.8912 -1.3571  0.7116
  131MOL    H3747097   3.550   5.974   2.561 -0.1587  0.5240 -1.9174
  131MOL    C3847098   3.043   5.646   2.928  0.5854 -0.5711  0.2262
  131MOL    C3947099   3.063   5.491   2.890  0.1516 -0.9173 -0.5529
  131MOL    C4047100   2.984   5.449   2.758 -0.7039 -0.3411 -0.8251
  131MOL    C4147101   2.833   5.469   2.768 -0.9760  0.3043  0.1860
  131MOL    C4247102   2.753   5.447   2.635  0.4552  0.4488  0.2491
  131MOL    C4347103   2.671   5.571   2.591 -0.2602 -0.0913 -0.3859
  131MOL    H4447104   2.939   5.651   2.961  0.1694  0.4795 -1.1883
  131MOL    H4547105   3.095   5.659   3.023 -1.1965 -0.5045  1.2205
  131MOL    H4647106   3.018   5.430   2.969  0.5284  2.0585  2.0423
  131MOL    H4747107   3.027   5.520   2.688  1.5164  0.3032  1.1421
  131MOL    H4847108   3.004   5.345   2.731 -0.0150 -0.7244  1.1022
  131MOL    H4947109   2.796   5.395   2.839  0.7702 -0.3589  0.4351
  131MOL    H5047110   2.805   5.567   2.805 -1.1887  0.4360 -0.3167
  131MOL    H5147111   2.824   5.428   2.555  0.5806 -0.3401  0.5458
  131MOL    H5247112   2.693   5.356   2.636  1.5218 -0.2630  1.0670
  131MOL    H5347113   2.609   5.605   2.673 -1.7118 -1.0842 -1.0532
  131MOL    H5447114   2.603   5.554   2.508  0.7405 -0.3440 -1.1723
  131MOL    H5547115   2.736   5.652   2.558  0.9705 -1.3833 -1.2369
  131MOL    C5647116   3.210   5.445   2.887 -0.3930  0.5068  0.5084
  131MOL    C5747117   3.229   5.288   2.911 -0.2904  0.4911  0.2803
  131MOL    C5847118   3.219   5.259   3.061  0.2033 -0.0144  0.1924
  131MOL    C5947119   3.190   5.114   3.088 -0.1533  0.1972  0.0402
  131MOL    C6047120   3.195   5.073   3.235  0.2881  0.9378  0.3036
  131MOL    C6147121   3.164   4.926   3.274  0.1525 -0.3751  0.2940
  131MOL    H6247122   3.254   5.472   2.791 -1.2592  1.1571  0.2910
  131MOL    H6347123   3.269   5.498   2.962 -1.2982  2.4419 -0.1237
  131MOL    H6447124   3.152   5.233   2.857 -0.3155  3.0946 -2.4945
  131MOL    H6547125   3.316   5.288   3.098 -1.5089  3.9391  1.8013
  131MOL    H6647126   3.143   5.318   3.112  0.4344  0.0216  0.4910
  131MOL    H6747127   3.253   5.046   3.029  1.0148  0.6944  0.6956
  131MOL    H6847128   3.088   5.088   3.060  0.5733 -1.0414 -1.5663
  131MOL    H6947129   3.290   5.094   3.284  1.5562 -2.3161 -0.5770
  131MOL    H7047130   3.117   5.133   3.281 -0.0193  0.9821 -0.2682
  131MOL    H7147131   3.237   4.861   3.225 -0.4535  0.5366 -1.9017
  131MOL    H7247132   3.176   4.904   3.380  0.4015 -0.4012  0.2608
  131MOL    H7347133   3.060   4.902   3.251  0.5925  0.2820 -2.5917
  131MOL    C7447134   3.361   5.239   2.847  0.6097 -0.3147 -0.6429
  131MOL    C7547135   3.365   5.224   2.694 -0.6397  0.1753 -0.6674
  131MOL    C7647136   3.507   5.228   2.630  0.4645 -0.9837 -0.7544
  131MOL    C7747137   3.552   5.379   2.620  0.2389 -0.4215 -0.6444
  131MOL    C7847138   3.700   5.401   2.581 -0.4034  0.1603 -0.3523
  131MOL    C7947139   3.725   5.378   2.433  0.9206 -0.0117  0.0089
  131MOL    H8047140   3.445   5.301   2.877 -1.4356  3.1101 -1.6777
  131MOL    H8147141   3.396   5.139   2.873 -1.9546 -1.1243 -0.1444
  131MOL    H8247142   3.322   5.317   2.657 -1.1623 -0.6066 -2.0567
  131MOL    H8347143   3.576   5.171   2.692 -1.5607 -2.3305  0.3312
  131MOL    H8447144   3.526   5.198   2.527 -1.9682  2.2059 -2.1886
  131MOL    H8547145   3.487   5.429   2.549  1.0617  3.6263  1.2842
  131MOL    H8647146   3.537   5.422   2.719 -0.2596  0.7273 -1.2134
  131MOL    H8747147   3.767   5.343   2.643 -3.0008 -1.2860  1.1695
  131MOL    H8847148   3.733   5.505   2.591  2.5504 -0.6409 -1.1592
  131MOL    H8947149   3.649   5.438   2.383  0.2403 -0.0947  0.9316
  131MOL    H9047150   3.822   5.422   2.408  0.7990  0.6319  0.6361
  131MOL    H9147151   3.722   5.279   2.388  0.3208  1.2986 -2.9280
  131MOL    C9247152   3.280   5.101   2.643 -0.0602 -0.4835 -0.0496
  131MOL    C9347153   3.243   5.103   2.488  0.0416  0.0136 -0.6709
  131MOL    C9447154   3.198   4.956   2.447 -0.9192  0.3663  0.6896
  131MOL    C9547155   3.085   4.890   2.521  0.2292  0.4609 -0.1297
  131MOL    C9647156   3.126   4.799   2.641  0.0302  0.1826 -0.8671
  131MOL    C9747157   3.008   4.737   2.716  0.5680  0.8707  0.0091
  131MOL    H9847158   3.353   5.020   2.654 -1.3052 -1.3496  2.4459
  131MOL    H9947159   3.197   5.076   2.709 -0.0047 -2.5620 -0.7178
  131MOL   H10047160   3.329   5.136   2.430  1.6216 -1.4563  0.8089
  131MOL   H10147161   3.294   4.903   2.450 -0.6999  0.7003 -0.2145
  131MOL   H10247162   3.164   4.959   2.344  0.5544 -1.9803  0.0741
  131MOL   H10347163   3.016   4.964   2.560  0.6597 -2.1117  6.0205
  131MOL   H10447164   3.023   4.836   2.450  0.6238 -1.1410  0.7114
  131MOL   H10547165   3.192   4.720   2.603  2.0045  0.3598  1.9957
  131MOL   H10647166   3.189   4.848   2.716 -1.4850  0.8733 -0.0317
  131MOL   H10747167   2.941   4.809   2.763  2.3296  1.3065  1.9665
  131MOL   H10847168   2.953   4.672   2.649  1.2814 -0.9996  1.2196
  131MOL   H10947169   3.040   4.678   2.802  0.6130 -0.2907 -0.8055
  131MOL   C11047170   3.133   5.211   2.460 -0.1322 -0.6702 -0.7008
  131MOL   C11147171   3.123   5.241   2.302 -0.8096  0.2162  0.3771
  131MOL   C11247172   3.254   5.315   2.256  1.0853 -0.3579  0.4233
  131MOL   C11347173   3.266   5.467   2.288  0.3338  0.5087  0.4021
  131MOL   C11447174   3.382   5.525   2.207  0.3889 -0.3548 -0.5184
  131MOL   C11547175   3.387   5.682   2.227  0.5902  0.6015 -0.8931
  131MOL   H11647176   3.034   5.198   2.504  0.7180  0.4628  1.6144
  131MOL   H11747177   3.178   5.304   2.495 -0.2596 -0.8669 -0.0149
  131MOL   H11847178   3.128   5.143   2.255  0.0043  0.2563  0.3841
  131MOL   H11947179   3.250   5.303   2.148 -1.1506 -1.3852  0.5737
  131MOL   H12047180   3.344   5.257   2.274 -0.3518 -2.2201  1.9211
  131MOL   H12147181   3.295   5.461   2.393 -0.5085  0.3153  0.6273
  131MOL   H12247182   3.175   5.527   2.287  0.9872  1.5092  0.2127
  131MOL   H12347183   3.376   5.495   2.103  1.1314  0.9951 -0.9591
  131MOL   H12447184   3.484   5.495   2.233 -0.0058 -0.0374  1.4973
  131MOL   H12547185   3.401   5.716   2.330  0.1667  0.0628 -0.6511
  131MOL   H12647186   3.450   5.732   2.155  0.7411 -0.7042 -1.6964
  131MOL   H12747187   3.287   5.715   2.197  0.7479  1.5476 -0.3880
  131MOL   C12847188   2.988   5.303   2.260  0.0925  0.0315 -0.3830
  131MOL   C12947189   2.878   5.188   2.247 -0.5367  0.6898 -0.5077
  131MOL   C13047190   2.864   5.129   2.108 -0.4824 -0.7574 -0.0942
  131MOL   C13147191   2.843   4.968   2.096 -0.7660  0.0838  0.2614
  131MOL   C13247192   2.818   4.922   1.953 -0.1249  0.0959  0.2014
  131MOL   C13347193   2.687   4.974   1.892  0.3198 -0.1995  0.4709
  131MOL   H13447194   3.015   5.338   2.160  0.4008 -1.0397 -0.6831
  131MOL   H13547195   2.956   5.389   2.319  1.1564  1.8025 -2.3033
  131MOL   H13647196   2.902   5.100   2.307 -0.1839  0.4373 -1.0179
  131MOL   H13747197   2.792   5.191   2.055 -0.5844 -0.2692  0.6078
  131MOL   H13847198   2.957   5.162   2.060 -1.1922 -1.6691 -2.1466
  131MOL   H13947199   2.761   4.929   2.157 -2.6618 -0.6555 -2.6350
  131MOL   H14047200   2.932   4.918   2.133  0.3402  0.4866 -1.7771
  131MOL   H14147201   2.899   4.950   1.887  0.0559 -1.9543 -0.4879
  131MOL   H14247202   2.807   4.814   1.946  2.7094 -0.3164  1.4398
  131MOL   H14347203   2.595   4.961   1.949 -1.5980  3.4254 -1.6147
  131MOL   H14447204   2.664   4.935   1.793  0.3231 -0.0315  0.4038
  131MOL   H14547205   2.700   5.081   1.879 -0.2532 -0.0163  1.3452
  131MOL   C14647206   2.746   5.234   2.307 -0.4119 -0.2122  0.3722
  131MOL   C14747207   2.622   5.146   2.318  0.1376 -0.0321  0.2123
  131MOL   C14847208   2.500   5.242   2.333 -0.1679  0.3407  0.1645
  131MOL   C14947209   2.410   5.252   2.209  0.2607  0.2519 -0.3303
  131MOL   C15047210   2.307   5.139   2.191 -0.8721 -0.0316 -0.0179
  131MOL   C15147211   2.229   5.159   2.064 -0.3317 -0.6495 -0.1082
  131MOL   H15247212   2.764   5.288   2.400  1.4405  0.2210 -0.2138
  131MOL   H15347213   2.719   5.312   2.236 -1.4231 -1.9717 -1.2410
  131MOL   H15447214   2.619   5.082   2.230 -0.5581  0.6515 -0.2649
  131MOL   H15547215   2.516   5.346   2.362  0.0653  0.2052  0.5263
  131MOL   H15647216   2.433   5.202   2.409  0.6178 -0.7978  0.2754
  131MOL   H15747217   2.366   5.351   2.202 -1.2962 -0.3349  1.0580
  131MOL   H15847218   2.474   5.237   2.122  0.1914  0.2484 -0.3801
  131MOL   H15947219   2.242   5.143   2.278 -0.9939 -0.3164 -0.0964
  131MOL   H16047220   2.367   5.048   2.198 -0.1255  0.3423 -1.2628
  131MOL   H16147221   2.159   5.242   2.073  1.3081  0.8868 -1.0058
  131MOL   H16247222   2.276   5.159   1.966  0.8521  0.9840  0.4423
  131MOL   H16347223   2.153   5.081   2.060 -0.0700 -0.9294  0.3597
  131MOL   C16447224   2.639   5.055   2.439  0.0142 -0.6970 -0.2306
  131MOL   C16547225   2.530   4.952   2.451 -0.1716  0.6963 -0.5269
  131MOL   C16647226   2.553   4.826   2.367 -0.0411  0.5556 -0.5537
  131MOL   C16747227   2.409   4.749   2.343 -0.6683 -0.4278  0.7673
  131MOL   C16847228   2.440   4.609   2.285  0.2676  0.2381 -0.0630
  131MOL   C16947229   2.316   4.544   2.228  0.0106 -0.2822 -1.2201
  131MOL   H17047230   2.735   5.003   2.438  0.2196 -0.3016 -0.9259
  131MOL   H17147231   2.642   5.117   2.529 -0.5602  0.7956 -1.2403
  131MOL   H17247232   2.435   4.996   2.422 -1.2137  0.4900  2.4579
  131MOL   H17347233   2.617   4.761   2.427  0.1671  1.7680  0.5570
  131MOL   H17447234   2.592   4.848   2.268  1.6449  0.5900  0.1075
  131MOL   H17547235   2.354   4.814   2.275  0.7349  0.6043  0.5739
  131MOL   H17647236   2.340   4.731   2.424 -0.3228 -2.2872  0.6548
  131MOL   H17747237   2.472   4.559   2.376  1.2486 -0.9241 -1.0390
  131MOL   H17847238   2.529   4.602   2.223  1.0375  0.2983  1.0279
  131MOL   H17947239   2.256   4.490   2.301  0.3735  0.5481 -0.2910
  131MOL   H18047240   2.329   4.467   2.152  1.5728 -0.6176 -0.6415
  131MOL   H18147241   2.249   4.618   2.184  1.7122  2.3992  0.4717
  131MOL   C18247242   2.508   4.927   2.600  0.6239 -0.4648 -0.9306
  131MOL   C18347243   2.424   5.034   2.681 -0.2151 -0.5229  0.0860
  131MOL   C18447244   2.467   5.021   2.828 -0.2102 -0.3596 -0.0260
  131MOL   C18547245   2.596   5.104   2.853  0.0900 -0.6237 -0.0668
  131MOL   C18647246   2.652   5.073   3.000 -0.0380  0.3696 -0.1887
  131MOL   C18747247   2.701   4.933   3.030  0.4954 -0.5704 -0.6292
  131MOL   H18847248   2.451   4.835   2.617  1.4080 -0.5404  1.5171
  131MOL   H18947249   2.599   4.906   2.656 -0.6645  0.4234  1.6053
  131MOL   H19047250   2.439   5.141   2.662 -2.0897  0.5587  4.0056
  131MOL   H19147251   2.392   5.062   2.896 -0.7044 -1.2807  0.0028
  131MOL   H19247252   2.472   4.916   2.858 -1.1071 -0.1060  1.0659
  131MOL   H19347253   2.580   5.212   2.842 -0.3342 -0.6609  0.1673
  131MOL   H19447254   2.668   5.071   2.778  1.5612  1.1227  0.5157
  131MOL   H19547255   2.592   5.106   3.085  2.9218  3.2434  0.8638
  131MOL   H19647256   2.740   5.136   3.007 -0.6561  1.3864 -1.4099
  131MOL   H19747257   2.774   4.896   2.958  1.2262 -1.1060  0.3775
  131MOL   H19847258   2.605   4.880   3.030  0.6179 -0.7917 -0.2031
  131MOL   H19947259   2.740   4.928   3.132  2.1609  0.5421 -1.1936
  131MOL   C20047260   2.271   5.009   2.659 -0.1488 -0.2145 -0.2512
  131MOL   C20147261   2.164   5.110   2.723  0.1674  0.1477  0.5741
  131MOL   C20247262   2.186   5.245   2.668  0.0425 -0.0300  0.7825
  131MOL   C20347263   2.250   5.339   2.773  0.1860 -0.5869 -0.2046
  131MOL   C20447264   2.292   5.475   2.712 -0.0109 -0.0909  0.2898
  131MOL   C20547265   2.359   5.554   2.827  0.1468 -0.5429 -0.0597
  131MOL   H20647266   2.251   4.917   2.713 -1.5537  0.6756  0.8046
  131MOL   H20747267   2.249   4.999   2.552 -0.7782 -1.7736  0.0200
  131MOL   H20847268   2.171   5.116   2.832  1.8732 -1.4718  0.5786
  131MOL   H20947269   2.086   5.282   2.646  0.8710  1.0689 -1.3420
  131MOL   H21047270   2.243   5.233   2.575 -0.1775  1.1058  0.4963
  131MOL   H21147271   2.325   5.283   2.829  2.9985  1.4867 -1.8085
  131MOL   H21247272   2.161   5.356   2.834  1.1331 -0.1541  1.0744
  131MOL   H21347273   2.204   5.511   2.658 -0.8851 -1.6134  0.6691
  131MOL   H21447274   2.361   5.466   2.629 -1.4324 -2.1455 -0.7156
  131MOL   H21547275   2.376   5.658   2.799 -2.3509 -0.0802 -0.0349
  131MOL   H21647276   2.297   5.548   2.917 -1.8107  1.9312 -1.1874
  131MOL   H21747277   2.451   5.504   2.857  1.4754  2.8404  1.7495
  131MOL   C21847278   2.020   5.062   2.693 -0.6295 -0.3309 -0.5748
  131MOL   C21947279   1.906   5.131   2.771 -1.1140 -0.9320  0.3515
  131MOL   C22047280   1.889   5.077   2.914  0.4319 -0.1369  0.6644
  131MOL   C22147281   1.874   4.923   2.938 -0.2698 -0.1618 -0.3167
  131MOL   C22247282   1.880   4.886   3.089  0.4440 -0.1228  0.1791
  131MOL   C22347283   1.774   4.934   3.189 -0.4001 -0.8609 -0.0036
  131MOL   H22447284   2.004   5.078   2.586  1.6150 -2.2733 -1.2492
  131MOL   H22547285   2.018   4.953   2.697  3.5752 -0.3983  2.2589
  131MOL   H22647286   1.926   5.238   2.781  0.2604 -1.0509 -0.9516
  131MOL   H22747287   1.802   5.129   2.954  0.4332  1.3668 -1.2570
  131MOL   H22847288   1.975   5.103   2.976  3.7981 -2.3798 -2.7867
  131MOL   H22947289   1.959   4.874   2.890 -0.2447  0.5724 -1.0184
  131MOL   H23047290   1.782   4.888   2.892 -0.3252 -1.2645  0.6187
  131MOL   H23147291   1.867   4.779   3.105 -0.1342 -0.3993 -2.0271
  131MOL   H23247292   1.979   4.910   3.129 -0.0102  0.2050  1.1265
  131MOL   H23347293   1.753   5.041   3.186 -0.2600 -0.8246  0.2816
  131MOL   H23447294   1.788   4.917   3.296 -0.3418  1.8062  0.4445
  131MOL   H23547295   1.682   4.880   3.167 -0.9596 -1.1679  2.8906
  131MOL   C23647296   1.765   5.116   2.694 -0.1891  0.6055 -0.9370
  131MOL   C23747297   1.740   5.194   2.564  0.5334 -0.2889 -0.0292
  131MOL   C23847298   1.756   5.348   2.578  0.1178 -0.5581 -0.4092
  131MOL   C23947299   1.782   5.419   2.438  0.0503  0.3749  0.6846
  131MOL   C24047300   1.924   5.387   2.391 -1.3020  0.3395  0.0159
  131MOL   C24147301   1.931   5.432   2.246  0.5025  0.3487 -0.1529
  131MOL   H24247302   1.736   5.012   2.676 -0.8246  0.6961 -0.4686
  131MOL   H24347303   1.683   5.141   2.761  1.7426 -0.9968  2.2019
  131MOL   H24447304   1.813   5.157   2.492  1.4165 -2.1068  1.7450
  131MOL   H24547305   1.674   5.387   2.639  1.0962 -1.0191  1.2606
  131MOL   H24647306   1.842   5.382   2.635 -0.6921 -1.1465  1.2109
  131MOL   H24747307   1.760   5.524   2.452 -2.8090 -0.1841  0.7463
  131MOL   H24847308   1.715   5.381   2.361  0.0375 -0.8361  1.2727
  131MOL   H24947309   1.998   5.441   2.450 -1.5789  2.8968 -1.9329
  131MOL   H25047310   1.942   5.279   2.397  3.0905  0.9649 -0.1883
  131MOL   H25147311   1.923   5.541   2.246  2.4919  0.5285  1.9058
  131MOL   H25247312   2.030   5.420   2.202  1.1982 -0.3365  1.5558
  131MOL   H25347313   1.859   5.387   2.178  1.3916  1.2516 -1.7236
  131MOL   C25447314   1.598   5.153   2.510 -0.4716 -0.0101 -0.5215
  131MOL   C25547315   1.615   5.011   2.437  0.2016 -0.1415 -0.0666
  131MOL   C25647316   1.652   5.029   2.288 -0.3252  0.4035  0.9694
  131MOL   C25747317   1.686   4.904   2.203  0.4603  0.8998  0.0216
  131MOL   C25847318   1.731   4.937   2.061  0.2995 -0.3005  0.0848
  131MOL   C25947319   1.739   4.808   1.981  0.0609 -0.1576 -0.2498
  131MOL   H26047320   1.576   5.227   2.433 -2.0143 -0.1023 -0.1842
  131MOL   H26147321   1.529   5.167   2.593  1.4900  2.5826  0.7428
  131MOL   H26247322   1.693   4.948   2.479  0.4363 -1.1396 -1.9450
  131MOL   H26347323   1.577   5.080   2.227 -0.5556 -0.2998  0.6489
  131MOL   H26447324   1.737   5.096   2.282  0.5546 -0.6836  1.3028
  131MOL   H26547325   1.760   4.846   2.258 -2.7518 -1.4366  2.1003
  131MOL   H26647326   1.598   4.840   2.197 -0.4109  1.9818  0.9038
  131MOL   H26747327   1.824   4.994   2.055  0.0895 -0.1803 -2.2769
  131MOL   H26847328   1.659   4.996   2.004 -0.5594  0.0256  1.4843
  131MOL   H26947329   1.801   4.733   2.032  1.5486  0.6853 -0.7708
  131MOL   H27047330   1.785   4.812   1.882 -1.4325 -1.4626 -1.0255
  131MOL   H27147331   1.642   4.759   1.978  0.2024 -0.6441  2.0942
  131MOL   C27247332   1.485   4.933   2.450 -0.0480  0.7822 -0.3015
  131MOL   C27347333   1.452   4.881   2.598 -0.0140  0.2880  0.6675
  131MOL   C27447334   1.536   4.746   2.620  0.6327 -0.5439 -0.1396
  131MOL   C27547335   1.544   4.712   2.768  0.9722  0.2067 -0.3819
  131MOL   C27647336   1.658   4.621   2.797 -0.3882  0.3428  0.7249
  131MOL   C27747337   1.665   4.597   2.940 -0.3670 -0.0344 -0.0004
  131MOL   H27847338   1.402   4.982   2.399 -2.1699 -0.7970  1.5237
  131MOL   H27947339   1.498   4.846   2.386 -1.1990  1.8875 -2.0844
  131MOL   H28047340   1.487   4.945   2.679 -1.2653 -0.2056  1.6014
  131MOL   H28147341   1.641   4.762   2.593  0.8924 -1.3341  0.4080
  131MOL   H28247342   1.485   4.663   2.572  0.9188 -1.7738  1.6405
  131MOL   H28347343   1.451   4.658   2.785  1.1641  0.4323  1.4928
  131MOL   H28447344   1.553   4.804   2.825 -4.6801  0.0514  1.0018
  131MOL   H28547345   1.651   4.529   2.739 -1.8665 -1.5630  3.8102
  131MOL   H28647346   1.751   4.660   2.756  0.0548 -0.3764  1.0520
  131MOL   H28747347   1.691   4.684   3.000  1.5814 -1.4176  1.2270
  131MOL   H28847348   1.569   4.562   2.978 -0.1829 -1.4136 -0.7499
  131MOL   H28947349   1.743   4.526   2.970  0.8852  2.0588  1.8930
  131MOL   C29047350   1.305   4.851   2.611  0.8089  0.0029 -0.0394
  131MOL   C29147351   1.207   4.962   2.677  0.3513  0.3657 -0.3163
  131MOL   C29247352   1.075   4.978   2.593  0.0337 -0.6969 -0.1836
  131MOL   C29347353   1.011   5.118   2.600  0.1249  0.1160  0.4981
  131MOL   C29447354   0.892   5.136   2.504 -0.3548  0.3034  0.9172
  131MOL   C29547355   0.807   5.260   2.514 -0.0385 -0.1339 -0.7326
  131MOL   H29647356   1.293   4.758   2.667  1.8515  0.8967  1.6962
  131MOL   H29747357   1.265   4.812   2.517  1.9826  0.1246 -0.5965
  131MOL   H29847358   1.259   5.057   2.667 -0.5633  0.8467 -0.5513
  131MOL   H29947359   1.000   4.908   2.630  2.1006 -2.3591  0.9717
  131MOL   H30047360   1.090   4.970   2.485 -2.0383 -0.5044 -0.4903
  131MOL   H30147361   0.996   5.138   2.706  0.4520  0.0639  0.5539
  131MOL   H30247362   1.078   5.196   2.564 -2.4892  1.8675 -0.7464
  131MOL   H30347363   0.821   5.053   2.507  1.4348 -1.2385  1.4454
  131MOL   H30447364   0.939   5.135   2.406  0.9787 -2.8861  1.5083
  131MOL   H30547365   0.874   5.345   2.500 -0.9316  1.1951  2.5785
  131MOL   H30647366   0.760   5.265   2.612 -1.4877 -1.7101 -1.3182
  131MOL   H30747367   0.734   5.248   2.434  0.8736  1.0525 -1.7787
  131MOL   C30847368   1.178   4.940   2.827 -0.2055 -1.0669  0.4990
  131MOL   C30947369   1.285   4.954   2.938 -0.5627 -0.4094 -0.2756
  131MOL   C31047370   1.226   4.905   3.072  0.0405 -0.5657 -0.4427
  131MOL   C31147371   1.335   4.848   3.169  0.0937 -0.1158  0.8500
  131MOL   C31247372   1.379   4.705   3.133  0.2741  0.0751 -0.5838
  131MOL   C31347373   1.456   4.641   3.245  0.9438 -0.9333  0.8389
  131MOL   H31447374   1.093   4.999   2.862  0.3751 -0.1381  0.3410
  131MOL   H31547375   1.140   4.839   2.845 -0.6722 -0.6117  2.1670
  131MOL   H31647376   1.359   4.874   2.926  1.7933  1.4445  1.3623
  131MOL   H31747377   1.150   4.827   3.075 -2.1825  1.4669 -1.8170
  131MOL   H31847378   1.174   4.987   3.123  2.7316  2.3288 -2.1577
  131MOL   H31947379   1.278   4.836   3.261 -2.8833  1.8170 -0.6768
  131MOL   H32047380   1.420   4.916   3.172 -0.7556  1.0954 -1.5951
  131MOL   H32147381   1.294   4.641   3.109 -0.6873  1.3413 -0.5916
  131MOL   H32247382   1.443   4.709   3.045  1.0823  0.2219  0.0077
  131MOL   H32347383   1.410   4.653   3.343  0.4794  1.2583  0.3763
  131MOL   H32447384   1.556   4.682   3.257  0.1890  1.2508 -0.0504
  131MOL   H32547385   1.472   4.534   3.232  2.4011 -0.7750  1.3438
  131MOL   C32647386   1.383   5.077   2.946  0.0281  0.5257 -0.9577
  131MOL   C32747387   1.318   5.215   2.981  0.0038  0.7902 -0.3550
  131MOL   C32847388   1.418   5.312   3.042  0.9857 -0.0078 -0.5360
  131MOL   C32947389   1.537   5.333   2.957  0.2765  0.2759  0.2463
  131MOL   C33047390   1.621   5.455   3.004 -0.8194  0.0348  0.0386
  131MOL   C33147391   1.763   5.474   2.934 -0.4248  0.0780 -0.0777
  131MOL   H33247392   1.438   5.083   2.852  1.2310  0.0940 -0.2923
  131MOL   H33347393   1.459   5.057   3.021 -0.1422  0.9112 -0.6850
  131MOL   H33447394   1.255   5.192   3.067 -0.5225  0.9547 -0.6895
  131MOL   H33547395   1.384   5.414   3.063  0.5580 -0.3555  0.4843
  131MOL   H33647396   1.459   5.290   3.140 -1.3775  0.4179  0.5909
  131MOL   H33747397   1.500   5.353   2.857 -1.0499 -0.4092  0.5892
  131MOL   H33847398   1.594   5.240   2.964  0.4845  0.2232 -1.7838
  131MOL   H33947399   1.552   5.539   2.996  0.4924  1.2389  1.1426
  131MOL   H34047400   1.638   5.428   3.108 -1.4336  0.1606  0.1707
  131MOL   H34147401   1.826   5.557   2.964 -0.6067 -0.8410  2.9542
  131MOL   H34247402   1.749   5.475   2.825 -2.1146  0.0009  0.1245
  131MOL   H34347403   1.828   5.386   2.941 -0.0589  0.4621  1.4319
  131MOL   C34447404   1.233   5.272   2.865  0.1469 -0.6222  1.0637
  131MOL   C34547405   1.126   5.385   2.890 -0.8652  0.2032 -0.0863
  131MOL   C34647406   1.018   5.349   2.992 -0.1720  0.6866 -1.0127
  131MOL   C34747407   0.910   5.451   3.004  0.0840  0.1760 -0.2850
  131MOL   C34847408   0.799   5.400   3.101  0.1260  0.6032 -0.2963
  131MOL   C34947409   0.701   5.516   3.128 -0.0789 -0.0809  0.4205
  131MOL   H35047410   1.297   5.314   2.787  1.4647 -0.3177  2.3002
  131MOL   H35147411   1.170   5.192   2.827  1.0895 -0.8286 -0.1044
  131MOL   H35247412   1.074   5.418   2.800  1.2062 -1.4317 -1.9513
  131MOL   H35347413   0.981   5.247   2.976 -3.8900  1.8586 -0.3720
  131MOL   H35447414   1.051   5.338   3.096 -0.9598  1.4349 -0.6809
  131MOL   H35547415   0.960   5.540   3.041  1.0458  0.2375 -1.7015
  131MOL   H35647416   0.864   5.457   2.905  1.0740  0.7612 -0.7107
  131MOL   H35747417   0.732   5.332   3.048  1.2880 -0.9172  0.1839
  131MOL   H35847418   0.821   5.348   3.194  1.6622 -3.1573 -2.6732
  131MOL   H35947419   0.750   5.611   3.145 -0.1120 -0.0906  0.5741
  131MOL   H36047420   0.621   5.535   3.056  1.0261  2.2257 -0.2266
  131MOL   H36147421   0.648   5.504   3.223 -3.2752 -1.4240 -1.4318
  131MOL   H36247422   1.175   5.476   2.925  0.4528 -0.1229 -1.0453
  132MOL     C147423   1.070   3.297   7.601 -0.6472 -0.2509  0.6211
  132MOL     C247424   1.208   3.366   7.586 -0.3991  0.0899 -0.2997
  132MOL     C347425   1.191   3.473   7.480 -0.1249 -0.3325 -0.0149
  132MOL     C447426   1.094   3.583   7.521 -0.0254 -0.8919 -0.2521
  132MOL     C547427   1.107   3.710   7.430  0.9621  0.4193  0.8570
  132MOL     C647428   1.242   3.783   7.432 -0.0713 -0.2030 -0.1927
  132MOL     H747429   1.001   3.365   7.652 -0.7379 -0.7651  1.1866
  132MOL     H847430   1.019   3.260   7.512  0.7557 -1.5332  0.3383
  132MOL     H947431   1.248   3.414   7.676 -1.1546 -1.2083  0.7362
  132MOL    H1047432   1.166   3.428   7.384 -0.3088  0.0785 -0.1633
  132MOL    H1147433   1.289   3.519   7.469 -1.0259  1.5547 -0.5030
  132MOL    H1247434   1.113   3.613   7.624  0.1204 -1.0051 -0.2461
  132MOL    H1347435   0.995   3.537   7.522 -0.5841  0.3106  1.5007
  132MOL    H1447436   1.089   3.681   7.326 -2.5663  2.5389  0.7817
  132MOL    H1547437   1.021   3.771   7.459  0.5606 -0.5138  1.6566
  132MOL    H1647438   1.313   3.712   7.390  1.3919  0.7650  0.6073
  132MOL    H1747439   1.271   3.812   7.533 -0.8665  1.1121 -0.3271
  132MOL    H1847440   1.236   3.869   7.365 -2.1666  2.0821  2.7844
  132MOL    H1947441   1.074   3.216   7.674  0.6048 -0.8200 -0.0651
  132MOL    C2047442   1.307   3.253   7.551  0.3119  0.1835 -0.0202
  132MOL    C2147443   1.462   3.298   7.530 -0.1900  0.1430  0.6614
  132MOL    C2247444   1.533   3.265   7.665 -0.6357  0.3328  0.0502
  132MOL    C2347445   1.541   3.380   0.043 -0.3036 -0.3374 -0.3292
  132MOL    C2447446   1.614   3.349   0.171  0.1662  0.0019  0.0689
  132MOL    C2547447   1.766   3.361   0.170 -0.4015  0.7433 -0.0491
  132MOL    H2647448   1.266   3.193   7.469  0.7891  1.3760 -1.1320
  132MOL    H2747449   1.300   3.176   7.628 -3.1432 -0.6307 -1.0511
  132MOL    H2847450   1.472   3.405   7.511  0.8989 -0.6345 -3.8381
  132MOL    H2947451   1.636   3.242   7.641 -0.6452 -1.6594  1.7008
  132MOL    H3047452   1.489   3.173   7.705 -0.7778  0.0343 -0.7814
  132MOL    H3147453   1.436   3.395   0.069 -0.9721 -3.3238 -1.1004
  132MOL    H3247454   1.581   3.476   0.011 -1.8053  0.4345  0.0974
  132MOL    H3347455   1.579   3.423   0.243  1.1632  1.1074 -0.5588
  132MOL    H3447456   1.575   3.252   0.202 -1.5921  0.8437  0.5268
  132MOL    H3547457   1.821   3.356   0.265 -1.1245  1.7486  0.4334
  132MOL    H3647458   1.811   3.289   0.102 -1.7478 -0.6499  0.5123
  132MOL    H3747459   1.777   3.462   0.132  3.0446  0.1925 -0.6784
  132MOL    C3847460   1.520   3.223   7.404 -0.3880  0.1300  0.0120
  132MOL    C3947461   1.455   3.239   7.260  0.8257  0.6685 -0.8387
  132MOL    C4047462   1.501   3.367   7.194 -0.3652 -1.1607  0.5869
  132MOL    C4147463   1.426   3.400   7.061 -0.7088  0.5774  0.5607
  132MOL    C4247464   1.280   3.464   7.078  0.3736 -0.5992 -0.3804
  132MOL    C4347465   1.190   3.420   6.964  0.5996 -0.0960  0.3608
  132MOL    H4447466   1.502   3.119   7.432 -1.3538  0.0308 -0.9433
  132MOL    H4547467   1.625   3.252   7.401 -0.7563  1.4200 -0.5997
  132MOL    H4647468   1.348   3.249   7.274  0.5601 -2.3253 -0.3663
  132MOL    H4747469   1.499   3.448   7.266 -0.8575  0.5224 -1.2684
  132MOL    H4847470   1.602   3.342   7.162 -0.7588  1.0245 -2.5481
  132MOL    H4947471   1.465   3.480   6.996 -2.2946 -0.6315 -1.9509
  132MOL    H5047472   1.423   3.318   6.989  0.2391  0.4104  0.6938
  132MOL    H5147473   1.241   3.422   7.171  0.0954  1.7382  0.5930
  132MOL    H5247474   1.283   3.572   7.092  2.7189 -0.6462 -0.3477
  132MOL    H5347475   1.196   3.314   6.938 -0.5355  0.0948 -0.7752
  132MOL    H5447476   1.194   3.481   6.873  0.2291 -0.3700  0.1584
  132MOL    H5547477   1.087   3.427   7.001 -0.6268  1.1444 -3.0770
  132MOL    C5647478   1.475   3.111   7.168 -0.0851  0.6730  0.0565
  132MOL    C5747479   1.403   2.984   7.213 -0.4039  0.1731 -0.4134
  132MOL    C5847480   1.466   2.857   7.159 -0.2875  0.0795  0.2755
  132MOL    C5947481   1.564   2.793   7.259  0.2479  0.7034 -0.1854
  132MOL    C6047482   1.690   2.882   7.295  0.8264  0.5212  0.2717
  132MOL    C6147483   1.780   2.790   7.375  0.6299 -0.5575 -0.1969
  132MOL    H6247484   1.438   3.128   7.066 -0.5857  1.8342  0.4238
  132MOL    H6347485   1.584   3.104   7.163  0.0714  1.9750  1.3753
  132MOL    H6447486   1.394   2.969   7.321  0.1302 -2.3066 -0.6813
  132MOL    H6547487   1.388   2.783   7.138  0.8007 -0.8159 -0.6115
  132MOL    H6647488   1.499   2.882   7.058 -1.6523  0.7148 -0.0305
  132MOL    H6747489   1.591   2.696   7.217  1.4130  0.6047  0.7524
  132MOL    H6847490   1.526   2.775   7.359  0.4273  3.0134  0.3433
  132MOL    H6947491   1.733   2.904   7.198 -2.4440  0.8260 -1.1882
  132MOL    H7047492   1.663   2.975   7.345 -1.4725  0.1197 -0.1565
  132MOL    H7147493   1.733   2.791   7.473 -1.7477 -0.4883 -1.3135
  132MOL    H7247494   1.780   2.687   7.338  1.5721 -0.9124  0.7478
  132MOL    H7347495   1.881   2.829   7.390 -0.3211  1.5875  0.8218
  132MOL    C7447496   1.250   2.997   7.186  0.0228 -0.5293  0.2904
  132MOL    C7547497   1.162   2.894   7.256  0.3636 -0.0624 -0.1978
  132MOL    C7647498   1.136   2.942   7.407  0.4329  0.9973 -0.2638
  132MOL    C7747499   1.043   2.847   7.486  0.4845  0.0422  0.2297
  132MOL    C7847500   1.010   2.891   7.634  1.3824 -0.0480 -0.0997
  132MOL    C7947501   0.914   2.794   7.698 -0.6722 -0.8375 -0.2057
  132MOL    H8047502   1.212   3.098   7.198  0.2931 -0.4973  0.8795
  132MOL    H8147503   1.243   2.977   7.079 -2.1979  0.0553  0.3045
  132MOL    H8247504   1.223   2.804   7.264 -0.0222 -0.4664 -1.5996
  132MOL    H8347505   1.227   2.945   7.466  0.1386 -0.1307  0.2373
  132MOL    H8447506   1.094   3.043   7.413  3.5964  2.2903  1.2162
  132MOL    H8547507   0.951   2.843   7.429  0.8603  0.6481 -0.4360
  132MOL    H8647508   1.087   2.747   7.478 -0.2205 -0.2808  0.4097
  132MOL    H8747509   0.950   2.981   7.628 -0.0179 -0.8995  0.8056
  132MOL    H8847510   1.103   2.898   7.690  0.9500  0.7647  0.5189
  132MOL    H8947511   0.903   2.819   0.077 -0.9354  0.0227 -0.4316
  132MOL    H9047512   0.816   2.799   7.651 -0.6952  0.8127 -0.0140
  132MOL    H9147513   0.954   2.693   7.700 -1.0570 -0.9980 -0.4894
  132MOL    C9247514   1.034   2.860   7.178 -0.1833 -0.1321 -0.1581
  132MOL    C9347515   1.047   2.830   7.020  0.5708 -0.6538  0.6157
  132MOL    C9447516   1.117   2.698   6.994 -0.4081 -0.0588 -0.8546
  132MOL    C9547517   1.180   2.683   6.857 -0.2571 -0.4703  0.3077
  132MOL    C9647518   1.286   2.576   6.854  0.8938  0.2843  0.3223
  132MOL    C9747519   1.357   2.564   6.718  0.2256  0.3775  0.4960
  132MOL    H9847520   0.995   2.770   7.226  1.5954 -2.0890 -2.2634
  132MOL    H9947521   0.970   2.945   7.200  1.4976  1.6810 -2.0304
  132MOL   H10047522   1.098   2.910   6.967 -0.6051 -0.6270 -0.5168
  132MOL   H10147523   1.053   2.613   7.018  2.6394 -2.4342 -0.8808
  132MOL   H10247524   1.192   2.683   7.072 -1.5127 -1.4643 -0.0167
  132MOL   H10347525   1.104   2.669   6.781 -0.4764 -0.2690  0.4887
  132MOL   H10447526   1.221   2.781   6.833 -2.8846  0.8725  1.1786
  132MOL   H10547527   1.365   2.609   6.921  1.6309 -1.2042  0.2017
  132MOL   H10647528   1.262   2.476   6.892  1.7212 -0.0281  0.0444
  132MOL   H10747529   1.410   2.658   6.703 -0.8126  1.0855  1.2745
  132MOL   H10847530   1.432   2.485   6.730 -0.4427 -0.3969 -0.3070
  132MOL   H10947531   1.296   2.541   6.631  0.2712 -1.9361  1.0415
  132MOL   C11047532   0.909   2.818   6.971 -0.0825  0.1160  0.6211
  132MOL   C11147533   0.810   2.941   6.993 -0.0943  0.8218 -0.2619
  132MOL   C11247534   0.673   2.897   6.944  1.0185 -0.2297 -0.4208
  132MOL   C11347535   0.602   2.780   7.017  0.1262  0.8762 -0.3221
  132MOL   C11447536   0.473   2.741   6.958  0.0119  0.2180 -0.3171
  132MOL   C11547537   0.390   2.653   7.054  0.4646  0.3293  0.1022
  132MOL   H11647538   0.909   2.807   6.862 -2.3097  3.5448  0.2014
  132MOL   H11747539   0.857   2.731   7.010 -1.3030 -0.3990 -2.0321
  132MOL   H11847540   0.800   2.955   7.101  2.3998 -0.4035  0.1719
  132MOL   H11947541   0.679   2.872   6.838 -1.0946 -1.7198 -0.2100
  132MOL   H12047542   0.603   2.981   6.943  1.4041  0.0803 -1.9883
  132MOL   H12147543   0.589   2.801   7.123 -0.4103  3.0843 -0.8093
  132MOL   H12247544   0.660   2.687   7.013  0.7004  1.1069  1.8148
  132MOL   H12347545   0.485   2.684   6.866 -1.1841 -2.0376  0.8958
  132MOL   H12447546   0.410   2.827   6.939  0.5028  1.3907  2.9166
  132MOL   H12547547   0.440   2.560   7.079 -0.2892 -0.0870  0.0514
  132MOL   H12647548   0.367   2.709   7.145  1.2419  0.7101  0.0741
  132MOL   H12747549   0.298   2.627   7.002  0.1413  1.7160 -0.0608
  132MOL   C12847550   0.859   3.062   6.921  0.0912  0.1265  0.8718
  132MOL   C12947551   0.790   3.195   6.967  0.3259  0.4758  0.1817
  132MOL   C13047552   0.826   3.310   6.872 -0.0811  0.2531 -0.0929
  132MOL   C13147553   0.762   3.297   6.727 -0.4144  0.2528 -0.1488
  132MOL   C13247554   0.797   3.431   6.642  0.5188 -0.1710 -0.7017
  132MOL   C13347555   0.784   3.420   6.492 -0.1133  0.6109  0.0117
  132MOL   H13447556   0.835   3.047   6.816  0.3277  1.8324  0.5538
  132MOL   H13547557   0.968   3.067   6.920  0.0924  0.6815 -2.9988
  132MOL   H13647558   0.690   3.164   6.937 -1.3198  2.8169  3.0086
  132MOL   H13747559   0.788   3.401   6.918 -0.2968  0.9670 -1.6564
  132MOL   H13847560   0.934   3.314   6.866 -0.0948  0.6957 -0.0304
  132MOL   H13947561   0.654   3.290   6.723 -0.4453  0.0047  0.8866
  132MOL   H14047562   0.801   3.203   6.686  0.0772  0.0968  0.6741
  132MOL   H14147563   0.743   3.514   6.688 -2.7643 -2.7196  0.2621
  132MOL   H14247564   0.901   3.448   6.668 -0.5034  0.6589  3.2128
  132MOL   H14347565   0.858   3.351   6.453  1.4101  0.1191  3.5987
  132MOL   H14447566   0.802   3.517   6.446 -0.1808  0.9835  0.7471
  132MOL   H14547567   0.687   3.376   6.468  0.0667  0.7042 -0.8685
  132MOL   C14647568   0.811   3.222   7.116 -0.4485 -0.0790  0.1007
  132MOL   C14747569   0.685   3.254   7.205 -0.0616 -0.3769  0.1025
  132MOL   C14847570   0.626   3.393   7.178 -0.1139  0.1984  0.0556
  132MOL   C14947571   0.711   3.508   7.222 -0.3596 -0.4216  0.4771
  132MOL   C15047572   0.650   3.646   7.230 -0.1814 -0.4436  0.0123
  132MOL   C15147573   0.750   3.747   7.290  0.6223 -0.4077  0.7864
  132MOL   H15247574   0.877   3.153   7.167 -1.7010 -0.6493  1.0004
  132MOL   H15347575   0.878   3.308   7.117 -0.1240 -0.3312  0.5381
  132MOL   H15447576   0.603   3.187   7.180 -0.5106  0.2445 -0.1093
  132MOL   H15547577   0.532   3.399   7.233 -0.1366 -1.1333  0.1768
  132MOL   H15647578   0.609   3.389   7.071 -0.6500 -0.6425  0.1628
  132MOL   H15747579   0.764   3.490   7.315  2.0282 -0.4935 -0.8392
  132MOL   H15847580   0.797   3.516   7.155 -0.4656 -1.7681  0.1669
  132MOL   H15947581   0.569   3.647   7.303  1.4139  0.7471  1.8297
  132MOL   H16047582   0.620   3.679   7.131 -0.6080 -2.6084 -0.6048
  132MOL   H16147583   0.775   3.709   7.389 -0.1789 -1.5874  0.5358
  132MOL   H16247584   0.838   3.756   7.225 -0.5315 -0.2481 -0.7797
  132MOL   H16347585   0.707   3.845   7.310 -0.0855 -0.4954 -0.3001
  132MOL   C16447586   0.739   3.228   7.349 -0.0473  0.5093 -0.3345
  132MOL   C16547587   0.635   3.260   7.461 -0.2264  0.9329 -0.8514
  132MOL   C16647588   0.519   3.160   7.457  0.4208  0.4994 -0.2994
  132MOL   C16747589   0.524   3.024   7.530 -0.7990  0.0653 -0.2994
  132MOL   C16847590   0.405   2.931   7.506  0.1389 -0.1289  0.2350
  132MOL   C16947591   0.396   2.826   7.619 -0.5201 -0.1928 -0.0363
  132MOL   H17047592   0.770   3.124   7.364 -3.0378 -0.2029  1.2057
  132MOL   H17147593   0.836   3.277   7.364  0.0680 -0.0723  0.8840
  132MOL   H17247594   0.608   3.363   7.437 -0.6336  1.3872  1.4261
  132MOL   H17347595   0.495   3.129   7.355 -0.2233 -0.7640  0.2288
  132MOL   H17447596   0.433   3.216   7.492  0.5629  0.5011  0.0554
  132MOL   H17547597   0.526   3.049   7.636 -2.0158 -1.0026 -0.0122
  132MOL   H17647598   0.619   2.974   7.510 -1.3226 -0.9481 -0.2670
  132MOL   H17747599   0.424   2.889   7.407  1.0336 -0.6625  0.6273
  132MOL   H17847600   0.311   2.982   7.488  0.6752  0.7398 -0.1700
  132MOL   H17947601   0.496   2.781   7.617  0.5401  1.9215  1.6517
  132MOL   H18047602   0.324   2.747   7.601 -0.7588 -0.4925  2.0862
  132MOL   H18147603   0.380   2.862   7.721  2.0867  1.1444 -0.0395
  132MOL   C18247604   0.696   3.275   7.603  0.0585 -0.2235  0.0061
  132MOL   C18347605   0.605   3.317   7.709 -0.2323 -0.1381  0.3763
  132MOL   C18447606   0.550   3.462   7.703  0.6344  0.3790 -0.0299
  132MOL   C18547607   0.645   3.574   0.014  0.2628 -0.5068 -0.7077
  132MOL   C18647608   0.586   3.713   7.696  0.8152  0.2348 -0.4434
  132MOL   C18747609   0.686   3.826   0.013  0.0863  0.1543  0.3206
  132MOL   H18847610   0.757   3.188   7.628 -2.4278 -1.4791  1.8331
  132MOL   H18947611   0.778   3.347   7.601  2.2419 -2.6040  0.3983
  132MOL   H19047612   0.513   3.259   7.705 -0.2917 -0.0267  0.0864
  132MOL   H19147613   0.514   3.478   7.602  2.5700  0.6214 -0.7019
  132MOL   H19247614   0.459   3.469   0.035 -0.7633  2.9517 -2.3911
  132MOL   H19347615   0.737   3.554   7.686  0.6722  0.2432 -0.3016
  132MOL   H19447616   0.653   3.578   0.122 -2.0235  1.4643 -0.5386
  132MOL   H19547617   0.485   3.730   0.006  1.1043 -2.4297  1.7476
  132MOL   H19647618   0.581   3.712   7.587  2.0943 -1.7058 -0.5068
  132MOL   H19747619   0.789   3.809   7.707  0.3251 -0.3064  1.2928
  132MOL   H19847620   0.698   3.817   0.121 -1.1625 -2.2204  0.2932
  132MOL   H19947621   0.641   3.921   7.713  0.0781 -0.1613 -0.7910
  132MOL   C20047622   0.663   3.296   0.122 -0.0759 -0.4202  0.2972
  132MOL   C20147623   0.563   3.304   0.241 -0.7373 -1.5044 -0.5415
  132MOL   C20247624   0.437   3.218   0.242 -0.3017 -0.0836 -1.2044
  132MOL   C20347625   0.450   3.069   0.254  0.1369  0.1782 -0.1746
  132MOL   C20447626   0.306   3.016   0.252 -0.3927  0.2376 -0.2133
  132MOL   C20547627   0.300   2.871   0.308  0.2514  0.0024 -0.2967
  132MOL   H20647628   0.746   3.365   0.140 -0.2456  0.3109 -1.5861
  132MOL   H20747629   0.708   3.197   0.124  2.1046  0.4926 -1.4776
  132MOL   H20847630   0.523   3.405   0.241  1.2132 -0.7061  0.1627
  132MOL   H20947631   0.378   3.244   0.154 -1.1422 -0.0995 -0.6441
  132MOL   H21047632   0.375   3.263   0.319 -2.2270 -1.1072 -2.1135
  132MOL   H21147633   0.501   3.038   0.345 -1.8698 -0.8457  0.6302
  132MOL   H21247634   0.515   3.041   0.171 -0.6527 -1.7568 -0.1706
  132MOL   H21347635   0.281   3.012   0.146  1.1279  0.3828 -0.5941
  132MOL   H21447636   0.221   3.073   0.288  1.0210  1.2164  1.7208
  132MOL   H21547637   0.209   2.823   0.275 -1.0069  1.2213  1.3090
  132MOL   H21647638   0.392   2.818   0.285  1.7647  2.5047 -0.2738
  132MOL   H21747639   0.290   2.869   0.417  0.4227 -0.8980 -0.2924
  132MOL   C21847640   0.640   3.299   0.378  0.1478  0.0190 -0.5073
  132MOL   C21947641   0.677   3.442   0.438  0.4421  0.1027  0.2341
  132MOL   C22047642   0.804   3.436   0.528  0.3106  0.2971  0.2376
  132MOL   C22147643   0.810   3.329   0.639 -0.3025  0.8438  0.3764
  132MOL   C22247644   0.919   3.343   0.743  0.5760 -0.3476  0.1013
  132MOL   C22347645   1.061   3.312   0.688 -0.4992  0.6692 -0.3222
  132MOL   H22447646   0.585   3.242   0.453 -0.0982  1.1666  0.1915
  132MOL   H22547647   0.729   3.239   0.359  0.5830  0.0176  1.3939
  132MOL   H22647648   0.697   3.516   0.361  0.6551  0.4573  0.6267
  132MOL   H22747649   0.819   3.536   0.569 -0.0016  0.0077  1.0636
  132MOL   H22847650   0.896   3.419   0.472  0.6463  0.8040  0.6330
  132MOL   H22947651   0.821   3.234   0.586 -0.5415  2.0587 -1.8794
  132MOL   H23047652   0.717   3.335   0.695 -0.1319 -1.9097  1.0309
  132MOL   H23147653   0.928   3.450   0.761  0.6794  0.2274 -2.9892
  132MOL   H23247654   0.905   3.284   0.833 -0.1687 -0.3451 -0.0129
  132MOL   H23347655   1.069   3.388   0.610  0.8674  0.1388 -0.7118
  132MOL   H23447656   1.071   3.213   0.645  0.8277  0.2742  0.8417
  132MOL   H23547657   1.140   3.316   0.763 -0.8142 -0.8474  0.0996
  132MOL   C23647658   0.555   3.498   0.512  0.1982  0.0540  0.1952
  132MOL   C23747659   0.553   3.637   0.583  0.2412  0.0662 -0.9679
  132MOL   C23847660   0.612   3.752   0.491 -0.8041 -0.1405 -0.0378
  132MOL   C23947661   0.566   3.895   0.527 -0.5873 -0.4003  0.2313
  132MOL   C24047662   0.631   4.001   0.438 -0.2190 -0.7029  0.6445
  132MOL   C24147663   0.563   4.141   0.440 -0.5741  0.2559  0.2048
  132MOL   H24247664   0.478   3.510   0.436 -0.0271  0.4587  0.4796
  132MOL   H24347665   0.516   3.425   0.583 -1.6401 -1.0378 -1.8704
  132MOL   H24447666   0.446   3.654   0.580  0.2140 -0.3190 -3.0389
  132MOL   H24547667   0.720   3.754   0.496 -0.7405 -0.2316 -1.2274
  132MOL   H24647668   0.594   3.724   0.387  1.9063  1.8164 -1.0707
  132MOL   H24747669   0.564   3.921   0.633 -0.3128  3.1940 -0.5654
  132MOL   H24847670   0.462   3.896   0.492 -0.0239  1.6535 -1.5485
  132MOL   H24947671   0.737   4.005   0.463 -0.4677  0.6945  1.5319
  132MOL   H25047672   0.618   3.956   0.339 -1.7437 -2.3207  1.5575
  132MOL   H25147673   0.581   4.184   0.538 -2.7952  2.0087 -0.0996
  132MOL   H25247674   0.615   4.217   0.381  0.4787 -0.2703  0.4430
  132MOL   H25347675   0.458   4.136   0.412 -0.5057  0.4091 -0.0888
  132MOL   C25447676   0.608   3.639   0.730 -0.9859  0.2427  0.0624
  132MOL   C25547677   0.533   3.549   0.830  0.1778 -0.0445  0.7510
  132MOL   C25647678   0.390   3.612   0.856  0.1488 -0.2754  0.1314
  132MOL   C25747679   0.273   3.517   0.871 -0.2125  0.6368 -0.2897
  132MOL   C25847680   0.149   3.584   0.935  0.3476 -0.1241  0.4534
  132MOL   C25947681   0.140   3.590   1.088 -0.1052 -0.1869 -0.5454
  132MOL   H26047682   0.622   3.737   0.776  0.6346  0.8878 -1.7410
  132MOL   H26147683   0.710   3.602   0.718 -0.6830  0.9805  0.3616
  132MOL   H26247684   0.522   3.443   0.806 -3.4702  0.1914  1.1160
  132MOL   H26347685   0.396   3.682   0.939 -3.8063 -1.4406  1.5047
  132MOL   H26447686   0.355   3.677   0.776 -1.3177 -0.1799  0.8455
  132MOL   H26547687   0.249   3.483   0.770  2.2518  2.0919 -1.4154
  132MOL   H26647688   0.308   3.431   0.929  3.2803  0.9389 -1.8354
  132MOL   H26747689   0.061   3.523   0.914 -0.1812 -0.5340  3.5619
  132MOL   H26847690   0.132   3.676   0.880  0.9285 -1.0043 -1.2288
  132MOL   H26947691   0.065   3.665   1.114 -2.0711 -2.2517 -0.0860
  132MOL   H27047692   0.235   3.619   1.133 -0.1164  1.1618 -1.3356
  132MOL   H27147693   0.102   3.501   1.136 -1.5754  1.1358  0.8105
  132MOL   C27247694   0.630   3.544   0.958  0.5592 -0.2096  0.1102
  132MOL   C27347695   0.591   3.437   1.063  0.4761  0.7066 -0.5649
  132MOL   C27447696   0.622   3.486   1.202 -0.7849  0.0661  0.4665
  132MOL   C27547697   0.528   3.594   1.255  0.0074 -0.5471 -0.5172
  132MOL   C27647698   0.539   3.631   1.405 -0.6700 -0.0877  0.6559
  132MOL   C27747699   0.453   3.754   1.436  0.9114 -0.2764 -0.0473
  132MOL   H27847700   0.732   3.540   0.919  1.0328  0.3658  1.2875
  132MOL   H27947701   0.640   3.646   0.995  0.7054  0.6925 -2.2667
  132MOL   H28047702   0.483   3.428   1.057  0.7048 -0.7846 -3.1394
  132MOL   H28147703   0.726   3.516   1.209 -0.3992 -0.7061 -1.5323
  132MOL   H28247704   0.623   3.406   1.276  0.5362 -1.7547 -1.4623
  132MOL   H28347705   0.424   3.572   1.232 -0.4453  0.1987  0.7497
  132MOL   H28447706   0.559   3.679   1.193 -0.4861  0.3208  0.4079
  132MOL   H28547707   0.510   3.546   1.467 -2.7467  0.3322  0.2981
  132MOL   H28647708   0.643   3.662   1.420  0.1421 -1.3935 -2.0315
  132MOL   H28747709   0.346   3.740   1.425  0.4120  1.9215  1.5764
  132MOL   H28847710   0.464   3.784   1.541  2.2672 -0.3431 -0.1640
  132MOL   H28947711   0.469   3.832   1.362  1.9504  0.8177  1.2902
  132MOL   C29047712   0.658   3.301   1.030  0.4486  0.0853  0.3538
  132MOL   C29147713   0.644   3.182   1.133  0.3128 -0.5251 -0.8379
  132MOL   C29247714   0.499   3.141   1.171  0.0893 -0.3493 -1.1337
  132MOL   C29347715   0.405   3.126   1.051 -0.1093  0.3486  0.7029
  132MOL   C29447716   0.260   3.068   1.082 -0.2537  0.0953  0.2206
  132MOL   C29547717   0.188   3.145   1.200 -0.1242 -0.1600  0.1729
  132MOL   H29647718   0.764   3.305   1.006  0.2220 -0.5275 -0.7358
  132MOL   H29747719   0.615   3.266   0.937 -1.4861  3.0460  0.0324
  132MOL   H29847720   0.692   3.219   1.224 -1.2562  0.8058 -0.5242
  132MOL   H29947721   0.473   3.227   1.233 -0.9627  0.3411 -2.5177
  132MOL   H30047722   0.493   3.059   1.242  4.8165  1.2159  1.2780
  132MOL   H30147723   0.403   3.210   0.982  2.5757 -0.1621 -0.0565
  132MOL   H30247724   0.454   3.052   0.987 -1.5929  1.2217 -1.4978
  132MOL   H30347725   0.280   2.969   1.121 -0.4368 -0.3025 -0.6915
  132MOL   H30447726   0.192   3.066   0.996 -0.4395  2.3499  0.2769
  132MOL   H30547727   0.245   3.111   1.286  0.5584 -0.0186 -0.2196
  132MOL   H30647728   0.082   3.127   1.215 -0.3590  1.7932  0.9826
  132MOL   H30747729   0.211   3.251   1.196  1.8468 -0.6069 -1.1745
  132MOL   C30847730   0.729   3.055   1.090 -0.1545 -0.8103  0.4039
  132MOL   C30947731   0.882   3.059   1.105 -0.1595 -0.0371  0.0075
  132MOL   C31047732   0.934   2.935   1.019  0.0727  0.2740 -0.0942
  132MOL   C31147733   1.083   2.935   1.010  0.8344 -0.5966 -0.0245
  132MOL   C31247734   1.125   2.848   0.890 -0.6450 -0.6903  0.4951
  132MOL   C31347735   1.265   2.901   0.835 -0.8019  0.2459  0.0393
  132MOL   H31447736   0.696   2.968   1.147 -0.4295 -0.6973  0.4182
  132MOL   H31547737   0.702   3.018   0.991  2.7565 -1.6610 -0.1164
  132MOL   H31647738   0.924   3.152   1.066  1.5352  0.1386  2.1389
  132MOL   H31747739   0.890   2.931   0.920 -1.4270 -0.5920  0.5859
  132MOL   H31847740   0.890   2.848   1.069  0.9529 -0.7555 -1.0902
  132MOL   H31947741   1.134   2.900   1.100  0.2361 -1.2606  0.0561
  132MOL   H32047742   1.123   3.034   0.986  2.2774 -0.8120  1.4006
  132MOL   H32147743   1.135   2.750   0.936  2.2416 -0.1777  1.0511
  132MOL   H32247744   1.050   2.841   0.810  1.4492 -0.0683 -1.5783
  132MOL   H32347745   1.287   2.837   0.749  0.7173  0.9918 -0.1388
  132MOL   H32447746   1.330   2.893   0.922 -2.1995  0.5854  1.1347
  132MOL   H32547747   1.256   3.002   0.796  0.7712  0.8608  1.2674
  132MOL   C32647748   0.926   3.057   1.250 -0.2452  0.4256  0.0918
  132MOL   C32747749   0.973   3.192   1.306  0.2017 -0.0006 -0.3529
  132MOL   C32847750   0.975   3.180   1.456 -0.0143  0.0311 -0.9329
  132MOL   C32947751   0.981   3.322   1.529  0.2344 -0.0481  0.3416
  132MOL   C33047752   0.933   3.316   1.673 -0.1101  0.1395  0.1080
  132MOL   C33147753   0.900   3.454   1.730 -0.5388 -0.2043 -0.1640
  132MOL   H33247754   1.006   2.988   1.275 -1.5503 -0.3306  2.3170
  132MOL   H33347755   0.846   3.016   1.311  0.4283 -1.6130 -0.3795
  132MOL   H33447756   0.897   3.266   1.280  0.1346 -0.5841 -1.8803
  132MOL   H33547757   0.878   3.145   1.493 -0.3361  0.6898 -1.1480
  132MOL   H33647758   1.045   3.105   1.492 -1.3794 -0.6634  0.3546
  132MOL   H33747759   0.909   3.380   1.471  1.7806  2.3037  0.7185
  132MOL   H33847760   1.078   3.369   1.513 -0.2228  0.3287 -1.4631
  132MOL   H33947761   0.849   3.248   1.685 -1.0010  1.3700  0.8590
  132MOL   H34047762   1.018   3.268   1.722 -0.1866 -0.0138  0.0919
  132MOL   H34147763   0.981   3.527   1.734  0.7312 -1.6645  1.5858
  132MOL   H34247764   0.873   3.445   1.835 -0.7844  2.1859  0.0122
  132MOL   H34347765   0.813   3.495   1.680 -0.2867  0.6821  0.0944
  132MOL   C34447766   1.100   3.251   1.245  0.5197  0.1508 -0.4421
  132MOL   C34547767   1.223   3.171   1.278 -0.6903  0.6540 -0.0854
  132MOL   C34647768   1.361   3.239   1.242 -0.2301 -1.0241 -0.3426
  132MOL   C34747769   1.382   3.249   1.095 -0.7130  0.0908  0.3765
  132MOL   C34847770   1.526   3.286   1.062  0.0982 -0.4966 -0.5887
  132MOL   C34947771   1.558   3.239   0.921  0.7914 -1.3178 -0.3956
  132MOL   H35047772   1.081   3.270   1.140  0.2275  1.0781 -0.2246
  132MOL   H35147773   1.111   3.346   1.297  0.5207  0.7656 -1.5570
  132MOL   H35247774   1.215   3.071   1.235  1.1910  0.6463 -0.4628
  132MOL   H35347775   1.366   3.341   1.280 -2.0308  0.2614 -3.3715
  132MOL   H35447776   1.447   3.185   1.281  1.6488  2.5142  0.5962
  132MOL   H35547777   1.357   3.154   1.050 -0.7508  0.5354 -0.5586
  132MOL   H35647778   1.310   3.310   1.040 -0.8687 -2.1384 -1.9571
  132MOL   H35747779   1.541   3.393   1.078 -2.3429 -0.2868  0.4018
  132MOL   H35847780   1.606   3.245   1.124 -0.3269  0.3146  0.5099
  132MOL   H35947781   1.472   3.282   0.870  1.1348 -0.0830  0.0217
  132MOL   H36047782   1.660   3.271   0.899 -0.0304  1.8443  0.0915
  132MOL   H36147783   1.546   3.131   0.923  2.6849 -1.5327  0.7899
  132MOL   H36247784   1.224   3.153   1.386  1.6905  0.4949 -0.0888
  133MOL     C147785   2.633   5.432   4.412  0.0889 -0.4330 -0.6475
  133MOL     C247786   2.551   5.386   4.538 -0.7780 -0.3182 -0.1242
  133MOL     C347787   2.512   5.230   4.551  0.2174 -0.6928 -0.1371
  133MOL     C447788   2.638   5.144   4.532  0.3217  0.4782  0.0169
  133MOL     C547789   2.621   4.994   4.567 -0.5215 -0.0410  0.1496
  133MOL     C647790   2.756   4.914   4.570  0.6493 -0.0725  0.9109
  133MOL     H747791   2.582   5.413   4.317 -1.4863  1.3873 -0.1767
  133MOL     H847792   2.661   5.537   4.419  0.3991 -0.5173 -0.6033
  133MOL     H947793   2.615   5.411   4.623  0.1667 -0.0343 -0.9161
  133MOL    H1047794   2.437   5.198   4.478 -0.4236  3.3338 -1.3832
  133MOL    H1147795   2.479   5.211   4.653 -0.1980  1.4052  0.1414
  133MOL    H1247796   2.715   5.190   4.593  0.4692 -2.2013  1.9391
  133MOL    H1347797   2.687   5.160   4.435 -0.3659  0.7394 -0.2877
  133MOL    H1447798   2.583   4.999   4.669  1.8934 -0.6576  1.1095
  133MOL    H1547799   2.551   4.953   4.493 -2.1214  1.7733  0.5957
  133MOL    H1647800   2.748   4.814   4.613 -0.0257 -0.7849 -0.8622
  133MOL    H1747801   2.818   4.971   4.639 -0.7903  0.9744  1.3459
  133MOL    H1847802   2.807   4.916   4.474  0.2378  1.3960  0.7152
  133MOL    H1947803   2.730   5.381   4.407  0.5305  0.5319 -2.7202
  133MOL    C2047804   2.431   5.481   4.552  0.4320 -0.7068 -0.5562
  133MOL    C2147805   2.391   5.534   4.699  0.2924  0.1805  0.9678
  133MOL    C2247806   2.482   5.649   4.739 -0.4995 -0.1014 -0.4426
  133MOL    C2347807   2.476   5.694   4.893 -0.9736 -0.0984  0.3908
  133MOL    C2447808   2.474   5.573   4.988 -0.2194  0.3342 -0.5803
  133MOL    C2547809   2.611   5.492   4.978  0.2738  0.0396 -0.0957
  133MOL    H2647810   2.344   5.427   4.516  0.3014 -1.5227  0.9530
  133MOL    H2747811   2.441   5.566   4.486  2.0539  0.2478  0.8736
  133MOL    H2847812   2.408   5.452   4.768 -0.9458 -1.9148 -1.1270
  133MOL    H2947813   2.464   5.741   4.684 -0.0059  0.0445 -0.3619
  133MOL    H3047814   2.584   5.616   4.718  0.5048  1.7914  1.3249
  133MOL    H3147815   2.388   5.759   4.896 -1.1745 -0.3397 -0.3038
  133MOL    H3247816   2.557   5.762   4.918 -1.7194  0.2515  1.9356
  133MOL    H3347817   2.452   5.614   5.087 -4.1866 -3.4242  0.2598
  133MOL    H3447818   2.384   5.511   4.985 -0.7343  0.9806  0.9553
  133MOL    H3547819   2.618   5.419   5.060  2.1987  2.3369  1.8412
  133MOL    H3647820   2.602   5.433   4.887  1.3830 -1.2458  0.6065
  133MOL    H3747821   2.692   5.563   4.966  2.9879 -2.7988  0.7709
  133MOL    C3847822   2.241   5.577   4.705  0.1142  0.8301 -0.1446
  133MOL    C3947823   2.135   5.469   4.691 -0.6254  0.3351  0.0819
  133MOL    C4047824   2.159   5.357   4.797 -0.0678  0.1530 -0.3725
  133MOL    C4147825   2.058   5.250   4.820 -0.0884 -0.9090 -0.1556
  133MOL    C4247826   2.105   5.131   4.904  0.9311 -0.0239 -0.2700
  133MOL    C4347827   1.994   5.036   4.938  0.7027 -0.2423 -0.6987
  133MOL    H4447828   2.217   5.661   4.641 -2.6927 -1.2058 -1.9070
  133MOL    H4547829   2.229   5.623   4.803  0.6703 -0.5647  0.5960
  133MOL    H4647830   2.137   5.423   4.592  1.0850 -1.2727  0.8361
  133MOL    H4747831   2.257   5.312   4.780  1.1587  2.7159 -0.2839
  133MOL    H4847832   2.178   5.411   4.889  1.7186 -0.8597 -0.1283
  133MOL    H4947833   1.963   5.287   4.857 -1.3432 -2.1533 -2.0440
  133MOL    H5047834   2.027   5.210   4.723  1.2733 -0.2564 -0.8737
  133MOL    H5147835   2.185   5.075   4.857  1.4349  0.9870 -0.6215
  133MOL    H5247836   2.149   5.163   4.999  0.0103 -1.9888  0.8675
  133MOL    H5347837   1.968   4.985   4.845 -2.0807  0.0990 -0.1588
  133MOL    H5447838   1.907   5.081   4.986  1.5252 -1.4901  2.0404
  133MOL    H5547839   2.034   4.952   4.996  0.7242  0.8403  0.8834
  133MOL    C5647840   1.996   5.536   4.704  0.3649 -0.2689  0.3835
  133MOL    C5747841   1.902   5.531   4.576  0.1013  1.1613  0.5567
  133MOL    C5847842   1.879   5.391   4.527 -0.3953 -0.6181  0.7556
  133MOL    C5947843   1.751   5.365   4.466 -0.5524  0.0359 -0.5079
  133MOL    C6047844   1.735   5.217   4.436  0.0734 -0.0778  0.9486
  133MOL    C6147845   1.684   5.144   4.556  0.0988  0.4953  0.2402
  133MOL    H6247846   1.938   5.514   4.794 -0.6166 -0.0616 -0.1868
  133MOL    H6347847   2.016   5.643   4.715 -0.6683 -0.0639  0.3023
  133MOL    H6447848   1.808   5.576   4.608 -0.0574  0.7946  0.6057
  133MOL    H6547849   1.965   5.368   4.464 -3.1406  0.2769 -3.5268
  133MOL    H6647850   1.872   5.323   4.612 -2.7221 -1.9297 -0.4512
  133MOL    H6747851   1.751   5.420   4.371  0.0117  0.4386 -0.2836
  133MOL    H6847852   1.668   5.414   4.517 -1.2948 -0.9561 -0.7505
  133MOL    H6947853   1.654   5.209   4.364  0.0122  1.4088  0.8353
  133MOL    H7047854   1.828   5.174   4.399  0.1753  0.6285  0.3607
  133MOL    H7147855   1.594   5.179   4.606 -0.1795  1.0835 -0.6535
  133MOL    H7247856   1.660   5.043   4.521 -1.9713  0.8164  0.6899
  133MOL    H7347857   1.746   5.134   4.645 -1.1023 -2.7311  0.7786
  133MOL    C7447858   1.955   5.622   4.461 -0.4345  0.0028 -0.2407
  133MOL    C7547859   1.936   5.777   4.477 -0.0540 -0.2079 -0.7194
  133MOL    C7647860   2.051   5.856   4.411 -0.3899  0.2879 -0.3426
  133MOL    C7747861   2.067   5.828   4.258 -0.2413 -0.2682  0.2080
  133MOL    C7847862   2.201   5.872   4.201 -0.4308 -0.0240 -0.3299
  133MOL    C7947863   2.295   5.754   4.206  0.4447 -0.4207 -0.1717
  133MOL    H8047864   2.062   5.603   4.449 -0.2943 -0.3359  1.4672
  133MOL    H8147865   1.914   5.590   4.365  0.2951 -2.6261  0.2769
  133MOL    H8247866   1.920   5.793   4.584 -0.6385 -0.0449 -0.8315
  133MOL    H8347867   2.047   5.962   4.438  0.7237  0.4725 -0.9007
  133MOL    H8447868   2.145   5.846   4.463 -1.2611 -0.3978  1.1154
  133MOL    H8547869   2.050   5.723   4.233  0.0486  0.1440 -1.7736
  133MOL    H8647870   1.990   5.890   4.211  0.1310 -0.4683 -0.6714
  133MOL    H8747871   2.235   5.952   4.267 -2.2346  0.3476  0.1926
  133MOL    H8847872   2.190   5.909   4.099  1.2343 -1.3709 -1.0273
  133MOL    H8947873   2.388   5.789   4.162  0.9585 -0.8377  0.5758
  133MOL    H9047874   2.319   5.722   4.307 -3.7625  0.6595  1.2672
  133MOL    H9147875   2.257   5.672   4.145 -2.1929 -0.2271  1.1371
  133MOL    C9247876   1.797   5.812   4.415  0.0254  0.4590 -0.3858
  133MOL    C9347877   1.738   5.951   4.453 -0.7737  0.1140 -0.1965
  133MOL    C9447878   1.672   6.026   4.331 -0.0219  0.0678 -0.3519
  133MOL    C9547879   1.758   6.058   4.215 -0.1195 -0.1442 -0.3338
  133MOL    C9647880   1.703   6.173   4.120 -0.5894 -0.2943 -0.5143
  133MOL    C9747881   1.554   6.158   4.086  0.8184 -0.1035 -0.2354
  133MOL    H9847882   1.816   5.796   4.309  0.1010  2.4151 -0.6717
  133MOL    H9947883   1.721   5.734   4.423 -0.0078  0.6130  0.9378
  133MOL   H10047884   1.816   6.021   4.483  0.2602  0.0534 -2.6343
  133MOL   H10147885   1.625   6.120   4.361  1.8068  1.0782 -0.5792
  133MOL   H10247886   1.588   5.966   4.298 -1.3133  0.6692  1.7345
  133MOL   H10347887   1.858   6.083   4.249 -1.0943  0.2367  2.4258
  133MOL   H10447888   1.769   5.964   4.162  1.7222  0.1797 -0.5589
  133MOL   H10547889   1.725   6.265   4.175  0.3446  0.3427 -1.9120
  133MOL   H10647890   1.761   6.178   4.027  1.3239  0.6063  0.6893
  133MOL   H10747891   1.508   6.250   4.051 -1.7434 -0.5808  1.7282
  133MOL   H10847892   1.540   6.091   4.002  0.1804 -0.9406  0.5227
  133MOL   H10947893   1.498   6.132   4.176  2.3395 -2.5754  0.0471
  133MOL   C11047894   1.644   5.930   4.572 -0.5424  0.3378  0.7728
  133MOL   C11147895   1.616   6.061   4.652 -0.3915  0.1753 -0.4504
  133MOL   C11247896   1.735   6.113   4.740 -0.1875  0.1930 -0.7735
  133MOL   C11347897   1.785   5.996   4.835  0.8240  0.2471  0.5129
  133MOL   C11447898   1.859   6.038   4.959  0.3712  0.4369 -0.4404
  133MOL   C11547899   1.985   6.124   4.935 -0.4376 -0.5110  0.0458
  133MOL   H11647900   1.552   5.879   4.543  0.3584 -0.4098 -0.8414
  133MOL   H11747901   1.676   5.853   4.642 -3.7926 -1.3749  0.4958
  133MOL   H11847902   1.589   6.144   4.587 -2.2985  1.1339  1.5221
  133MOL   H11947903   1.700   6.198   4.799  0.7286  1.4098 -1.9624
  133MOL   H12047904   1.811   6.148   4.671  0.2252 -0.1433 -0.4987
  133MOL   H12147905   1.849   5.931   4.776  0.7075  1.6936 -1.2653
  133MOL   H12247906   1.699   5.937   4.869 -0.9101  2.8501  0.8002
  133MOL   H12347907   1.882   5.941   5.003  1.2849 -0.3977 -2.6710
  133MOL   H12447908   1.804   6.096   5.034  0.3970  0.2744 -0.2965
  133MOL   H12547909   1.961   6.224   4.897 -0.5778 -0.2872  0.7194
  133MOL   H12647910   2.045   6.139   5.024 -0.3445  2.9877 -0.5471
  133MOL   H12747911   2.048   6.076   4.861  2.1428 -0.9833  2.4879
  133MOL   C12847912   1.496   6.047   4.740  0.2566 -0.1221  0.2181
  133MOL   C12947913   1.366   6.080   4.656 -0.3349 -0.4864 -0.2917
  133MOL   C13047914   1.332   6.232   4.672  0.4219  0.7047  0.2160
  133MOL   C13147915   1.244   6.295   4.563  0.3431  0.2486  0.1554
  133MOL   C13247916   1.242   6.446   4.573  0.1101  0.8321  0.1141
  133MOL   C13347917   1.154   6.511   4.462  0.4175  0.5665 -0.2331
  133MOL   H13447918   1.503   6.102   4.834  1.5015 -0.0522  0.0919
  133MOL   H13547919   1.501   5.945   4.777 -2.0172 -0.2042  0.3565
  133MOL   H13647920   1.390   6.083   4.550  2.8973  0.4989  0.4144
  133MOL   H13747921   1.280   6.239   4.767 -0.8146 -1.2045 -0.2999
  133MOL   H13847922   1.424   6.289   4.687 -0.4168  1.9497  0.6675
  133MOL   H13947923   1.144   6.257   4.587  1.0193 -0.7687  1.4018
  133MOL   H14047924   1.262   6.267   4.459 -0.7820  1.7354 -0.4544
  133MOL   H14147925   1.212   6.489   4.668 -0.3192  2.6787 -0.8157
  133MOL   H14247926   1.346   6.477   4.573  0.2211  0.5500  2.6125
  133MOL   H14347927   1.164   6.616   4.488 -1.1936  0.8181 -0.5713
  133MOL   H14447928   1.050   6.481   4.475  0.9268 -1.0040  0.3648
  133MOL   H14547929   1.189   6.498   4.360 -2.0926  1.0791 -1.2076
  133MOL   C14647930   1.235   5.996   4.694 -0.3477 -0.4201 -0.2705
  133MOL   C14747931   1.233   5.851   4.626 -0.5745 -0.3558  0.3676
  133MOL   C14847932   1.248   5.857   4.468  0.1741 -0.0947 -0.3636
  133MOL   C14947933   1.139   5.933   4.388  0.2410  0.0678  0.2815
  133MOL   C15047934   1.150   5.933   4.237  0.0067 -0.4890 -0.5384
  133MOL   C15147935   1.040   6.002   4.163  1.2179 -0.1617 -0.4062
  133MOL   H15247936   1.231   5.998   4.803  2.8753 -0.9029 -0.0859
  133MOL   H15347937   1.150   6.053   4.657 -0.7616  0.3588  1.8220
  133MOL   H15447938   1.326   5.800   4.652 -1.2483 -1.4990  0.5909
  133MOL   H15547939   1.266   5.762   4.418 -1.6200 -0.9456  0.5793
  133MOL   H15647940   1.344   5.901   4.438  0.9859  0.8868  3.4438
  133MOL   H15747941   1.041   5.890   4.409 -0.3766  0.7439 -1.1694
  133MOL   H15847942   1.129   6.036   4.421 -1.8258 -0.6800  2.0988
  133MOL   H15947943   1.167   5.833   4.198  0.4224 -0.1887 -1.1220
  133MOL   H16047944   1.241   5.989   4.215 -0.4961 -0.7391 -3.3689
  133MOL   H16147945   0.950   5.951   4.198  0.3885  0.2832 -1.8419
  133MOL   H16247946   1.027   6.109   4.185 -0.1392 -0.0396 -1.7420
  133MOL   H16347947   1.051   5.986   4.056 -1.3290  0.0614 -0.7352
  133MOL   C16447948   1.111   5.765   4.662  0.1225  0.0155  0.5515
  133MOL   C16547949   1.105   5.724   4.810  0.6853 -0.5035 -0.5453
  133MOL   C16647950   0.963   5.668   4.852 -0.4277  0.5096 -0.0584
  133MOL   C16747951   0.911   5.541   4.778 -1.0833 -0.4581 -0.6471
  133MOL   C16847952   0.777   5.495   4.834  0.6326 -0.0704  0.4884
  133MOL   C16947953   0.713   5.382   4.760  0.7715 -0.0360  0.1441
  133MOL   H17047954   1.018   5.812   4.632  0.4901  0.5096  0.1893
  133MOL   H17147955   1.118   5.681   4.592 -0.8002  0.3372  0.0646
  133MOL   H17247956   1.115   5.815   4.869  1.7480  0.4361 -2.1298
  133MOL   H17347957   0.884   5.742   4.854 -0.6821  0.2620 -0.7748
  133MOL   H17447958   0.958   5.654   4.960  4.0956 -1.1302  0.0732
  133MOL   H17547959   0.980   5.457   4.785 -2.0906 -1.1427  1.3961
  133MOL   H17647960   0.890   5.570   4.674 -1.8698  2.8587  0.3702
  133MOL   H17747961   0.703   5.575   4.835  0.1984 -0.4595  0.2687
  133MOL   H17847962   0.791   5.469   4.938 -0.6771 -2.7328  0.0612
  133MOL   H17947963   0.787   5.304   4.739  0.2260 -0.3762 -0.5557
  133MOL   H18047964   0.672   5.408   4.662  0.4680  1.3945  0.6406
  133MOL   H18147965   0.625   5.345   4.812  1.0217 -1.1721 -0.2297
  133MOL   C18247966   1.209   5.616   4.839  0.3394 -0.6721  0.2719
  133MOL   C18347967   1.235   5.577   4.989 -0.2431  0.4396  0.3208
  133MOL   C18447968   1.144   5.453   5.027 -0.5949 -0.2585 -0.8933
  133MOL   C18547969   1.209   5.369   5.136  0.3743  0.1212  0.5507
  133MOL   C18647970   1.125   5.255   5.181 -0.2038  0.5029  0.0445
  133MOL   C18747971   1.191   5.174   5.298 -0.4103  0.2173 -0.1756
  133MOL   H18847972   1.187   5.528   4.778  0.7341 -1.2728  0.9934
  133MOL   H18947973   1.304   5.653   4.801  0.2553  0.8295  1.4753
  133MOL   H19047974   1.331   5.527   4.973  0.1997  1.4431 -0.1908
  133MOL   H19147975   1.054   5.487   5.079 -0.4837  0.1596 -0.9797
  133MOL   H19247976   1.105   5.398   4.941 -2.6638 -1.1470  0.5734
  133MOL   H19347977   1.218   5.432   5.224  1.4592 -0.4123  0.8298
  133MOL   H19447978   1.313   5.348   5.113  0.6353  0.2260  1.6368
  133MOL   H19547979   1.105   5.186   5.099 -1.6620  0.1939  0.6371
  133MOL   H19647980   1.031   5.294   5.220 -1.2952 -0.0522 -1.9238
  133MOL   H19747981   1.289   5.138   5.268  0.0432  1.3932 -0.1222
  133MOL   H19847982   1.132   5.092   5.339 -1.6079  0.5680 -1.1317
  133MOL   H19947983   1.205   5.238   5.385 -2.8330 -0.4026  0.7252
  133MOL   C20047984   1.245   5.688   5.097  0.9630 -0.7673 -0.0559
  133MOL   C20147985   1.333   5.811   5.068 -0.1932  0.0983  0.6440
  133MOL   C20247986   1.269   5.949   5.124  0.3133 -0.5311 -0.4435
  133MOL   C20347987   1.361   6.071   5.096 -0.5664  0.3933 -1.0518
  133MOL   C20447988   1.272   6.196   5.071 -0.2372 -0.1158  0.4286
  133MOL   C20547989   1.365   6.320   5.076 -0.7884 -0.5011 -0.3178
  133MOL   H20647990   1.261   5.651   5.199  0.2431 -1.4713 -0.1922
  133MOL   H20747991   1.144   5.728   5.096  2.4151  3.0889  0.2941
  133MOL   H20847992   1.337   5.808   4.959  1.9906 -0.2637  0.7148
  133MOL   H20947993   1.269   5.934   5.232 -0.9359 -0.5295 -0.4416
  133MOL   H21047994   1.170   5.967   5.082 -0.6020 -0.7928  1.5588
  133MOL   H21147995   1.438   6.056   5.021  0.6543 -2.4739  0.6973
  133MOL   H21247996   1.425   6.087   5.183  1.3191 -1.4663 -2.0634
  133MOL   H21347997   1.195   6.195   5.148 -2.5259  1.7302 -1.7479
  133MOL   H21447998   1.225   6.172   4.976 -0.0313  1.0368  0.0363
  133MOL   H21547999   1.456   6.315   5.017 -0.7011 -3.5413 -0.0208
  133MOL   H21648000   1.304   6.405   5.045  0.9758  0.9436  0.0511
  133MOL   H21748001   1.395   6.339   5.179 -2.6654 -0.0705  0.1765
  133MOL   C21848002   1.480   5.794   5.102  0.3167 -0.5004  0.3200
  133MOL   C21948003   1.514   5.750   5.249 -0.3987 -0.3479 -0.3219
  133MOL   C22048004   1.620   5.850   5.308 -0.4393 -0.4370  0.2054
  133MOL   C22148005   1.763   5.840   5.251 -0.5079 -0.3747  0.0947
  133MOL   C22248006   1.850   5.960   5.290 -0.3874  0.3655 -0.1699
  133MOL   C22348007   1.909   5.963   5.435 -0.4744  0.2120 -0.7906
  133MOL   H22448008   1.523   5.718   5.037  0.3457 -0.3627  0.1793
  133MOL   H22548009   1.545   5.880   5.082  2.5808 -1.5591  2.8231
  133MOL   H22648010   1.432   5.788   5.311  1.4946  1.9040  0.8753
  133MOL   H22748011   1.632   5.858   5.416  0.7239  3.2589 -0.1404
  133MOL   H22848012   1.581   5.949   5.284  0.8976 -0.6196 -2.9654
  133MOL   H22948013   1.768   5.846   5.142 -0.3492 -1.9135 -0.0054
  133MOL   H23048014   1.804   5.740   5.267 -0.4061 -0.7176 -2.1352
  133MOL   H23148015   1.937   5.957   5.224 -1.1162  0.6174 -1.1534
  133MOL   H23248016   1.796   6.052   5.266 -1.6739 -0.1241  0.8065
  133MOL   H23348017   1.829   5.990   5.504  0.7537 -2.4253  1.7366
  133MOL   H23448018   1.988   6.038   5.434  0.4217 -0.6540  2.1262
  133MOL   H23548019   1.934   5.863   5.469  0.5194  0.9935  0.8190
  133MOL   C23648020   1.542   5.601   5.265  0.3457 -0.0542 -0.5331
  133MOL   C23748021   1.575   5.541   5.407 -0.4131 -0.2802  0.2075
  133MOL   C23848022   1.598   5.390   5.405 -0.1015 -0.4037 -0.3024
  133MOL   C23948023   1.737   5.348   5.451 -0.6835 -0.6143 -0.1974
  133MOL   C24048024   1.778   5.207   5.418  0.1028  0.0968  0.5264
  133MOL   C24148025   1.828   5.184   5.272 -0.6557 -0.2933 -0.2906
  133MOL   H24248026   1.460   5.553   5.211 -0.8861  1.8372 -0.3709
  133MOL   H24348027   1.629   5.587   5.202  0.2179  1.4710 -1.0675
  133MOL   H24448028   1.669   5.596   5.414 -0.4529 -0.3939  1.8056
  133MOL   H24548029   1.518   5.338   5.458 -0.7835  1.8530  0.9597
  133MOL   H24648030   1.590   5.350   5.304 -0.9408 -0.4167 -0.2311
  133MOL   H24748031   1.740   5.360   5.560 -0.4485 -0.4215 -0.2245
  133MOL   H24848032   1.807   5.423   5.415 -0.6959 -0.1614  0.7007
  133MOL   H24948033   1.857   5.175   5.485  1.5302  0.5502 -0.9145
  133MOL   H25048034   1.691   5.141   5.424 -0.1353  0.4512  1.0931
  133MOL   H25148035   1.856   5.079   5.257  1.3847  0.6013 -3.3256
  133MOL   H25248036   1.761   5.220   5.194 -0.2108  1.6421  0.1946
  133MOL   H25348037   1.911   5.254   5.258  0.0167 -0.7501  1.3050
  133MOL   C25448038   1.473   5.581   5.515  0.0013  0.4197  0.0528
  133MOL   C25548039   1.515   5.546   5.665  0.0990  0.8538  0.6506
  133MOL   C25648040   1.392   5.543   5.760 -0.0804  0.2571 -0.5052
  133MOL   C25748041   1.276   5.441   5.738 -0.0539 -0.4217  0.0103
  133MOL   C25848042   1.165   5.445   5.844 -0.5118 -0.5112  0.6320
  133MOL   C25948043   1.043   5.340   5.836  0.0248 -0.2426  0.7693
  133MOL   H26048044   1.385   5.531   5.475  0.4305  0.4644 -0.9924
  133MOL   H26148045   1.459   5.688   5.523  0.4303  0.4341  0.6265
  133MOL   H26248046   1.533   5.439   5.677 -0.4468  0.9351  2.3586
  133MOL   H26348047   1.410   5.534   5.867 -0.4646  1.2118 -0.3553
  133MOL   H26448048   1.347   5.642   5.764 -3.7984 -1.3544  0.0521
  133MOL   H26548049   1.236   5.442   5.637 -1.9780  0.3175  0.7561
  133MOL   H26648050   1.308   5.337   5.745  0.9259 -0.0905  0.5807
  133MOL   H26748051   1.114   5.542   5.850  1.3703  0.4194  2.0174
  133MOL   H26848052   1.216   5.427   5.939  1.8092  3.0137  0.1597
  133MOL   H26948053   1.007   5.351   5.734  0.2763 -2.7113  0.3813
  133MOL   H27048054   0.972   5.375   5.910 -1.8433 -0.3577 -0.9541
  133MOL   H27148055   1.077   5.239   5.861  1.3293 -0.4479 -1.7082
  133MOL   C27248056   1.631   5.652   5.712 -0.1445  0.0242 -0.1236
  133MOL   C27348057   1.707   5.624   5.846 -0.2317  0.0647  0.1411
  133MOL   C27448058   1.779   5.747   5.902  0.3567 -0.3068 -0.5392
  133MOL   C27548059   1.875   5.817   5.807 -0.0500 -0.2346 -0.0671
  133MOL   C27648060   1.939   5.949   5.865 -0.4105 -0.1594 -0.3290
  133MOL   C27748061   1.846   6.069   5.855 -0.6151  0.5138 -0.1034
  133MOL   H27848062   1.697   5.660   5.626  0.1138  0.6254  0.1303
  133MOL   H27948063   1.602   5.757   5.719 -0.3679 -0.0241 -0.3553
  133MOL   H28048064   1.622   5.611   5.913  0.2504 -1.2616  0.5011
  133MOL   H28148065   1.833   5.720   5.992 -0.2712 -1.1555 -0.4103
  133MOL   H28248066   1.705   5.817   5.940 -0.1181 -0.9111 -0.3388
  133MOL   H28348067   1.827   5.837   5.712  0.0416 -0.9807 -0.2746
  133MOL   H28448068   1.958   5.751   5.780  0.2731  0.2667 -0.3089
  133MOL   H28548069   1.965   5.938   5.970 -0.8266 -0.5121 -0.2611
  133MOL   H28648070   2.035   5.959   5.815 -1.3722 -0.0603 -2.1981
  133MOL   H28748071   1.908   6.156   5.873  1.9288 -0.9409 -1.5488
  133MOL   H28848072   1.800   6.092   5.759 -1.2031  2.1018  0.5541
  133MOL   H28948073   1.769   6.062   5.931  0.1640  1.1234  0.7413
  133MOL   C29048074   1.797   5.496   5.838 -0.0491  0.9118 -0.2673
  133MOL   C29148075   1.823   5.427   5.977  0.8628  0.5756 -0.3511
  133MOL   C29248076   1.690   5.386   6.047 -0.4100 -0.5344 -0.0610
  133MOL   C29348077   1.601   5.301   5.960 -0.0346 -0.5832 -0.0907
  133MOL   C29448078   1.491   5.233   6.044  0.0807 -0.2010 -0.3356
  133MOL   C29548079   1.409   5.133   5.960 -0.1101  0.2593 -0.6696
  133MOL   H29648080   1.885   5.521   5.779  0.5447 -1.3305 -0.3805
  133MOL   H29748081   1.745   5.424   5.775  1.1703 -0.5375  0.3635
  133MOL   H29848082   1.873   5.499   6.043 -2.2029  1.9333  0.5592
  133MOL   H29948083   1.638   5.479   6.073 -1.5979 -1.0038 -0.7156
  133MOL   H30048084   1.701   5.334   6.142  0.1196  1.1171  0.8091
  133MOL   H30148085   1.550   5.349   5.876 -0.3483 -0.3066  0.2524
  133MOL   H30248086   1.652   5.212   5.924 -1.0094 -1.0494 -0.3262
  133MOL   H30348087   1.435   5.311   6.096  3.1899  1.6283  0.4106
  133MOL   H30448088   1.525   5.166   6.123  0.9580 -1.1119 -1.4883
  133MOL   H30548089   1.325   5.193   5.924  0.1924  0.6159 -0.7860
  133MOL   H30648090   1.355   5.059   6.020 -0.6826  1.1498 -0.0610
  133MOL   H30748091   1.462   5.084   5.879 -0.2898  0.5015 -0.9314
  133MOL   C30848092   1.915   5.304   5.958  0.4160  0.9545 -0.0743
  133MOL   C30948093   1.963   5.234   6.089 -0.0575  0.2646  0.4893
  133MOL   C31048094   2.050   5.330   6.182  0.0322 -0.3743  0.2909
  133MOL   C31148095   2.034   5.291   6.329  0.1978 -0.1013 -0.8700
  133MOL   C31248096   2.126   5.375   6.419 -0.1691 -0.0389  0.4197
  133MOL   C31348097   2.104   5.355   6.568  0.1184 -0.0035  0.3491
  133MOL   H31448098   1.863   5.239   5.888 -1.5136  3.2278 -0.8039
  133MOL   H31548099   2.002   5.337   5.902 -0.0101  1.3373 -0.5092
  133MOL   H31648100   1.870   5.210   6.141 -0.1863 -2.0367 -0.7396
  133MOL   H31748101   2.022   5.435   6.175  1.7387 -0.0390 -1.8212
  133MOL   H31848102   2.154   5.322   6.150  0.5654  2.0069  1.3519
  133MOL   H31948103   2.060   5.185   6.334  0.2956  0.0568  3.2724
  133MOL   H32048104   1.937   5.319   6.370  0.6828 -1.1420  1.0716
  133MOL   H32148105   2.230   5.344   6.406 -0.6439 -1.6911  0.4059
  133MOL   H32248106   2.128   5.482   6.397 -0.5351  0.3229  2.1009
  133MOL   H32348107   2.108   5.250   6.599  1.0686  0.7096  2.7683
  133MOL   H32448108   2.021   5.412   6.609 -0.6687 -0.1806 -0.9756
  133MOL   H32548109   2.194   5.389   6.618 -0.2303  1.1784  0.1877
  133MOL   C32648110   2.036   5.101   6.040  0.1032  0.2733  0.8064
  133MOL   C32748111   2.109   5.002   6.138  0.1214 -0.0761  0.1853
  133MOL   C32848112   1.999   4.922   6.220  0.3021 -0.0266  0.2754
  133MOL   C32948113   2.055   4.843   6.340  0.5244 -0.3791 -0.3903
  133MOL   C33048114   1.936   4.781   6.421  0.1320  0.3603 -0.4832
  133MOL   C33148115   1.977   4.726   6.567  0.8816  0.0373 -0.3014
  133MOL   H33248116   2.115   5.131   5.970  1.0649  0.1042  1.8048
  133MOL   H33348117   1.970   5.029   5.992 -0.7979  1.0033  0.9435
  133MOL   H33448118   2.166   5.064   6.207 -0.0820  1.3252 -0.8836
  133MOL   H33548119   1.924   4.986   6.267 -0.0794 -2.4733  3.0884
  133MOL   H33648120   1.940   4.866   6.147 -1.6061  1.2566  0.7968
  133MOL   H33748121   2.103   4.909   6.413 -1.7796  0.1094  0.7256
  133MOL   H33848122   2.125   4.764   6.313  0.7047 -0.8107  1.2917
  133MOL   H33948123   1.857   4.854   6.434 -1.2959 -1.4416  1.3637
  133MOL   H34048124   1.894   4.705   6.355 -0.0354 -1.3591  1.5409
  133MOL   H34148125   1.899   4.662   6.610  1.9347 -0.1409  1.3718
  133MOL   H34248126   1.975   4.808   6.639 -1.1239 -1.7272  1.7381
  133MOL   H34348127   2.070   4.672   6.578  1.2277  0.8518  0.9079
  133MOL   C34448128   2.214   4.927   6.062  0.4622 -0.4661  0.0313
  133MOL   C34548129   2.161   4.812   5.968 -0.9093 -0.0955  0.3912
  133MOL   C34648130   2.263   4.695   5.957 -0.3159 -0.9162 -0.3059
  133MOL   C34748131   2.208   4.570   5.883  0.5403  0.8093  0.1793
  133MOL   C34848132   2.204   4.590   5.725  0.3251 -0.0574 -0.4682
  133MOL   C34948133   2.121   4.475   5.659 -0.2741 -0.9562 -0.2184
  133MOL   H35048134   2.275   4.997   6.004 -1.2829  0.2924 -0.9364
  133MOL   H35148135   2.278   4.883   6.138 -1.4635 -0.6968  1.5376
  133MOL   H35248136   2.140   4.849   5.868  0.0180 -0.6581 -0.0211
  133MOL   H35348137   2.348   4.732   5.900 -0.4890 -1.2844 -0.8180
  133MOL   H35448138   2.295   4.667   6.057 -1.3446 -1.6585 -0.1704
  133MOL   H35548139   2.274   4.484   5.895 -0.6478 -0.4620 -2.0386
  133MOL   H35648140   2.111   4.545   5.926  0.0793  2.1408 -0.0639
  133MOL   H35748141   2.164   4.685   5.689  1.5933  1.7094  2.6205
  133MOL   H35848142   2.306   4.588   5.687  1.1493  2.6496  1.4279
  133MOL   H35948143   2.158   4.374   5.680 -1.8704 -1.2219  1.4349
  133MOL   H36048144   2.020   4.488   5.696  0.5544 -0.2408  1.8435
  133MOL   H36148145   2.114   4.482   5.550  2.0386  0.0622 -0.3279
  133MOL   H36248146   2.076   4.762   6.013 -0.7054 -0.4790  0.3464
  134MOL     C148147   4.306   2.199   2.922  0.0351 -0.0606  0.1625
  134MOL     C248148   4.162   2.224   2.991  0.0357 -0.7936 -0.3107
  134MOL     C348149   4.047   2.205   2.894  0.0623  0.0482  0.3121
  134MOL     C448150   4.028   2.313   2.787  0.2746 -0.5855 -0.0242
  134MOL     C548151   3.937   2.273   2.672 -0.2822  0.4136 -0.5958
  134MOL     C648152   3.909   2.382   2.568 -0.8006  0.6255  0.3554
  134MOL     H748153   4.336   2.260   2.837 -1.6415 -0.1571 -0.5090
  134MOL     H848154   4.389   2.204   2.992 -0.3584 -0.6085  0.6735
  134MOL     H948155   4.160   2.145   3.067  2.2984  0.1385  0.7687
  134MOL    H1048156   3.960   2.194   2.959  1.0480 -2.3951  1.2750
  134MOL    H1148157   4.055   2.113   2.836 -0.4746 -0.6993  1.4116
  134MOL    H1248158   4.120   2.345   2.738  1.1289 -2.9890 -0.0505
  134MOL    H1348159   3.995   2.405   2.833 -0.1995  0.1173 -1.7450
  134MOL    H1448160   3.992   2.192   2.624  0.9484  0.6950  0.3290
  134MOL    H1548161   3.848   2.228   2.717 -0.2468  0.5636 -0.3813
  134MOL    H1648162   3.851   2.330   2.492  1.5594 -1.7651  0.1048
  134MOL    H1748163   3.995   2.413   2.509 -1.6347  1.3452 -0.4871
  134MOL    H1848164   3.862   2.473   2.604  0.5221  1.3526  0.2552
  134MOL    H1948165   4.313   2.095   2.888 -1.2068  0.6750 -2.5041
  134MOL    C2048166   4.157   2.360   3.061 -0.2965 -0.2114  0.0544
  134MOL    C2148167   4.247   2.390   3.185  0.0604  0.1330 -0.3070
  134MOL    C2248168   4.254   2.540   3.227  0.1694  0.1596 -0.0927
  134MOL    C2348169   4.337   2.623   3.133  0.1508  1.0348  0.2004
  134MOL    C2448170   4.295   2.769   3.121 -0.6204 -0.4229 -0.2019
  134MOL    C2548171   4.385   2.847   3.039 -0.0010  0.0728 -0.5648
  134MOL    H2648172   4.056   2.380   3.098  0.6033  1.0091  1.9765
  134MOL    H2748173   4.173   2.443   2.992  2.6828  1.5065  2.6853
  134MOL    H2848174   4.346   2.359   3.153 -0.6895 -1.4844 -1.1040
  134MOL    H2948175   4.306   2.552   3.322 -0.8184  2.5832  0.1694
  134MOL    H3048176   4.154   2.584   3.222  0.1422  0.0063 -0.9800
  134MOL    H3148177   4.337   2.584   3.031  0.4834  0.4660  0.4176
  134MOL    H3248178   4.441   2.617   3.166  1.4058  0.8720 -3.4925
  134MOL    H3348179   4.195   2.774   3.078 -0.3271 -2.9109 -1.2722
  134MOL    H3448180   4.297   2.820   3.217  2.7234  0.9629 -0.9380
  134MOL    H3548181   4.404   2.795   2.945  0.4569 -0.8610  0.0421
  134MOL    H3648182   4.360   2.953   3.031  1.9110  0.6696  1.0026
  134MOL    H3748183   4.482   2.846   3.089 -0.3143 -1.4616  0.0556
  134MOL    C3848184   4.206   2.296   3.301 -0.0104  0.8258 -0.1154
  134MOL    C3948185   4.321   2.208   3.354 -0.2476  0.3772  0.2314
  134MOL    C4048186   4.433   2.289   3.430 -0.1328 -0.0380  0.4078
  134MOL    C4148187   4.568   2.215   3.453 -0.4472  0.1496  0.2654
  134MOL    C4248188   4.681   2.302   3.500 -0.1029  0.1538 -0.3243
  134MOL    C4348189   4.810   2.224   3.494 -0.4544  0.2930 -0.2977
  134MOL    H4448190   4.132   2.221   3.274  0.7297 -0.3621  1.0875
  134MOL    H4548191   4.166   2.348   3.389  0.9690 -2.8939  2.6772
  134MOL    H4648192   4.363   2.145   3.276 -2.7155 -0.5177 -0.4069
  134MOL    H4748193   4.452   2.373   3.365 -0.2195 -0.0405  0.3781
  134MOL    H4848194   4.392   2.317   3.528 -1.0023 -0.4547  0.1728
  134MOL    H4948195   4.556   2.143   3.534  0.7409 -1.5203 -0.9964
  134MOL    H5048196   4.591   2.159   3.362 -0.6284 -0.2267  0.4499
  134MOL    H5148197   4.696   2.383   3.428  0.7403  0.6192  0.3655
  134MOL    H5248198   4.645   2.336   3.597 -0.5515  0.8391 -0.7253
  134MOL    H5348199   4.808   2.129   3.548 -0.7965  1.3669  1.5940
  134MOL    H5448200   4.886   2.286   3.541  0.5121  0.9344 -2.6058
  134MOL    H5548201   4.844   2.214   3.391 -1.2968  1.1516 -0.6689
  134MOL    C5648202   4.262   2.103   3.450 -0.3406  0.1089 -0.1688
  134MOL    C5748203   4.235   1.967   3.383 -0.0903 -0.0859  0.7400
  134MOL    C5848204   4.110   1.903   3.455  0.0310 -0.2362 -0.2603
  134MOL    C5948205   4.130   1.873   3.607 -0.0782  1.1045  0.0983
  134MOL    C6048206   4.013   1.785   3.665  0.5814 -0.2881 -0.3661
  134MOL    C6148207   4.003   1.794   3.817  0.4603 -0.5061  0.4172
  134MOL    H6248208   4.327   2.090   3.537  0.3184  2.1969 -0.3138
  134MOL    H6348209   4.167   2.134   3.494 -1.0284 -1.6880 -0.3595
  134MOL    H6448210   4.185   1.982   3.288  0.5357  0.6866  0.5220
  134MOL    H6548211   4.022   1.966   3.445  0.5055  1.1119  3.2415
  134MOL    H6648212   4.089   1.810   3.402  1.7828  0.2045 -1.7946
  134MOL    H6748213   4.132   1.967   3.663 -0.0367  0.7062  0.7694
  134MOL    H6848214   4.220   1.815   3.625  0.4275  1.7010 -0.4637
  134MOL    H6948215   3.923   1.835   3.630  0.3384 -0.3637  0.1511
  134MOL    H7048216   4.032   1.682   3.634  1.1686 -0.1984 -0.3104
  134MOL    H7148217   3.953   1.706   3.857 -1.0471 -0.5033 -1.4091
  134MOL    H7248218   4.096   1.803   3.873  0.9783 -2.2842 -0.1042
  134MOL    H7348219   3.930   1.874   3.828  1.5747  0.4673  0.7789
  134MOL    C7448220   4.360   1.880   3.359 -0.3744  0.1804  0.1805
  134MOL    C7548221   4.381   1.806   3.222  0.0452  0.1681 -0.3917
  134MOL    C7648222   4.390   1.905   3.102  0.4254 -0.0246  0.3280
  134MOL    C7748223   4.375   1.834   2.962 -0.2315 -0.1819 -1.3015
  134MOL    C7848224   4.248   1.748   2.954 -0.3953 -1.1400 -0.6657
  134MOL    C7948225   4.216   1.714   2.808 -0.0100  0.2183 -1.4862
  134MOL    H8048226   4.455   1.932   3.374  0.5233 -1.5380  0.5978
  134MOL    H8148227   4.360   1.809   3.441  1.4513 -0.7111 -0.5617
  134MOL    H8248228   4.288   1.749   3.214  1.4486 -1.8862 -3.2493
  134MOL    H8348229   4.308   1.974   3.119  1.2564  0.9456  0.4652
  134MOL    H8448230   4.482   1.964   3.109  0.7506 -0.6498  1.4978
  134MOL    H8548231   4.389   1.908   2.883  1.2738  0.9796  0.0186
  134MOL    H8648232   4.455   1.763   2.943  1.6332  0.9830  1.7493
  134MOL    H8748233   4.161   1.802   2.991  2.1704  3.0271 -0.3955
  134MOL    H8848234   4.250   1.655   3.012  1.5254 -1.3678 -1.0533
  134MOL    H8948235   4.201   1.800   2.741 -2.2886  1.9600  1.1254
  134MOL    H9048236   4.293   1.647   2.769 -0.5209 -0.5392 -1.1929
  134MOL    H9148237   4.124   1.656   2.803  0.5644 -0.9456  0.8557
  134MOL    C9248238   4.502   1.713   3.216  0.5422  0.0167 -0.3867
  134MOL    C9348239   4.547   1.637   3.346  0.2692 -0.4491 -1.0745
  134MOL    C9448240   4.443   1.541   3.411  0.0952 -1.1918  0.1805
  134MOL    C9548241   4.435   1.543   3.564 -0.5891  0.1309  0.6921
  134MOL    C9648242   4.319   1.452   3.615  0.4557  0.1819 -0.4823
  134MOL    C9748243   4.328   1.430   3.765  0.2301 -0.2015  0.3898
  134MOL    H9848244   4.482   1.641   3.137  1.7404 -0.1740 -0.5265
  134MOL    H9948245   4.580   1.775   3.172  1.6036 -0.2183  1.1057
  134MOL   H10048246   4.578   1.719   3.412  0.7352 -1.4473 -0.0415
  134MOL   H10148247   4.473   1.441   3.379  3.7610  0.2504 -1.2423
  134MOL   H10248248   4.343   1.561   3.373 -0.3019  0.8486  2.1668
  134MOL   H10348249   4.524   1.498   3.608 -0.0251  2.0555  1.5832
  134MOL   H10448250   4.423   1.641   3.611  1.3534  0.5759  0.3306
  134MOL   H10548251   4.215   1.479   3.596  0.4886  0.4623 -0.2542
  134MOL   H10648252   4.320   1.351   3.573  1.8776 -0.2477  0.5713
  134MOL   H10748253   4.429   1.419   3.805 -0.3912 -0.7678  1.8331
  134MOL   H10848254   4.293   1.512   3.827  0.0738 -1.1692  1.5912
  134MOL   H10948255   4.277   1.342   3.803  0.2955  0.5718  2.3188
  134MOL   C11048256   4.679   1.559   3.323  0.0959  0.4693  0.4376
  134MOL   C11148257   4.776   1.527   3.443 -0.0155  0.0886  0.1130
  134MOL   C11248258   4.815   1.658   3.515 -0.0454  0.5429 -0.1743
  134MOL   C11348259   4.923   1.658   3.626 -0.5269 -0.1069  0.0091
  134MOL   C11448260   4.940   1.799   3.692  0.0047  0.2902  0.1499
  134MOL   C11548261   4.817   1.851   3.762 -0.3326  1.2856  0.3693
  134MOL   H11648262   4.648   1.465   3.279  2.3130 -0.4464  0.7762
  134MOL   H11748263   4.740   1.611   3.250  0.1043  1.0187  0.8256
  134MOL   H11848264   4.727   1.468   3.521 -0.1439  0.8073  0.5862
  134MOL   H11948265   4.726   1.683   3.572  0.3247  3.0748 -0.6819
  134MOL   H12048266   4.834   1.732   3.438 -1.5399 -0.3964 -1.4783
  134MOL   H12148267   5.019   1.634   3.581 -0.4192  0.5471 -0.1098
  134MOL   H12248268   4.901   1.589   3.708 -0.5355 -1.8333 -1.4270
  134MOL   H12348269   4.949   1.881   3.620  1.0830 -1.1205 -1.3711
  134MOL   H12448270   5.025   1.809   3.760 -0.3769 -1.2824  0.8829
  134MOL   H12548271   4.836   1.953   3.796  2.1801  0.8656  0.3132
  134MOL   H12648272   4.738   1.863   3.687 -1.4907 -2.1318  0.9937
  134MOL   H12748273   4.781   1.776   3.832 -0.1903 -1.1500 -2.1313
  134MOL   C12848274   4.903   1.462   3.383 -0.3656 -0.2758 -0.0881
  134MOL   C12948275   4.889   1.317   3.332 -0.6014 -0.4331 -0.1400
  134MOL   C13048276   4.859   1.221   3.457 -0.0576 -0.2743 -0.2223
  134MOL   C13148277   4.711   1.175   3.476  0.1506 -0.6054  0.3292
  134MOL   C13248278   4.679   1.104   3.605  0.0147 -0.0314 -0.6600
  134MOL   C13348279   4.649   1.200   3.724  0.4904 -0.2711 -0.0227
  134MOL   H13448280   4.982   1.453   3.458 -0.2846  0.7121 -0.0590
  134MOL   H13548281   4.957   1.527   3.315  0.6292 -1.3034 -0.2882
  134MOL   H13648282   4.796   1.310   3.276 -1.2389  1.2881  0.6771
  134MOL   H13748283   4.925   1.136   3.442 -0.6312 -0.9478  0.9556
  134MOL   H13848284   4.901   1.270   3.546  1.3254 -1.6375 -0.1065
  134MOL   H13948285   4.684   1.108   3.395 -3.3685  1.0574  0.0400
  134MOL   H14048286   4.644   1.260   3.463 -0.3692 -1.3475 -2.1135
  134MOL   H14148287   4.597   1.033   3.589  2.1930 -3.0101  0.9175
  134MOL   H14248288   4.763   1.041   3.633 -0.7853 -0.0777  1.7460
  134MOL   H14348289   4.549   1.240   3.707  0.5143  0.2952  1.1512
  134MOL   H14448290   4.713   1.288   3.725 -0.4847  0.4585 -0.1041
  134MOL   H14548291   4.638   1.138   3.813 -0.0248 -1.4537 -0.8931
  134MOL   C14648292   5.003   1.266   3.236 -0.2922 -0.4410 -0.2931
  134MOL   C14748293   4.998   1.336   3.103 -0.5961  0.0999 -0.0057
  134MOL   C14848294   4.893   1.265   3.013  0.2313  0.4347  0.8431
  134MOL   C14948295   4.938   1.132   2.956 -0.2205 -0.1903  0.3454
  134MOL   C15048296   4.819   1.060   2.902  0.0494 -0.5488 -0.2052
  134MOL   C15148297   4.850   0.924   2.834  0.2845  0.1028 -0.3426
  134MOL   H15248298   5.099   1.279   3.286  0.1661 -0.4217 -1.1804
  134MOL   H15348299   4.983   1.159   3.226  0.7188 -0.4313 -2.7749
  134MOL   H15448300   4.961   1.436   3.127 -0.7341 -0.2283  1.1791
  134MOL   H15548301   4.874   1.332   2.929 -0.2308  0.0491  0.6381
  134MOL   H15648302   4.796   1.270   3.062  0.1444  0.7233  0.6487
  134MOL   H15748303   5.012   1.154   2.879  1.3479 -0.9295  1.6125
  134MOL   H15848304   4.987   1.065   3.027 -1.6845 -1.2269  0.4077
  134MOL   H15948305   4.766   1.124   2.831  0.5783  0.2073  0.0784
  134MOL   H16048306   4.754   1.044   2.987  0.4114 -0.8740  0.0113
  134MOL   H16148307   4.752   0.882   2.813  1.5087 -2.5315 -1.0189
  134MOL   H16248308   4.896   0.959   2.742 -1.6742  2.4446 -0.4777
  134MOL   H16348309   4.909   0.850   2.888  2.6070  0.3206 -2.4957
  134MOL   C16448310   5.142   1.345   3.043  0.0513  0.1508 -0.0789
  134MOL   C16548311   5.151   1.405   2.904  0.1978 -0.5962 -0.5746
  134MOL   C16648312   5.109   1.555   2.913  0.1839 -0.1431 -0.2732
  134MOL   C16748313   5.067   1.622   2.780 -0.1002  0.2170 -0.9031
  134MOL   C16848314   5.162   1.740   2.746  0.5116 -0.1840 -0.0611
  134MOL   C16948315   5.121   1.793   2.609 -0.5334 -0.1129 -0.8007
  134MOL   H17048316   5.197   1.410   3.111 -0.0481  2.0438 -1.7526
  134MOL   H17148317   5.202   1.255   3.033  0.6581  0.5538 -0.0924
  134MOL   H17248318   5.070   1.366   2.843 -0.4322 -0.9182  0.4496
  134MOL   H17348319   5.183   1.609   2.971 -1.3367 -1.7744  3.3003
  134MOL   H17448320   5.017   1.566   2.971  0.4439 -0.7014  0.2507
  134MOL   H17548321   4.959   1.641   2.778 -0.8643 -2.7360  3.3009
  134MOL   H17648322   5.070   1.555   2.694 -1.0740 -2.7431  1.2933
  134MOL   H17748323   5.267   1.713   2.744  0.3560 -0.7125 -2.5498
  134MOL   H17848324   5.146   1.817   2.822 -2.3489 -0.0907 -0.6762
  134MOL   H17948325   5.147   1.708   2.546  1.1637  1.1678 -1.8592
  134MOL   H18048326   5.183   1.877   2.578 -0.6026 -0.0216 -0.6957
  134MOL   H18148327   5.014   1.812   2.598 -0.7173  0.7241  2.0715
  134MOL   C18248328   5.284   1.388   2.833  0.2722 -0.7346 -0.5729
  134MOL   C18348329   5.300   1.278   2.726  0.7976  0.3838 -0.2238
  134MOL   C18448330   5.315   1.126   2.780  0.2471 -0.4471  0.1071
  134MOL   C18548331   5.279   1.024   2.667 -0.3746 -0.1980 -0.4797
  134MOL   C18648332   5.261   0.891   2.734  0.4970  0.1195  0.3601
  134MOL   C18748333   5.175   0.795   2.648 -0.3904  0.5782  0.3804
  134MOL   H18848334   5.301   1.486   2.790 -3.2104  0.7586  1.2646
  134MOL   H18948335   5.358   1.382   2.913  1.0918 -0.0024 -1.2658
  134MOL   H19048336   5.206   1.283   2.671 -0.7879 -2.8226  1.9936
  134MOL   H19148337   5.417   1.114   2.814 -0.0013  0.9555  1.3481
  134MOL   H19248338   5.251   1.103   2.865  1.2525 -0.5058  0.8478
  134MOL   H19348339   5.349   1.024   2.584  1.0900 -2.5743  0.7254
  134MOL   H19448340   5.184   1.057   2.624 -2.4969 -1.5505  3.0279
  134MOL   H19548341   5.234   0.892   2.839 -2.6361  1.3815 -0.4130
  134MOL   H19648342   5.366   0.863   2.729  1.3632  3.3415 -1.5095
  134MOL   H19748343   5.090   0.857   2.618 -1.4277 -1.5744 -1.2013
  134MOL   H19848344   5.129   0.713   2.703 -2.5316  0.6967 -1.1817
  134MOL   H19948345   5.231   0.749   2.566 -0.8075 -1.1592  1.0518
  134MOL   C20048346   5.413   1.305   2.627  0.0495  0.5631  0.1956
  134MOL   C20148347   5.374   1.402   2.512 -0.1969  0.1762 -0.1303
  134MOL   C20248348   5.496   1.481   2.462  0.3632 -0.5573 -0.3644
  134MOL   C20348349   5.551   1.589   2.561 -0.3934  0.3873  0.1268
  134MOL   C20448350   5.672   1.664   2.491  0.2131 -0.0401 -0.6952
  134MOL   C20548351   5.618   1.753   2.385 -0.2162 -0.5196  0.0943
  134MOL   H20648352   5.450   1.220   2.571  0.7090  1.1189 -0.2226
  134MOL   H20748353   5.501   1.327   2.687 -0.5101  2.2476  0.4300
  134MOL   H20848354   5.297   1.471   2.546 -0.3519 -0.0774  0.0323
  134MOL   H20948355   5.455   1.533   2.375 -1.8732  1.5610  1.8682
  134MOL   H21048356   5.581   1.416   2.446  1.1155  0.1896  0.5573
  134MOL   H21148357   5.595   1.553   2.654  1.1258  2.8594  0.4181
  134MOL   H21248358   5.473   1.660   2.588  0.0031  0.1167  2.0725
  134MOL   H21348359   5.746   1.597   2.447 -0.2285  0.1862 -1.7904
  134MOL   H21448360   5.730   1.732   2.554 -1.1324 -0.0129  0.5192
  134MOL   H21548361   5.686   1.832   2.352  1.5048 -1.9162  0.2074
  134MOL   H21648362   5.584   1.689   2.304  1.7883 -1.5001  0.0054
  134MOL   H21748363   5.531   1.804   2.426 -0.7998 -0.6698 -0.9368
  134MOL   C21848364   5.306   1.324   2.392 -0.1387  0.1571  0.5078
  134MOL   C21948365   5.219   1.400   2.291  0.6865 -0.4473 -0.0620
  134MOL   C22048366   5.087   1.450   2.350  0.3036  0.6034 -0.1421
  134MOL   C22148367   4.992   1.343   2.420  0.2591 -0.1910 -0.5433
  134MOL   C22248368   4.849   1.407   2.447 -0.1748  0.1402  0.3628
  134MOL   C22348369   4.756   1.327   2.526 -0.3679  0.4561  0.7923
  134MOL   H22448370   5.386   1.277   2.336 -1.3556  0.4797 -1.5657
  134MOL   H22548371   5.250   1.238   2.430 -0.8236 -0.1998 -1.2463
  134MOL   H22648372   5.273   1.488   2.256  1.5566 -0.7946  0.3918
  134MOL   H22748373   5.040   1.499   2.265  0.9001 -0.2474 -0.9633
  134MOL   H22848374   5.103   1.531   2.422  1.5790  0.6507 -0.4631
  134MOL   H22948375   5.023   1.297   2.514 -0.4632  0.6041  0.1010
  134MOL   H23048376   4.988   1.257   2.354 -0.3507  0.5860 -1.5231
  134MOL   H23148377   4.869   1.502   2.495  0.6185  0.7803 -1.1906
  134MOL   H23248378   4.806   1.436   2.351 -1.5473 -0.5856  0.7396
  134MOL   H23348379   4.648   1.328   2.513 -0.5664  4.8653  2.0487
  134MOL   H23448380   4.777   1.334   2.633  1.2128  1.6779  0.4083
  134MOL   H23548381   4.789   1.225   2.507  3.6582  1.4657  1.8364
  134MOL   C23648382   5.197   1.317   2.160 -0.1392  0.4583  0.4902
  134MOL   C23748383   5.275   1.382   2.041  1.0824 -0.0430  0.0661
  134MOL   C23848384   5.234   1.314   1.908  0.0707  0.0720  0.5237
  134MOL   C23948385   5.266   1.168   1.878  0.4319  0.3985  1.0452
  134MOL   C24048386   5.211   1.124   1.739  0.0701 -0.1564  0.2113
  134MOL   C24148387   5.226   0.970   1.708 -0.0005  0.4712 -0.2324
  134MOL   H24248388   5.214   1.211   2.173 -1.8776  0.3071  1.8639
  134MOL   H24348389   5.092   1.320   2.129 -0.0827 -0.2064  0.2349
  134MOL   H24448390   5.246   1.487   2.039  3.8069  0.7397 -1.0175
  134MOL   H24548391   5.126   1.328   1.905  0.0921  0.6147  1.7160
  134MOL   H24648392   5.266   1.379   1.826  0.3261  0.5040  0.9608
  134MOL   H24748393   5.222   1.104   1.954 -0.0445 -1.0041 -0.3779
  134MOL   H24848394   5.374   1.151   1.877  0.1949 -1.2215  1.3888
  134MOL   H24948395   5.106   1.152   1.743  0.1663  0.0834  1.0795
  134MOL   H25048396   5.245   1.177   1.650 -0.5318 -2.1620 -1.2687
  134MOL   H25148397   5.325   0.937   1.741  0.7613  0.7503 -2.1401
  134MOL   H25248398   5.154   0.912   1.766 -1.0642 -0.7882 -2.7419
  134MOL   H25348399   5.220   0.939   1.604 -0.1557 -1.5558  0.3546
  134MOL   C25448400   5.429   1.386   2.061 -0.7614 -0.3396 -0.2944
  134MOL   C25548401   5.514   1.462   1.950  0.5880  0.5387 -0.5600
  134MOL   C25648402   5.670   1.427   1.963 -0.6738 -0.8084  0.5234
  134MOL   C25748403   5.734   1.462   2.099 -0.5003  0.3670 -0.3287
  134MOL   C25848404   5.880   1.415   2.107 -0.1186  0.2492  0.1126
  134MOL   C25948405   5.957   1.461   2.234  0.1652 -0.2052 -0.0060
  134MOL   H26048406   5.466   1.284   2.052 -0.4792 -0.0565 -2.9181
  134MOL   H26148407   5.458   1.428   2.157  1.4296 -2.4627  0.0188
  134MOL   H26248408   5.470   1.434   1.854 -0.6498 -0.9118  0.4011
  134MOL   H26348409   5.704   1.326   1.937 -0.1327 -0.5724  0.3007
  134MOL   H26448410   5.726   1.492   1.896  1.0074 -0.9284  1.8099
  134MOL   H26548411   5.731   1.570   2.102 -0.7054  0.3283  1.0375
  134MOL   H26648412   5.672   1.425   2.180  1.8906 -0.0434  1.3552
  134MOL   H26748413   5.939   1.443   2.019 -0.2552 -1.6165 -0.6024
  134MOL   H26848414   5.882   1.306   2.110  1.3037  0.3227  3.3168
  134MOL   H26948415   5.925   1.564   2.250 -0.7962 -1.0004  3.7438
  134MOL   H27048416   6.063   1.452   2.212  0.2746 -0.8764  0.7475
  134MOL   H27148417   5.933   1.413   2.329  1.2421 -0.7508  0.0001
  134MOL   C27248418   5.491   1.609   1.970  0.0065  0.4630  0.2404
  134MOL   C27348419   5.545   1.698   1.858  0.2644 -0.5025  0.0832
  134MOL   C27448420   5.557   1.845   1.905  0.5777 -0.6571 -0.6532
  134MOL   C27548421   5.664   1.865   2.005 -0.2246 -0.1850  0.1914
  134MOL   C27648422   5.685   2.018   2.027 -0.5865  0.2045  0.1269
  134MOL   C27748423   5.792   2.066   2.126 -0.1300 -0.1828 -0.2268
  134MOL   H27848424   5.382   1.619   1.974 -0.2578 -1.8822 -0.4225
  134MOL   H27948425   5.526   1.631   2.071  1.5770 -0.2650 -0.1202
  134MOL   H28048426   5.646   1.662   1.838  1.4854  2.0373  1.3122
  134MOL   H28148427   5.459   1.882   1.934  0.1383 -2.3487  0.0321
  134MOL   H28248428   5.579   1.893   1.809 -0.7568  0.8962 -0.2031
  134MOL   H28348429   5.761   1.822   1.978  1.6241  3.5123  0.6102
  134MOL   H28448430   5.639   1.814   2.098 -1.1320 -1.7780 -0.8937
  134MOL   H28548431   5.709   2.062   1.930  0.5846 -4.1503 -1.6573
  134MOL   H28648432   5.588   2.056   2.059  1.1949  2.0478  3.5630
  134MOL   H28748433   5.772   2.024   2.224  0.8586  0.0327  0.0685
  134MOL   H28848434   5.893   2.032   2.102  0.1552  0.8938 -0.6033
  134MOL   H28948435   5.788   2.175   2.116  1.1954 -0.2086 -1.1961
  134MOL   C29048436   5.471   1.681   1.727  0.0181 -0.1079  0.3181
  134MOL   C29148437   5.549   1.619   1.603  0.0669  0.4770 -0.5508
  134MOL   C29248438   5.451   1.542   1.507 -0.3704  0.0482  0.4358
  134MOL   C29348439   5.344   1.641   1.439  0.2924  0.2890 -0.0434
  134MOL   C29448440   5.232   1.562   1.364  0.1786  0.1736 -0.6968
  134MOL   C29548441   5.156   1.460   1.449  0.5788  0.2759 -0.1863
  134MOL   H29648442   5.417   1.774   1.711 -0.1615  0.0119  1.6341
  134MOL   H29748443   5.393   1.607   1.749  0.1891 -1.2716 -2.6411
  134MOL   H29848444   5.603   1.539   1.653 -0.0388  0.9992  0.4131
  134MOL   H29948445   5.399   1.474   1.575  0.2575 -1.4525 -0.5541
  134MOL   H30048446   5.509   1.487   1.432  0.5957  0.0996  1.1268
  134MOL   H30148447   5.285   1.697   1.511 -1.1749  0.0386 -1.0210
  134MOL   H30248448   5.389   1.714   1.372 -0.9985  1.8934  0.7978
  134MOL   H30348449   5.278   1.506   1.283 -0.1301 -2.0567  0.6448
  134MOL   H30448450   5.172   1.630   1.303  1.8428 -0.9365 -3.6894
  134MOL   H30548451   5.116   1.504   1.541  1.4663  1.6397 -0.4436
  134MOL   H30648452   5.193   1.366   1.491 -0.4333 -0.5983 -1.2024
  134MOL   H30748453   5.066   1.436   1.391 -1.7110  1.8239  2.6117
  134MOL   C30848454   5.650   1.717   1.537  0.0072  0.2012 -0.0011
  134MOL   C30948455   5.797   1.678   1.557  0.0508 -0.4452  0.7420
  134MOL   C31048456   5.890   1.797   1.527  0.1272  0.1594  0.5396
  134MOL   C31148457   5.883   1.907   1.643 -0.3551  0.6882  0.5334
  134MOL   C31248458   5.949   2.044   1.614 -0.2743  0.1228 -0.1291
  134MOL   C31348459   5.953   2.141   1.724  0.6101  0.0380 -1.0816
  134MOL   H31448460   5.637   1.707   1.429  1.8269 -1.5119 -0.0919
  134MOL   H31548461   5.636   1.819   1.574 -0.3766  0.3075 -0.4266
  134MOL   H31648462   5.820   1.648   1.659 -0.9184  0.8344  1.3498
  134MOL   H31748463   5.863   1.834   1.428 -0.3514  1.1483  1.0406
  134MOL   H31848464   5.992   1.762   1.507  0.0530  1.2822 -2.0486
  134MOL   H31948465   5.923   1.855   1.730  0.8546  0.4529 -0.1484
  134MOL   H32048466   5.780   1.929   1.671  0.3319  3.5594  1.0179
  134MOL   H32148467   6.050   2.028   1.575  0.0934  2.1184 -0.0415
  134MOL   H32248468   5.885   2.087   1.538  0.1648 -0.8068 -1.0343
  134MOL   H32348469   5.859   2.147   1.778  0.9346  0.5926 -0.5752
  134MOL   H32448470   5.990   2.237   1.689 -1.0458  0.9051 -0.5082
  134MOL   H32548471   6.014   2.108   1.808 -1.4536  2.0744  1.2777
  134MOL   C32648472   5.841   1.552   1.476  0.6278  0.3834 -0.0332
  134MOL   C32748473   5.965   1.484   1.535  0.2233 -0.3549  0.0866
  134MOL   C32848474   5.914   1.383   1.645  0.0465  0.2939  0.7471
  134MOL   C32948475   6.015   1.299   1.711  0.1805  0.7412  0.2444
  134MOL   C33048476   6.136   1.363   1.784 -0.2131  0.1711  0.0984
  134MOL   C33148477   6.199   1.258   1.876 -0.3195 -0.2999 -0.2613
  134MOL   H33248478   5.847   1.580   1.371 -2.9289  1.4416 -0.0380
  134MOL   H33348479   5.758   1.482   1.472 -0.5275  1.6271  1.2897
  134MOL   H33448480   6.031   1.562   1.575 -1.4381  1.0768  0.1364
  134MOL   H33548481   5.873   1.450   1.721  1.5500  1.4786  0.5344
  134MOL   H33648482   5.842   1.306   1.618 -1.7664  1.5076  1.9873
  134MOL   H33748483   6.045   1.219   1.643 -3.4392 -0.7191  0.2670
  134MOL   H33848484   5.950   1.244   1.778  0.6339  1.3368  1.1889
  134MOL   H33948485   6.203   1.411   1.713 -0.2393  0.6221  0.3725
  134MOL   H34048486   6.102   1.446   1.847 -2.1741  0.4508 -1.3081
  134MOL   H34148487   6.228   1.166   1.825 -0.1725 -0.0934 -0.5503
  134MOL   H34248488   6.123   1.230   1.949  0.6472  0.2468  0.9774
  134MOL   H34348489   6.277   1.295   1.943 -0.5316 -0.8444  0.2976
  134MOL   C34448490   6.043   1.403   1.430  0.3846 -0.4313 -0.1344
  134MOL   C34548491   6.112   1.476   1.316  1.2450  0.0049  0.3000
  134MOL   C34648492   6.244   1.539   1.355  0.5276 -0.3318 -0.3569
  134MOL   C34748493   6.301   1.606   1.229 -0.6117  0.3055  0.4866
  134MOL   C34848494   6.433   1.669   1.265  0.2245  0.1200  0.2008
  134MOL   C34948495   6.524   1.716   1.148 -0.6510  0.0783 -0.0071
  134MOL   H35048496   6.111   1.336   1.482  0.6338  0.0558  0.1813
  134MOL   H35148497   5.967   1.344   1.380  1.1548  0.5545 -2.5592
  134MOL   H35248498   6.048   1.553   1.273  0.7010 -1.5628 -1.7873
  134MOL   H35348499   6.233   1.610   1.436  2.6507 -1.4229  0.9232
  134MOL   H35448500   6.311   1.465   1.398 -1.0557 -2.5030 -1.5546
  134MOL   H35548501   6.303   1.529   1.151 -0.9813 -1.7414  2.4232
  134MOL   H35648502   6.233   1.682   1.191  0.7596 -0.0408 -2.7966
  134MOL   H35748503   6.407   1.749   1.335  0.6868 -0.3252  0.8777
  134MOL   H35848504   6.498   1.597   1.313 -0.7196 -1.0048 -0.1979
  134MOL   H35948505   6.623   1.725   1.192 -0.7692 -2.2661  0.8077
  134MOL   H36048506   6.529   1.656   1.056 -1.4776  2.9896 -2.0118
  134MOL   H36148507   6.505   1.819   1.120 -0.5112 -0.2546 -1.3976
  134MOL   H36248508   6.130   1.398   1.242  0.7264  0.1367  0.0372
  135MOL     C148509   0.675   3.927   1.102 -0.0433 -0.0464 -0.3680
  135MOL     C248510   0.823   3.887   1.094  0.2044  0.3012  0.1646
  135MOL     C348511   0.891   3.909   1.229 -0.2096  0.3566 -0.7458
  135MOL     C448512   1.030   3.851   1.248  0.5343 -0.1240 -0.0605
  135MOL     C548513   1.093   3.900   1.379  0.5609 -0.5153  0.1880
  135MOL     C648514   1.232   3.829   1.399  0.8590 -0.0994 -0.5365
  135MOL     H748515   0.675   4.034   1.084 -0.3937  0.0124 -0.0298
  135MOL     H848516   0.608   3.879   1.031 -1.0953 -0.6335  0.9995
  135MOL     H948517   0.830   3.779   1.077 -4.0574 -0.0251 -0.0444
  135MOL    H1048518   0.832   3.863   1.308 -1.9339 -0.6947 -2.5986
  135MOL    H1148519   0.902   4.016   1.245  1.3592  0.2168 -0.7139
  135MOL    H1248520   1.094   3.880   1.164 -1.3179 -0.1519 -1.5315
  135MOL    H1348521   1.011   3.744   1.234  0.1977  0.1506 -1.8746
  135MOL    H1448522   1.107   4.008   1.383  0.3223 -0.5475  2.4908
  135MOL    H1548523   1.034   3.870   1.466  1.0856  0.7730  1.0095
  135MOL    H1648524   1.303   3.858   1.322  1.0429 -0.8962 -0.6612
  135MOL    H1748525   1.219   3.722   1.415 -0.1863  0.2434  1.1075
  135MOL    H1848526   1.284   3.870   1.486 -2.0527  0.9683  0.8023
  135MOL    H1948527   0.636   3.913   1.203 -0.1981 -1.8488 -0.6524
  135MOL    C2048528   0.883   3.976   0.979 -0.1561  0.1171  0.1392
  135MOL    C2148529   0.835   3.936   0.843 -0.0776 -0.4888 -0.3969
  135MOL    C2248530   0.861   4.058   0.755 -0.4482  0.4573  0.6198
  135MOL    C2348531   0.768   4.177   0.777  0.0465  0.1248  0.0471
  135MOL    C2448532   0.809   4.304   0.694 -0.1064 -0.0890  0.3552
  135MOL    C2548533   0.723   4.426   0.710 -0.6219  0.1279  0.1893
  135MOL    H2648534   0.991   3.961   0.979 -0.1453  0.1904 -0.3149
  135MOL    H2748535   0.873   4.081   1.007 -0.8529 -0.0638  0.5828
  135MOL    H2848536   0.728   3.931   0.861  0.1222 -3.2570  0.1898
  135MOL    H2948537   0.857   4.031   0.649  2.3067 -2.3713  1.1593
  135MOL    H3048538   0.962   4.094   0.774  0.1765 -0.6994 -0.3753
  135MOL    H3148539   0.759   4.207   0.881  1.3574  0.1228  0.1682
  135MOL    H3248540   0.667   4.142   0.757  0.3095 -0.1796 -0.7508
  135MOL    H3348541   0.910   4.332   0.724 -0.5102  1.0836  0.6269
  135MOL    H3448542   0.825   4.289   0.587 -0.6751  3.0990 -0.2396
  135MOL    H3548543   0.705   4.451   0.815  1.2781  0.2803  0.4974
  135MOL    H3648544   0.761   4.516   0.661  0.0979  0.1825  0.8346
  135MOL    H3748545   0.624   4.414   0.665  0.2241 -0.3791 -1.5679
  135MOL    C3848546   0.884   3.808   0.776 -0.0877  0.6166 -0.5408
  135MOL    C3948547   1.036   3.797   0.750 -0.1505 -0.2208  0.6696
  135MOL    C4048548   1.104   3.723   0.874  0.3342 -0.5884 -0.6518
  135MOL    C4148549   1.256   3.714   0.885  0.1431  0.0813  0.3433
  135MOL    C4248550   1.309   3.648   1.014 -0.0882 -0.8668  0.4322
  135MOL    C4348551   1.465   3.639   1.013 -1.2259  1.1424 -0.0683
  135MOL    H4448552   0.839   3.784   0.680 -2.6434 -3.8406  1.5888
  135MOL    H4548553   0.865   3.734   0.854  3.6673 -0.8510 -0.8803
  135MOL    H4648554   1.091   3.889   0.729 -0.8808  0.1114  0.2232
  135MOL    H4748555   1.063   3.769   0.963 -0.2934 -0.4461 -1.0079
  135MOL    H4848556   1.073   3.619   0.873 -1.9768  0.0585  0.9148
  135MOL    H4948557   1.281   3.642   0.807  0.2693  1.1597 -0.6154
  135MOL    H5048558   1.315   3.803   0.866  1.2313 -0.3507  1.6203
  135MOL    H5148559   1.279   3.715   1.094  0.8172  0.3630 -0.2316
  135MOL    H5248560   1.245   3.564   1.040 -0.1008 -0.0494  3.1371
  135MOL    H5348561   1.509   3.605   1.107 -1.7711 -0.1986 -0.2897
  135MOL    H5448562   1.517   3.733   0.999 -0.3151  1.0590  2.4437
  135MOL    H5548563   1.502   3.579   0.931  1.0445  0.3980  1.4536
  135MOL    C5648564   1.077   3.720   0.623  0.3729 -0.0040  0.3594
  135MOL    C5748565   1.054   3.791   0.487 -0.2835 -0.5866  0.3834
  135MOL    C5848566   1.037   3.690   0.375 -0.3825  0.1921  0.6917
  135MOL    C5948567   1.138   3.579   0.363 -0.7315  0.3639  0.3163
  135MOL    C6048568   1.119   3.492   0.236  0.9610  0.5163  0.2914
  135MOL    C6148569   1.194   3.352   0.246 -0.2982  1.2303 -0.1269
  135MOL    H6248570   1.182   3.692   0.615 -0.1696 -1.5466 -1.8558
  135MOL    H6348571   1.020   3.628   0.610  0.5032 -0.0767  0.3137
  135MOL    H6448572   0.964   3.852   0.494  0.0180 -0.0100 -0.6940
  135MOL    H6548573   0.934   3.660   0.392 -0.5001  0.2434  0.0813
  135MOL    H6648574   1.033   3.743   0.280 -0.2488 -0.4997  0.3017
  135MOL    H6748575   1.138   3.519   0.455 -3.2508  1.8065  1.3301
  135MOL    H6848576   1.237   3.624   0.358 -0.7194  0.4933  1.4491
  135MOL    H6948577   1.012   3.469   0.231  1.1151 -0.2216  0.2424
  135MOL    H7048578   1.136   3.549   0.145 -0.9394  2.6180  1.2221
  135MOL    H7148579   1.170   3.287   0.162 -2.4333  1.5909  0.1651
  135MOL    H7248580   1.303   3.351   0.251 -0.1744 -2.9063 -1.8490
  135MOL    H7348581   1.170   3.300   0.338 -0.3036  3.6663  1.3154
  135MOL    C7448582   1.162   3.889   0.452 -0.1654 -0.3350  0.1798
  135MOL    C7548583   1.154   3.965   0.311 -0.2240  0.0520 -0.7016
  135MOL    C7648584   1.024   4.052   0.316  0.1416  0.1194  1.2073
  135MOL    C7748585   0.981   4.139   0.188 -0.3856 -0.8277 -0.2326
  135MOL    C7848586   0.993   4.056   0.061 -0.1314 -0.5811  0.2987
  135MOL    C7948587   0.949   4.146   7.666 -0.0812 -0.8969 -0.3442
  135MOL    H8048588   1.165   3.967   0.528 -0.7726 -0.5463  0.4255
  135MOL    H8148589   1.255   3.833   0.457  0.5059  0.6821 -0.5241
  135MOL    H8248590   1.164   3.893   0.230  1.5314 -1.6520  0.9751
  135MOL    H8348591   0.943   3.981   0.334 -0.6268  0.0319 -2.2878
  135MOL    H8448592   1.019   4.127   0.395 -0.7046 -0.0632  1.3338
  135MOL    H8548593   0.883   4.186   0.197 -0.5714 -1.5018  1.5257
  135MOL    H8648594   1.053   4.219   0.175  1.2067 -2.3964 -1.2877
  135MOL    H8748595   0.926   3.971   0.071 -0.4945 -0.0522  2.5312
  135MOL    H8848596   1.090   4.011   0.039 -1.0925 -2.3104 -0.5731
  135MOL    H8948597   0.841   4.160   7.666  0.3611  2.9479  0.5184
  135MOL    H9048598   0.995   4.244   7.676 -2.5936  0.3596 -0.8382
  135MOL    H9148599   0.973   4.104   7.569  0.5048  0.9103 -0.9922
  135MOL    C9248600   1.285   4.047   0.290 -1.1651  0.0685 -0.5795
  135MOL    C9348601   1.419   3.967   0.265  0.4734  0.1851 -0.3205
  135MOL    C9448602   1.455   3.932   0.112  0.4444 -0.2359 -0.3130
  135MOL    C9548603   1.534   3.794   0.093  0.1004  0.5110 -0.5851
  135MOL    C9648604   1.538   3.766   7.675 -0.1304  0.3512 -0.3574
  135MOL    C9748605   1.619   3.862   7.586 -0.2652  1.1461 -0.2461
  135MOL    H9848606   1.278   4.118   0.208  0.7134 -0.6010 -1.3514
  135MOL    H9948607   1.300   4.116   0.373 -1.6138 -1.1882  0.5621
  135MOL   H10048608   1.416   3.880   0.331 -0.0841  0.6229  0.2414
  135MOL   H10148609   1.503   4.016   0.063 -0.9802  0.5575 -0.3782
  135MOL   H10248610   1.357   3.921   0.065  0.4335  0.0465 -0.3563
  135MOL   H10348611   1.638   3.795   0.127 -0.3368  2.1262  0.7400
  135MOL   H10448612   1.486   3.719   0.155  2.1254 -0.9251 -0.6968
  135MOL   H10548613   1.585   3.669   7.659 -0.1064  0.3750 -0.4352
  135MOL   H10648614   1.436   3.765   7.636  0.5064  0.5840 -2.0749
  135MOL   H10748615   1.582   3.964   7.588 -0.3722  1.0979  0.4848
  135MOL   H10848616   1.717   3.869   7.633  1.1096 -0.0002 -2.8458
  135MOL   H10948617   1.641   3.823   7.487  1.4797  0.0771  0.5281
  135MOL   C11048618   1.538   4.037   0.337  0.6815  0.3552  0.7366
  135MOL   C11148619   1.548   4.039   0.491 -0.0226  0.5508  0.5804
  135MOL   C11248620   1.523   4.182   0.543  0.2198  0.0013 -0.3387
  135MOL   C11348621   1.494   4.193   0.689  0.2634 -0.4410  0.4275
  135MOL   C11448622   1.462   4.332   0.738 -0.5293  0.0859 -0.0955
  135MOL   C11548623   1.568   4.441   0.703 -0.2320  0.2047 -0.0437
  135MOL   H11648624   1.621   3.983   0.292 -0.0713 -0.3242  0.1539
  135MOL   H11748625   1.542   4.136   0.292 -1.6572  1.2848  2.4829
  135MOL   H11848626   1.460   3.983   0.522  0.2606  1.1047  2.4493
  135MOL   H11948627   1.448   4.238   0.489  0.6778  0.9765  0.0277
  135MOL   H12048628   1.614   4.234   0.514 -0.1451  1.1443  0.5198
  135MOL   H12148629   1.588   4.169   0.740  1.5131  1.4444 -0.9362
  135MOL   H12248630   1.426   4.113   0.717 -0.0284  0.5986  2.8189
  135MOL   H12348631   1.456   4.325   0.846 -2.3957 -1.7900 -0.2944
  135MOL   H12448632   1.364   4.361   0.700 -0.0708  0.6654 -0.8813
  135MOL   H12548633   1.578   4.451   0.595  4.0193 -1.9862  0.0352
  135MOL   H12648634   1.532   4.535   0.744 -1.6251 -0.4988  0.3463
  135MOL   H12748635   1.665   4.425   0.751 -0.0879  2.4394  0.4618
  135MOL   C12848636   1.671   3.958   0.552  0.0753  0.1191  0.0368
  135MOL   C12948637   1.680   3.808   0.512  0.4133 -1.0895  0.9322
  135MOL   C13048638   1.592   3.718   0.600 -0.4978 -0.4076  0.7791
  135MOL   C13148639   1.581   3.575   0.550  0.3679  0.4855 -0.1576
  135MOL   C13248640   1.471   3.500   0.626  0.2661  0.3100 -0.0791
  135MOL   C13348641   1.445   3.368   0.567  0.5455  0.1988  0.2720
  135MOL   H13448642   1.671   3.970   0.660 -0.6684 -0.1593  0.0703
  135MOL   H13548643   1.764   4.005   0.519  0.5231  0.3822  1.6625
  135MOL   H13648644   1.630   3.794   0.416  0.0975 -1.9082  1.2070
  135MOL   H13748645   1.621   3.716   0.705  0.5037 -1.3583  0.4953
  135MOL   H13848646   1.489   3.753   0.601 -0.3401  0.0493  1.5115
  135MOL   H13948647   1.677   3.524   0.557 -0.8811 -1.8149  0.6145
  135MOL   H14048648   1.552   3.578   0.445 -0.7850 -1.6016  0.0833
  135MOL   H14148649   1.490   3.490   0.733 -1.4533 -1.8802  0.0421
  135MOL   H14248650   1.387   3.569   0.616 -1.3336 -1.7799 -1.5622
  135MOL   H14348651   1.362   3.307   0.604 -0.1322  2.1509  2.0249
  135MOL   H14448652   1.529   3.299   0.572 -0.4021 -1.1379 -1.2850
  135MOL   H14548653   1.427   3.379   0.460 -0.7328  1.3775  0.6000
  135MOL   C14648654   1.831   3.776   0.520  0.0478  0.4262 -0.4532
  135MOL   C14748655   1.925   3.831   0.401  0.1943 -0.4575  0.6619
  135MOL   C14848656   1.914   3.752   0.272 -0.3212  0.4883  0.2827
  135MOL   C14948657   1.978   3.798   0.149 -0.1378 -0.3732  0.4456
  135MOL   C15048658   1.941   3.713   0.027 -0.3341  0.8629  0.4126
  135MOL   C15148659   2.014   3.774   7.630  0.4130 -0.6964  0.3211
  135MOL   H15248660   1.855   3.809   0.621  0.2278  1.9018 -0.9588
  135MOL   H15348661   1.841   3.668   0.532  0.1590  0.3910 -0.8478
  135MOL   H15448662   1.890   3.933   0.386 -0.0896 -0.5973  0.3501
  135MOL   H15548663   1.806   3.749   0.261 -0.5123 -3.0923  2.3321
  135MOL   H15648664   1.940   3.647   0.287 -1.8436  0.3789  2.3855
  135MOL   H15748665   1.940   3.900   0.144 -0.7628 -0.6142  0.1542
  135MOL   H15848666   2.084   3.817   0.163 -0.3350  1.8785 -0.8333
  135MOL   H15948667   1.835   3.708   0.003 -0.2358  2.0359 -0.2934
  135MOL   H16048668   1.976   3.610   0.034 -1.3669  0.3426 -1.5135
  135MOL   H16148669   2.001   3.721   7.536  1.6234 -0.3094 -0.0722
  135MOL   H16248670   1.976   3.874   7.612 -1.3110 -1.0746  1.7169
  135MOL   H16348671   2.120   3.787   7.650  0.5463 -0.4842 -0.5327
  135MOL   C16448672   2.083   3.834   0.446 -0.4015  0.1632 -0.0254
  135MOL   C16548673   2.113   3.924   0.568  0.0825 -0.1440 -0.1407
  135MOL   C16648674   2.267   3.909   0.598  0.4226 -0.0583  0.5362
  135MOL   C16748675   2.302   3.773   0.653 -0.0862 -0.7381  0.6174
  135MOL   C16848676   2.411   3.770   0.759  0.3634 -0.0430  0.0958
  135MOL   C16948677   2.549   3.809   0.700  0.3234  0.1176 -0.1785
  135MOL   H17048678   2.114   3.731   0.465  0.7861  0.1146 -2.0804
  135MOL   H17148679   2.144   3.862   0.361 -1.1337  1.1426 -0.2329
  135MOL   H17248680   2.058   3.897   0.658  2.9011 -0.9827  1.4196
  135MOL   H17348681   2.299   3.977   0.677 -0.7685 -0.0961  1.0671
  135MOL   H17448682   2.325   3.935   0.509 -1.2032  1.0529 -0.2304
  135MOL   H17548683   2.324   3.709   0.567  2.6434  0.2152  0.5738
  135MOL   H17648684   2.208   3.744   0.700  0.0754  3.0579  3.5611
  135MOL   H17748685   2.429   3.679   0.816  0.0816 -1.2625 -1.7517
  135MOL   H17848686   2.392   3.850   0.832 -1.1934  1.8081 -2.2839
  135MOL   H17948687   2.637   3.789   0.762 -1.8299 -2.5529  2.1862
  135MOL   H18048688   2.558   3.916   0.683 -0.4023 -0.2174 -2.9038
  135MOL   H18148689   2.577   3.747   0.615  0.7690 -1.2652  0.9497
  135MOL   C18248690   2.066   4.067   0.553 -0.3258  0.5159 -0.0468
  135MOL   C18348691   2.094   4.160   0.678  0.1078 -0.6292  0.2126
  135MOL   C18448692   2.065   4.090   0.817  0.7414  0.4883  0.3168
  135MOL   C18548693   1.918   4.045   0.835 -0.4480 -0.3332  0.0927
  135MOL   C18648694   1.891   3.934   0.947 -0.4759 -0.2024  0.3110
  135MOL   C18748695   1.741   3.904   0.973 -0.0469 -0.3107 -0.3347
  135MOL   H18848696   2.113   4.121   0.471  1.4603  0.5244  0.9772
  135MOL   H18948697   1.959   4.078   0.536 -0.1947  1.0265 -0.5583
  135MOL   H19048698   2.201   4.183   0.683 -0.1199  0.8871 -1.3136
  135MOL   H19148699   2.125   3.999   0.820 -0.3059 -0.2547 -0.6990
  135MOL   H19248700   2.103   4.137   0.908  1.9495 -0.4056  0.2917
  135MOL   H19348701   1.881   4.005   0.741  0.9498 -1.0777 -0.1522
  135MOL   H19448702   1.848   4.128   0.850  0.6508  0.4577  0.9766
  135MOL   H19548703   1.938   3.961   1.042  0.6640  0.8638 -0.5366
  135MOL   H19648704   1.937   3.838   0.925  0.9421 -0.2972  3.4210
  135MOL   H19748705   1.722   3.820   1.040  1.2378 -0.8077 -0.5777
  135MOL   H19848706   1.693   3.890   0.876  0.8965  0.9376 -1.0053
  135MOL   H19948707   1.692   3.995   1.008  1.1322  0.6218 -1.0604
  135MOL   C20048708   2.029   4.293   0.683 -0.0030 -0.2383 -0.2433
  135MOL   C20148709   2.095   4.402   0.593 -0.2039  0.5702 -0.5707
  135MOL   C20248710   2.002   4.528   0.574 -0.4124 -0.6031 -0.0560
  135MOL   C20348711   1.920   4.519   0.443 -0.8317 -0.2414 -0.5720
  135MOL   C20448712   1.818   4.623   0.420  0.3994 -1.0242  0.1023
  135MOL   C20548713   1.720   4.612   0.306  0.2460  0.1180  0.2786
  135MOL   H20648714   2.008   4.332   0.783  1.0176  1.4527 -0.6620
  135MOL   H20748715   1.932   4.267   0.640 -0.9019  3.9651 -0.9981
  135MOL   H20848716   2.106   4.364   0.492 -0.4429 -0.5739 -0.1715
  135MOL   H20948717   2.055   4.623   0.570  0.1222 -0.9012 -0.0395
  135MOL   H21048718   1.938   4.532   0.663 -0.2515 -1.2647  0.0920
  135MOL   H21148719   1.867   4.425   0.454 -1.1338 -0.1982 -1.6028
  135MOL   H21248720   1.983   4.509   0.354 -1.7127 -0.4815 -1.1741
  135MOL   H21348721   1.867   4.720   0.418  0.3620 -1.0170 -0.4163
  135MOL   H21448722   1.763   4.610   0.513  1.3507 -0.6508  0.7247
  135MOL   H21548723   1.672   4.514   0.310 -1.3900  0.8784 -0.0610
  135MOL   H21648724   1.639   4.685   0.307 -0.7109 -0.9492  1.1534
  135MOL   H21748725   1.757   4.635   0.206  0.8958 -2.5590 -0.1357
  135MOL   C21848726   2.228   4.446   0.648 -0.0300  0.3693  0.1174
  135MOL   C21948727   2.349   4.383   0.576  0.5704  0.3733  0.0225
  135MOL   C22048728   2.473   4.348   0.654 -0.1234 -0.0803  0.2739
  135MOL   C22148729   2.453   4.238   0.762 -0.1072  0.3885  0.0093
  135MOL   C22248730   2.588   4.225   0.838  1.1510 -0.0870 -0.2765
  135MOL   C22348731   2.575   4.116   0.939  0.7354 -0.1603  0.4766
  135MOL   H22448732   2.250   4.552   0.643  2.0041 -0.0682 -0.9254
  135MOL   H22548733   2.234   4.432   0.756  0.4836  1.3115  0.2175
  135MOL   H22648734   2.313   4.289   0.534  1.7987  0.4762 -1.2957
  135MOL   H22748735   2.499   4.431   0.719  1.1313 -0.4768  0.2850
  135MOL   H22848736   2.559   4.331   0.589 -0.3061 -3.5377  0.8625
  135MOL   H22948737   2.420   4.143   0.719 -3.0544 -0.0839  3.1097
  135MOL   H23048738   2.373   4.266   0.830  1.1661 -1.1695  2.2432
  135MOL   H23148739   2.670   4.200   0.770  0.2785 -2.7009 -0.4266
  135MOL   H23248740   2.607   4.315   0.896  1.5234 -0.5577  0.3382
  135MOL   H23348741   2.558   4.012   0.908 -2.3589 -0.5123  3.0927
  135MOL   H23448742   2.488   4.137   1.001 -1.2495 -2.1045 -1.5241
  135MOL   H23548743   2.666   4.110   0.997  1.3714 -0.3548 -0.5199
  135MOL   C23648744   2.386   4.461   0.447 -0.0463 -0.2075  0.0082
  135MOL   C23748745   2.436   4.374   0.332 -0.1113  0.0905 -0.0676
  135MOL   C23848746   2.540   4.451   0.248  0.0616 -0.8798  0.1077
  135MOL   C23948747   2.674   4.467   0.318 -0.0712  0.6012 -0.6319
  135MOL   C24048748   2.780   4.495   0.208 -0.9637  0.3883  0.2829
  135MOL   C24148749   2.935   4.504   0.245  0.2840  0.4457  0.4280
  135MOL   H24248750   2.296   4.517   0.424  0.0890  0.6105  1.4346
  135MOL   H24348751   2.461   4.538   0.466 -0.7049  0.0629  1.5767
  135MOL   H24448752   2.479   4.280   0.367  0.2861  0.2344 -0.1718
  135MOL   H24548753   2.554   4.390   0.159 -0.1082 -0.2634 -0.3431
  135MOL   H24648754   2.496   4.545   0.214  0.7931 -0.5195  0.1378
  135MOL   H24748755   2.696   4.374   0.371 -1.0853  1.0959  0.6996
  135MOL   H24848756   2.679   4.549   0.390 -0.2271 -1.8795  2.2840
  135MOL   H24948757   2.771   4.429   0.121 -0.5388  2.4593 -1.3837
  135MOL   H25048758   2.765   4.594   0.163 -0.2629  0.4163  0.1030
  135MOL   H25148759   3.003   4.528   0.164  0.1636  1.2250  0.5518
  135MOL   H25248760   2.951   4.583   0.319  1.0717 -1.0920  1.9350
  135MOL   H25348761   2.975   4.412   0.288 -0.3442 -0.1479 -0.2543
  135MOL   C25448762   2.322   4.321   0.250  0.2672 -0.0078  0.3357
  135MOL   C25548763   2.340   4.193   0.166 -0.8883  0.1027 -0.6104
  135MOL   C25648764   2.225   4.177   0.066  0.1282 -0.1096 -0.3662
  135MOL   C25748765   2.082   4.188   0.125 -0.1903  0.0231  0.4936
  135MOL   C25848766   1.978   4.180   0.006 -0.1895 -0.6446 -0.4639
  135MOL   C25948767   1.829   4.194   0.054  0.0580 -0.0312  0.4142
  135MOL   H26048768   2.281   4.408   0.197 -0.5608 -0.5817  0.0161
  135MOL   H26148769   2.242   4.298   0.320 -2.3301  1.8943 -1.8837
  135MOL   H26248770   2.437   4.191   0.116 -1.4317 -1.1783 -1.6458
  135MOL   H26348771   2.235   4.261   7.724 -0.8412  0.0371 -0.3277
  135MOL   H26448772   2.232   4.083   0.010 -1.0126  0.6650 -1.8418
  135MOL   H26548773   2.066   4.104   0.194 -1.1647  0.7581  1.1813
  135MOL   H26648774   2.062   4.280   0.180  0.9504  0.3925  0.2925
  135MOL   H26748775   1.997   4.088   7.678 -1.4555 -0.9373 -0.4112
  135MOL   H26848776   2.013   4.259   7.666  0.5465  0.2779  0.9839
  135MOL   H26948777   1.763   4.174   7.697  0.9661 -0.3973 -0.2189
  135MOL   H27048778   1.816   4.297   0.089  0.2858  0.0832  0.1600
  135MOL   H27148779   1.806   4.129   0.139  2.4225  0.6520  1.6093
  135MOL   C27248780   2.346   4.064   0.254 -0.7174 -0.0704 -0.5817
  135MOL   C27348781   2.453   3.962   0.208 -0.4372 -0.7568  1.3153
  135MOL   C27448782   2.600   4.016   0.228  0.1691  0.5723 -0.3942
  135MOL   C27548783   2.684   3.917   0.313  0.5841 -0.3931 -0.4390
  135MOL   C27648784   2.829   3.962   0.341 -0.1438  0.4792  0.2605
  135MOL   C27748785   2.923   3.852   0.398 -0.1138  0.7609 -0.2991
  135MOL   H27848786   2.364   4.082   0.360 -1.7103 -1.4700 -0.1490
  135MOL   H27948787   2.245   4.025   0.269 -0.1556 -1.8499 -1.2949
  135MOL   H28048788   2.443   3.877   0.276  3.5099 -0.0491  2.9426
  135MOL   H28148789   2.608   4.112   0.278 -2.2797 -0.1955  1.5328
  135MOL   H28248790   2.643   4.036   0.129 -0.4035  0.0719 -0.7465
  135MOL   H28348791   2.697   3.817   0.272  1.1473 -0.7351  0.5659
  135MOL   H28448792   2.639   3.910   0.412 -0.7954 -1.4186 -1.1289
  135MOL   H28548793   2.883   3.994   0.253  1.5138  2.2082  1.8646
  135MOL   H28648794   2.839   4.047   0.409  0.4125  1.7483 -1.3817
  135MOL   H28748795   2.947   3.780   0.320  1.0998  0.9790 -0.1374
  135MOL   H28848796   3.013   3.894   0.441 -0.0652  2.5195 -2.0597
  135MOL   H28948797   2.873   3.787   0.471  0.1602  0.9581  0.0631
  135MOL   C29048798   2.437   3.914   0.061 -0.1998  0.2256 -0.6814
  135MOL   C29148799   2.511   3.788   0.021  0.2282 -0.1429  0.2546
  135MOL   C29248800   2.419   3.660   7.721  0.1352 -0.1365  0.2907
  135MOL   C29348801   2.345   3.616   0.116 -0.2698 -0.3766 -0.3518
  135MOL   C29448802   2.275   3.488   0.098  0.3792 -0.3497  0.1212
  135MOL   C29548803   2.176   3.444   0.208  0.2529  0.6762  0.1477
  135MOL   H29648804   2.446   3.992   7.712  1.4269  0.8385  0.1115
  135MOL   H29748805   2.330   3.897   0.052 -0.0145 -0.7580 -0.9734
  135MOL   H29848806   2.570   3.758   0.107 -0.5216 -2.2588  0.0454
  135MOL   H29948807   2.479   3.571   7.703  0.6110  0.7646 -2.8050
  135MOL   H30048808   2.345   3.669   7.642 -0.4205 -2.2664  0.5400
  135MOL   H30148809   2.426   3.614   0.189  0.4271  2.8927 -0.9713
  135MOL   H30248810   2.271   3.690   0.147 -0.4738 -0.0797 -1.5235
  135MOL   H30348811   2.361   3.421   0.094 -1.6438 -2.8986 -2.3777
  135MOL   H30448812   2.229   3.476   0.000  3.3196 -4.4561 -0.8838
  135MOL   H30548813   2.215   3.469   0.306 -0.6198  0.2840  0.5961
  135MOL   H30648814   2.167   3.336   0.199  3.6988  0.2913  0.7282
  135MOL   H30748815   2.077   3.487   0.192 -0.7649 -1.9214 -0.8636
  135MOL   C30848816   2.601   3.815   7.620 -0.0581  0.2285  0.4527
  135MOL   C30948817   2.523   3.840   7.488  0.4108 -0.2769 -0.8720
  135MOL   C31048818   2.556   3.729   7.386  0.1682  0.3570  0.7499
  135MOL   C31148819   2.698   3.736   7.311 -0.6279  0.4385 -0.5126
  135MOL   C31248820   2.732   3.602   7.250  0.4098  0.1155 -0.2139
  135MOL   C31348821   2.869   3.604   7.180  0.0521 -0.3953  0.2485
  135MOL   H31448822   2.673   3.894   7.642  2.3520 -1.7408 -0.0831
  135MOL   H31548823   2.654   3.721   7.602 -1.0392 -0.3151  0.4057
  135MOL   H31648824   2.421   3.817   7.517  0.0739  0.9837 -1.0138
  135MOL   H31748825   2.474   3.724   7.315  0.7462  3.3451 -0.1922
  135MOL   H31848826   2.537   3.641   7.448  1.3946  0.6317  1.5309
  135MOL   H31948827   2.771   3.757   7.389 -0.1548 -0.9535 -0.5675
  135MOL   H32048828   2.680   3.817   7.240 -2.6093  0.8876  0.4648
  135MOL   H32148829   2.732   3.526   7.329 -1.0136  2.4124  2.0638
  135MOL   H32248830   2.659   3.576   7.173 -0.9339 -0.3397  1.1820
  135MOL   H32348831   2.952   3.617   7.250  2.0423 -0.8921 -1.9315
  135MOL   H32448832   2.859   3.687   7.111  0.0505 -1.3865 -0.9563
  135MOL   H32548833   2.894   3.515   7.122  0.9605 -0.8088  1.2516
  135MOL   C32648834   2.541   3.979   7.421  0.5355  0.0373  0.2819
  135MOL   C32748835   2.429   4.013   7.319 -0.0049  0.0322 -0.0432
  135MOL   C32848836   2.280   4.032   7.385 -0.7461 -0.1118 -0.3867
  135MOL   C32948837   2.162   4.037   7.285  0.5635  0.3895  0.5163
  135MOL   C33048838   2.046   4.109   7.355  0.1671  0.1853  0.3568
  135MOL   C33148839   1.917   4.091   7.274 -0.4906  0.4005 -0.7274
  135MOL   H33248840   2.644   3.989   7.388  0.8768 -1.5193  0.8042
  135MOL   H33348841   2.522   4.052   7.499  4.0212  0.5240  0.7381
  135MOL   H33448842   2.423   3.934   7.244 -2.0441  1.2458 -1.2217
  135MOL   H33548843   2.255   3.953   7.456  1.1367  0.3645  0.8348
  135MOL   H33648844   2.290   4.119   7.448 -1.9247 -0.4810  0.3244
  135MOL   H33748845   2.135   3.934   7.260  0.3269  0.1922  1.5747
  135MOL   H33848846   2.187   4.082   7.189  2.3999  0.7113  1.1254
  135MOL   H33948847   2.033   4.068   7.455 -1.3011 -2.2118 -0.7644
  135MOL   H34048848   2.065   4.215   7.369  1.6792  0.2073 -1.6102
  135MOL   H34148849   1.841   4.125   7.345 -1.2822  0.5574 -1.6497
  135MOL   H34248850   1.884   3.988   7.260  1.9062 -0.6355  0.8212
  135MOL   H34348851   1.903   4.155   7.188 -1.6195  1.4289  0.2028
  135MOL   C34448852   2.464   4.144   7.242  0.0113 -0.3700  0.2460
  135MOL   C34548853   2.576   4.135   7.134 -0.6430  0.8099 -0.1663
  135MOL   C34648854   2.626   4.274   7.091 -0.2313 -0.0992  0.1715
  135MOL   C34748855   2.745   4.253   6.988 -0.4867  0.1914  0.5227
  135MOL   C34848856   2.845   4.378   6.987 -0.5845  0.1427  0.1688
  135MOL   C34948857   2.978   4.336   6.936 -0.0749 -0.2228  0.0578
  135MOL   H35048858   2.372   4.172   7.190 -0.2710 -0.7455  0.5420
  135MOL   H35148859   2.489   4.228   7.307  2.1279 -1.3374  0.7199
  135MOL   H35248860   2.535   4.083   7.048 -0.0647 -1.2088  0.7566
  135MOL   H35348861   2.555   4.335   7.035  0.2064 -0.0088 -0.2974
  135MOL   H35448862   2.660   4.337   7.174 -0.0001 -1.0610  0.8146
  135MOL   H35548863   2.797   4.173   7.040 -1.6996 -0.1056  1.3065
  135MOL   H35648864   2.713   4.226   6.888  0.1537 -0.5409  0.5128
  135MOL   H35748865   2.799   4.446   6.916  2.4031  2.4575  0.3607
  135MOL   H35848866   2.864   4.424   7.084  0.8280  1.4803 -0.7342
  135MOL   H35948867   3.038   4.286   7.012 -0.0318  2.5223  1.8937
  135MOL   H36048868   2.974   4.282   6.841 -0.0169 -2.2672  1.1977
  135MOL   H36148869   3.026   4.430   6.909  0.9052 -0.8157 -0.3174
  135MOL   H36248870   2.661   4.077   7.169  0.4004  0.6811 -2.8254
  136MOL     C148871   5.506   0.945   5.359 -0.0525  0.3243 -0.4641
  136MOL     C248872   5.397   0.877   5.451  0.8026  0.5878 -0.1310
  136MOL     C348873   5.260   0.953   5.438 -0.3792 -0.1150 -0.2623
  136MOL     C448874   5.147   0.901   5.528 -0.5099  0.8712 -0.3354
  136MOL     C548875   5.016   0.974   5.507 -0.1895 -0.3531  0.3543
  136MOL     C648876   4.914   0.923   5.607  0.0123 -0.0623  0.1126
  136MOL     H748877   5.479   0.937   5.254  2.9040  1.2345 -1.3568
  136MOL     H848878   5.504   1.052   5.377 -2.9164  0.2032  0.1280
  136MOL     H948879   5.373   0.773   5.425 -1.0164  0.5556  1.5384
  136MOL    H1048880   5.226   0.936   5.336  2.5428 -1.0381 -1.1107
  136MOL    H1148881   5.267   1.061   5.450 -0.0087  0.2102 -3.2487
  136MOL    H1248882   5.173   0.907   5.634  0.3757  0.6582 -0.5355
  136MOL    H1348883   5.147   0.793   5.509  0.5364  1.0200 -1.2069
  136MOL    H1448884   5.018   1.082   5.509 -2.9288 -0.2505  0.1541
  136MOL    H1548885   4.969   0.947   5.412  0.3391  0.3047 -0.0928
  136MOL    H1648886   4.940   0.956   5.708 -1.3918 -0.8353  0.7440
  136MOL    H1748887   4.905   0.814   5.610  0.5859 -0.1359 -0.7006
  136MOL    H1848888   4.817   0.966   5.583  0.6414  0.6163 -1.2452
  136MOL    H1948889   5.611   0.914   5.363 -0.2210 -0.0934  0.8555
  136MOL    C2048890   5.446   0.874   5.603 -0.7762 -0.2685  0.4882
  136MOL    C2148891   5.583   0.808   5.623  0.1612 -0.6602  0.0439
  136MOL    C2248892   5.637   0.834   5.762 -1.0481  0.2034  0.0397
  136MOL    C2348893   5.726   0.962   5.771 -0.2147 -0.4941 -0.0051
  136MOL    C2448894   5.777   0.982   5.915 -0.0139 -0.8429  0.6859
  136MOL    C2548895   5.870   1.102   5.930  0.2309 -0.7108  0.3675
  136MOL    H2648896   5.364   0.818   5.647 -1.0626 -1.8889 -2.0185
  136MOL    H2748897   5.458   0.973   5.648  0.3388 -0.0342 -0.3008
  136MOL    H2848898   5.651   0.828   5.541 -0.7887  2.6676 -0.0263
  136MOL    H2948899   5.684   0.744   5.799  0.0399  0.5351 -0.5220
  136MOL    H3048900   5.547   0.847   5.823  1.0317 -0.6397  3.4126
  136MOL    H3148901   5.680   1.048   5.723  0.3716 -2.0826 -3.5284
  136MOL    H3248902   5.811   0.940   5.707 -0.9330 -1.4674 -0.6288
  136MOL    H3348903   5.685   0.996   5.973 -1.3182  0.1992 -1.5654
  136MOL    H3448904   5.826   0.894   5.957 -1.4318 -2.5123 -1.0326
  136MOL    H3548905   5.923   1.125   6.022 -1.5367  2.4550  0.6713
  136MOL    H3648906   5.937   1.089   5.845 -1.6913 -0.5051 -1.2220
  136MOL    H3748907   5.805   1.189   5.919 -1.6030 -1.8130  2.0461
  136MOL    C3848908   5.567   0.654   5.601  0.4242 -0.9126  0.2022
  136MOL    C3948909   5.697   0.561   5.607  0.7547  0.5574  0.4864
  136MOL    C4048910   5.650   0.420   5.614 -0.0003 -0.0372  0.0773
  136MOL    C4148911   5.615   0.360   5.753 -0.6320  0.2188 -0.1747
  136MOL    C4248912   5.741   0.342   5.838  0.2681 -0.3428 -0.2330
  136MOL    C4348913   5.732   0.247   5.956  0.1165  0.2788 -0.0685
  136MOL    H4448914   5.524   0.638   5.502 -0.1243 -1.6643  0.5634
  136MOL    H4548915   5.488   0.617   5.665 -0.0604  0.9883  0.7407
  136MOL    H4648916   5.736   0.575   5.707 -0.1605  0.3917  0.8690
  136MOL    H4748917   5.576   0.401   5.536  2.8802 -0.9566 -2.5082
  136MOL    H4848918   5.731   0.360   5.573  0.1521 -1.3732  2.2629
  136MOL    H4948919   5.539   0.419   5.805 -2.4004 -1.6399 -0.5800
  136MOL    H5048920   5.570   0.262   5.742  1.5522 -0.6793 -1.2785
  136MOL    H5148921   5.815   0.295   5.774 -0.8037 -1.3611 -0.7395
  136MOL    H5248922   5.770   0.441   5.873 -0.8282 -0.2489  0.4518
  136MOL    H5348923   5.823   0.191   5.980 -0.1991 -1.5738 -2.9422
  136MOL    H5448924   5.655   0.170   5.946 -0.2684  0.3449  2.0970
  136MOL    H5548925   5.694   0.297   6.045  1.2044  0.3909  0.3433
  136MOL    C5648926   5.798   0.585   5.490  0.7246  0.3894  0.0649
  136MOL    C5748927   5.929   0.499   5.486 -0.0214  0.5501 -0.4361
  136MOL    C5848928   6.006   0.500   5.618  0.8041 -0.0105 -0.2662
  136MOL    C5948929   6.071   0.637   5.669 -0.4696 -1.2012  0.2687
  136MOL    C6048930   6.140   0.624   5.805  0.4199 -0.4328  0.3636
  136MOL    C6148931   6.183   0.754   5.855 -0.0954  0.5494  0.4483
  136MOL    H6248932   5.742   0.581   5.397  2.7466 -1.5426 -1.1085
  136MOL    H6348933   5.821   0.691   5.496  0.1999  0.5035  0.0529
  136MOL    H6448934   5.898   0.399   5.454 -0.8550  1.1372 -1.4920
  136MOL    H6548935   5.949   0.451   5.697  1.5045 -1.3637 -0.5713
  136MOL    H6648936   6.084   0.424   5.608  0.7768 -0.1358  0.4278
  136MOL    H6748937   5.977   0.690   5.685 -0.7549 -1.0012 -1.8843
  136MOL    H6848938   6.128   0.694   5.595 -0.1989 -2.5248 -0.5587
  136MOL    H6948939   6.074   0.574   5.876  0.0284 -0.9348 -0.3470
  136MOL    H7048940   6.222   0.553   5.792  0.9941  0.3119 -0.1451
  136MOL    H7148941   6.182   0.834   5.781 -0.8938  2.0846  2.0796
  136MOL    H7248942   6.120   0.790   5.937  0.0675 -0.7505  1.1583
  136MOL    H7348943   6.286   0.759   5.890  0.4372  1.0438 -1.1828
  136MOL    C7448944   6.013   0.546   5.369  0.4910 -0.0782 -0.0757
  136MOL    C7548945   6.109   0.442   5.310  0.0528 -0.3991  0.3414
  136MOL    C7648946   6.038   0.329   5.235  0.3958 -0.8817 -0.3372
  136MOL    C7748947   6.121   0.232   5.148 -0.0332 -0.6610  0.6790
  136MOL    C7848948   6.040   0.105   5.111  0.3071 -0.0562  0.3315
  136MOL    C7948949   5.932   0.130   5.010  0.1366 -0.7554  0.4381
  136MOL    H8048950   5.947   0.570   5.285  0.8523 -1.3122 -0.7311
  136MOL    H8148951   6.050   0.646   5.386 -0.4742  0.4510 -0.9835
  136MOL    H8248952   6.164   0.385   5.385 -0.5278  0.9106  1.7952
  136MOL    H8348953   5.984   0.265   5.305  2.0247 -2.2784 -0.3027
  136MOL    H8448954   5.949   0.361   5.181 -1.4536 -2.5069  1.6580
  136MOL    H8548955   6.173   0.282   5.066 -0.2242  1.8485  2.0299
  136MOL    H8648956   6.197   0.214   5.224 -0.5501  1.3454  1.7014
  136MOL    H8748957   5.981   0.064   5.193  2.1901 -0.1815  1.6699
  136MOL    H8848958   6.098   0.025   5.064  1.3837  0.8074  0.1632
  136MOL    H8948959   5.865   0.212   5.037  2.0847  1.7271 -2.0138
  136MOL    H9048960   5.980   0.153   4.915  0.9114 -0.6144  0.8666
  136MOL    H9148961   5.860   0.051   4.990 -0.9192  0.2448  0.2300
  136MOL    C9248962   6.211   0.507   5.220 -0.2339 -0.7846 -0.1494
  136MOL    C9348963   6.300   0.617   5.279 -0.6320 -0.0949 -0.2218
  136MOL    C9448964   6.362   0.587   5.414  0.6499  0.2969  0.9610
  136MOL    C9548965   6.419   0.713   5.487 -0.4767 -0.1863 -0.0766
  136MOL    C9648966   6.477   0.675   5.625  0.5669 -1.0608  0.8734
  136MOL    C9748967   6.544   0.787   5.703 -0.2722  0.2472 -0.2292
  136MOL    H9848968   6.279   0.424   5.200  0.0347 -0.8783  1.0908
  136MOL    H9948969   6.173   0.536   5.122  1.6102 -3.1535 -1.6377
  136MOL   H10048970   6.239   0.707   5.291  0.0227  0.7446 -2.9207
  136MOL   H10148971   6.442   0.513   5.407 -1.5977 -1.9812 -1.3391
  136MOL   H10248972   6.278   0.546   5.468 -0.1555  0.3075 -0.2690
  136MOL   H10348973   6.495   0.764   5.428  0.2048  1.0870  1.8231
  136MOL   H10448974   6.335   0.783   5.491 -0.1354  0.2515 -0.6212
  136MOL   H10548975   6.403   0.625   5.687 -1.0883  1.8535  1.3359
  136MOL   H10648976   6.554   0.602   5.600  0.8210 -0.1917 -0.9888
  136MOL   H10748977   6.620   0.839   5.645  0.5181  0.5703  1.0684
  136MOL   H10848978   6.481   0.853   5.763  0.2521 -0.1430  0.7607
  136MOL   H10948979   6.599   0.751   5.790  0.9745  1.8103 -0.3313
  136MOL   C11048980   6.419   0.634   5.183  0.0122  0.3676 -0.2020
  136MOL   C11148981   6.387   0.728   5.062  0.2815  0.0125  0.2145
  136MOL   C11248982   6.505   0.713   4.959 -0.0635  0.2296 -0.0004
  136MOL   C11348983   6.508   0.576   4.884  0.4102 -0.9119 -0.3752
  136MOL   C11448984   6.627   0.560   4.781 -0.0395  0.1288  0.7780
  136MOL   C11548985   6.675   0.408   4.764 -0.0683  0.1109  0.3179
  136MOL   H11648986   6.510   0.673   5.230  0.1517 -0.2702  0.0600
  136MOL   H11748987   6.450   0.536   5.146  1.0541  0.6596 -0.1411
  136MOL   H11848988   6.294   0.696   5.014 -0.2813  0.4139  1.0337
  136MOL   H11948989   6.599   0.709   5.014 -1.0039  0.4850  1.6571
  136MOL   H12048990   6.515   0.794   4.887  3.1876  2.0922  2.4076
  136MOL   H12148991   6.419   0.566   4.821  0.4655 -0.6375 -0.4982
  136MOL   H12248992   6.495   0.495   4.955  1.8141 -1.4730 -0.7499
  136MOL   H12348993   6.703   0.632   4.811 -2.1387  2.8943 -0.4157
  136MOL   H12448994   6.589   0.596   4.686  1.4273  1.5006  0.6819
  136MOL   H12548995   6.735   0.372   4.848  1.6172 -0.4324 -1.0948
  136MOL   H12648996   6.593   0.338   4.748 -0.6056  1.0847 -1.2577
  136MOL   H12748997   6.732   0.392   4.673  0.2898  0.1933  0.5275
  136MOL   C12848998   6.395   0.870   5.108  0.1057  0.8287 -0.7723
  136MOL   C12948999   6.318   0.970   5.020  0.2975  0.1171  0.3129
  136MOL   C13049000   6.347   1.114   5.067 -0.2988  0.5285  0.2139
  136MOL   C13149001   6.310   1.160   5.211  0.0698 -0.4876  0.1179
  136MOL   C13249002   6.355   1.296   5.264 -0.4855 -0.1640 -0.5854
  136MOL   C13349003   6.315   1.423   5.188 -0.5715  0.1311 -0.4556
  136MOL   H13449004   6.495   0.911   5.123  0.4064 -0.3936  0.6392
  136MOL   H13549005   6.348   0.874   5.206 -2.1352  1.8451 -1.8677
  136MOL   H13649006   6.357   0.960   4.919  0.5988 -1.3726  0.5778
  136MOL   H13749007   6.456   1.123   5.063 -0.2255 -0.7263 -0.7467
  136MOL   H13849008   6.300   1.181   4.995 -0.6297 -0.7026 -0.7211
  136MOL   H13949009   6.354   1.087   5.279 -1.1200  0.0465  1.4905
  136MOL   H14049010   6.201   1.155   5.207 -0.1500  1.8277  2.0542
  136MOL   H14149011   6.337   1.301   5.372  1.8441 -1.0512 -0.1148
  136MOL   H14249012   6.462   1.285   5.282 -0.6346  0.7629  0.9520
  136MOL   H14349013   6.387   1.437   5.107  1.4773  0.3276  1.3568
  136MOL   H14449014   6.310   1.510   5.254 -0.9306  0.6954 -1.2222
  136MOL   H14549015   6.216   1.406   5.147 -1.3470  1.3239  0.8655
  136MOL   C14649016   6.162   0.944   5.022  0.3925 -0.0016  0.1672
  136MOL   C14749017   6.076   1.025   4.929  0.3379 -0.8586 -0.3895
  136MOL   C14849018   5.928   1.011   4.979 -0.3901  0.4644  0.8252
  136MOL   C14949019   5.875   0.862   4.988  0.1729 -0.4215 -0.1166
  136MOL   C15049020   5.767   0.849   5.093  0.1822 -0.0456 -0.2431
  136MOL   C15149021   5.727   0.695   5.098  0.0321  0.1869 -0.1656
  136MOL   H15249022   6.146   0.837   5.006  0.5291 -0.0248  0.1875
  136MOL   H15349023   6.133   0.963   5.125  0.5074 -2.2695  0.6410
  136MOL   H15449024   6.098   1.126   4.962  1.8308 -1.4447  0.4870
  136MOL   H15549025   5.864   1.079   4.923  2.1882  2.3709  0.1515
  136MOL   H15649026   5.913   1.062   5.074  0.7196  0.6002  0.9290
  136MOL   H15749027   5.842   0.830   4.889 -0.6342  1.3572 -0.4534
  136MOL   H15849028   5.955   0.796   5.020 -1.0527 -0.9060  2.0278
  136MOL   H15949029   5.679   0.906   5.061  0.2606  1.0036  1.3663
  136MOL   H16049030   5.798   0.900   5.184  2.8311 -1.9957  0.0115
  136MOL   H16149031   5.697   0.658   5.000  1.2851  0.5211 -0.6862
  136MOL   H16249032   5.816   0.641   5.130 -1.7686 -1.2662  2.6191
  136MOL   H16349033   5.643   0.671   5.164  0.9139 -4.4379 -0.5155
  136MOL   C16449034   6.106   1.011   4.775 -1.0361  0.2030 -0.4755
  136MOL   C16549035   6.074   1.123   4.670  0.3065 -0.4298 -0.9600
  136MOL   C16649036   5.925   1.140   4.646 -0.1501 -0.4015  0.0789
  136MOL   C16749037   5.870   1.039   4.542 -0.4627  0.4286 -0.1323
  136MOL   C16849038   5.747   1.081   4.457  0.2361 -0.8533 -0.0657
  136MOL   C16949039   5.647   1.160   4.543  0.2907  0.2306 -0.4689
  136MOL   H17049040   6.214   0.996   4.765 -0.9633 -0.4034  1.1046
  136MOL   H17149041   6.075   0.914   4.735  0.3175  0.5098 -2.3436
  136MOL   H17249042   6.120   1.085   4.579  2.5337 -2.1350  0.8308
  136MOL   H17349043   5.917   1.239   4.602  1.2913 -1.0822 -1.8542
  136MOL   H17449044   5.862   1.126   4.733  1.0657  0.9921  1.2058
  136MOL   H17549045   5.846   0.943   4.588  0.5954 -0.5913 -1.6379
  136MOL   H17649046   5.944   0.993   4.477  1.0622  0.0903  1.7873
  136MOL   H17749047   5.690   1.004   4.405  0.7980 -0.1528 -1.7533
  136MOL   H17849048   5.786   1.155   4.387 -0.1065  0.9364  1.5853
  136MOL   H17949049   5.554   1.183   4.490  1.0681  0.3861 -1.7764
  136MOL   H18049050   5.678   1.261   4.571  1.2747  0.0517 -0.9115
  136MOL   H18149051   5.623   1.102   4.632 -0.6009 -0.8891 -1.4150
  136MOL   C18249052   6.136   1.260   4.715  0.4541 -0.6231 -0.2289
  136MOL   C18349053   6.287   1.275   4.724 -0.1097 -0.6418  0.7793
  136MOL   C18449054   6.329   1.398   4.803  0.6914  0.0231  0.1431
  136MOL   C18549055   6.290   1.537   4.741 -1.0067 -0.1779 -0.8207
  136MOL   C18649056   6.342   1.644   4.840 -0.1272  0.3999  0.3453
  136MOL   C18749057   6.362   1.780   4.769 -0.0931  0.6247 -0.5490
  136MOL   H18849058   6.103   1.331   4.639  1.9373 -0.1811 -0.4786
  136MOL   H18949059   6.090   1.298   4.806 -0.3532  1.7635 -1.5727
  136MOL   H19049060   6.327   1.194   4.785 -3.0535 -3.1415 -0.4592
  136MOL   H19149061   6.297   1.382   4.906  1.1274 -0.7741  0.1590
  136MOL   H19249062   6.436   1.401   4.824  0.5192 -0.2275  1.0399
  136MOL   H19349063   6.181   1.545   4.737 -1.0584 -1.4190 -2.1489
  136MOL   H19449064   6.343   1.546   4.647  0.4982 -2.3702 -0.2211
  136MOL   H19549065   6.427   1.621   4.904 -0.5982  0.6156  1.0570
  136MOL   H19649066   6.270   1.666   4.919  0.4943  1.8636  0.5277
  136MOL   H19749067   6.279   1.831   4.721 -0.7440  1.4522  1.4413
  136MOL   H19849068   6.440   1.768   4.693  0.0709 -1.1355 -0.1331
  136MOL   H19949069   6.400   1.840   4.851  1.9021 -0.8915 -0.3237
  136MOL   C20049070   6.345   1.280   4.576  0.5897  0.0309 -0.4197
  136MOL   C20149071   6.494   1.259   4.559  0.3209  0.0960 -0.2093
  136MOL   C20249072   6.561   1.139   4.625 -0.3564 -0.1358  0.0204
  136MOL   C20349073   6.508   0.998   4.582  0.5975 -0.3866  0.3591
  136MOL   C20449074   6.592   0.898   4.656 -0.7432 -0.0688  0.1923
  136MOL   C20549075   6.733   0.863   4.608  0.6154 -0.4386  0.4801
  136MOL   H20649076   6.308   1.365   4.518  2.4230  1.7415  0.8218
  136MOL   H20749077   6.304   1.189   4.533  1.0338 -0.2406 -0.2676
  136MOL   H20849078   6.530   1.351   4.605  0.2598  0.2488 -0.4630
  136MOL   H20949079   6.544   1.155   4.732 -1.2917  0.9718 -0.2838
  136MOL   H21049080   6.668   1.161   4.627 -0.0305 -1.5797 -1.3757
  136MOL   H21149081   6.516   0.977   4.476 -0.1256 -2.7941  0.7512
  136MOL   H21249082   6.402   0.998   4.609  1.0424  4.0726  2.5119
  136MOL   H21349083   6.525   0.814   4.671  0.9516 -1.7772 -1.6178
  136MOL   H21449084   6.618   0.941   4.753 -1.1531  1.2883 -0.2836
  136MOL   H21549085   6.729   0.793   4.525  0.0859  0.3879 -0.2014
  136MOL   H21649086   6.782   0.951   4.567 -0.7341 -0.7962 -1.9757
  136MOL   H21749087   6.795   0.825   4.690  1.4941 -0.3612 -0.1365
  136MOL   C21849088   6.528   1.274   4.406 -0.0732  0.3509  0.3027
  136MOL   C21949089   6.671   1.238   4.369  0.7920  0.4437 -0.0722
  136MOL   C22049090   6.767   1.341   4.413 -0.0451 -0.6596 -0.7067
  136MOL   C22149091   6.924   1.319   4.410 -0.1229  0.2179 -1.0273
  136MOL   C22249092   7.006   1.430   4.469  0.3574  0.1834 -0.7934
  136MOL   C22349093   7.153   1.392   4.488  0.3066 -0.0156 -0.1872
  136MOL   H22449094   6.458   1.215   4.348  1.6560  0.4593 -1.9329
  136MOL   H22549095   6.503   1.377   4.381 -0.3143  0.0751 -0.5898
  136MOL   H22649096   6.704   1.146   4.416 -0.0404  0.4615  0.5542
  136MOL   H22749097   6.752   1.355   4.521  2.3448 -1.8992 -0.1858
  136MOL   H22849098   6.745   1.440   4.374 -3.1169 -0.9149  0.2629
  136MOL   H22949099   6.957   1.313   4.306  4.5818  0.9950  0.3363
  136MOL   H23049100   6.947   1.224   4.458 -2.6902  1.4065  2.7716
  136MOL   H23149101   6.991   1.518   4.407 -1.5535  0.7400  0.4018
  136MOL   H23249102   6.961   1.458   4.565  3.2345  1.2767  0.2903
  136MOL   H23349103   7.157   1.305   4.554  1.5091  0.5486  0.5039
  136MOL   H23449104   7.210   1.479   4.519 -0.1496 -0.3391  1.6555
  136MOL   H23549105   7.208   1.371   4.396 -0.5770 -0.6403 -0.5834
  136MOL   C23649106   6.693   1.222   4.217 -0.6566  0.0910  0.0873
  136MOL   C23749107   6.627   1.086   4.161 -0.3135 -0.3083  0.0372
  136MOL   C23849108   6.712   0.962   4.200 -0.9865 -0.0604 -0.8175
  136MOL   C23949109   6.860   0.969   4.164 -0.6660 -0.6306  0.1527
  136MOL   C24049110   6.930   0.845   4.219 -0.3876 -0.2334 -1.0085
  136MOL   C24149111   7.071   0.847   4.167  0.2213 -0.0705  0.3948
  136MOL   H24249112   6.652   1.313   4.172 -2.5565 -1.1443 -0.7403
  136MOL   H24349113   6.798   1.214   4.189 -0.9499 -1.1645 -0.6750
  136MOL   H24449114   6.532   1.063   4.210  0.2486 -0.5707  1.0104
  136MOL   H24549115   6.700   0.925   4.302  3.9251 -0.4084 -0.2672
  136MOL   H24649116   6.660   0.882   4.147  0.5357 -1.0160 -0.8739
  136MOL   H24749117   6.903   1.048   4.225 -0.6907 -0.2464 -0.3203
  136MOL   H24849118   6.874   0.986   4.057 -1.9125 -0.7702 -0.0472
  136MOL   H24949119   6.930   0.840   4.328 -0.5238 -0.9828 -1.0398
  136MOL   H25049120   6.871   0.760   4.186  0.8374 -1.4957 -0.0182
  136MOL   H25149121   7.112   0.938   4.212 -3.0505  1.2087  0.9684
  136MOL   H25249122   7.133   0.759   4.183 -0.9112 -0.7539  1.1292
  136MOL   H25349123   7.076   0.859   4.059  0.8262 -0.4350  0.3808
  136MOL   C25449124   6.600   1.099   4.003  0.1572 -0.7888 -0.6217
  136MOL   C25549125   6.486   1.189   3.969  0.5917  0.3992  0.2570
  136MOL   C25649126   6.352   1.111   3.964  0.0224  0.3107 -0.2077
  136MOL   C25749127   6.304   1.043   3.835 -0.1174  0.3080 -0.0583
  136MOL   C25849128   6.392   0.930   3.775 -0.2118  0.1024 -0.9061
  136MOL   C25949129   6.319   0.864   3.654  0.2114  0.3582  0.7839
  136MOL   H26049130   6.577   1.001   3.963  1.3617 -2.9637  3.6468
  136MOL   H26149131   6.690   1.132   3.951  0.4197  0.3340  0.5053
  136MOL   H26249132   6.473   1.257   4.053 -3.4808 -1.3781  1.2152
  136MOL   H26349133   6.359   1.041   4.047 -4.7766  0.6871  0.6694
  136MOL   H26449134   6.275   1.177   4.004 -1.1104 -0.5431 -0.9331
  136MOL   H26549135   6.201   1.009   3.844  0.1057 -0.6938 -1.2347
  136MOL   H26649136   6.313   1.121   3.760  1.0358 -0.5948 -0.8655
  136MOL   H26749137   6.424   0.856   3.849 -2.2887  0.3148  0.2501
  136MOL   H26849138   6.487   0.976   3.748  0.4271  0.3303  1.5703
  136MOL   H26949139   6.344   0.921   3.565 -1.0587 -0.0414  0.1616
  136MOL   H27049140   6.211   0.855   3.666  0.2483 -1.6897 -0.2478
  136MOL   H27149141   6.355   0.762   3.647  0.7892  0.7408 -2.5198
  136MOL   C27249142   6.512   1.282   3.854  0.3802  0.1324  0.5023
  136MOL   C27349143   6.395   1.377   3.811 -0.6290  0.3099 -0.1013
  136MOL   C27449144   6.409   1.429   3.666 -0.1716  1.0078  0.2619
  136MOL   C27549145   6.510   1.532   3.652 -0.2405 -0.0433  0.4057
  136MOL   C27649146   6.531   1.569   3.513 -0.2755 -0.6756  0.0514
  136MOL   C27749147   6.651   1.660   3.504 -0.4636  0.6596 -0.4596
  136MOL   H27849148   6.600   1.344   3.870  1.2916 -0.8900 -0.4284
  136MOL   H27949149   6.534   1.226   3.762  0.7425  0.4356  0.4029
  136MOL   H28049150   6.300   1.325   3.821 -0.0427 -0.8323 -0.3086
  136MOL   H28149151   6.313   1.463   3.626 -0.4374 -0.7096 -0.6530
  136MOL   H28249152   6.420   1.344   3.598 -0.9073  1.5262 -0.5099
  136MOL   H28349153   6.611   1.505   3.683  0.4644  2.8319  0.7325
  136MOL   H28449154   6.483   1.626   3.701  0.2283 -0.1152  0.8043
  136MOL   H28549155   6.532   1.487   3.442 -2.8077 -0.6284 -0.0909
  136MOL   H28649156   6.450   1.639   3.489 -0.4937 -0.7864  0.4613
  136MOL   H28749157   6.747   1.617   3.533  0.0456  1.7208 -0.5099
  136MOL   H28849158   6.666   1.698   3.403  0.9065  0.6241 -0.2829
  136MOL   H28949159   6.653   1.746   3.571 -2.3550  0.5082 -0.2027
  136MOL   C29049160   6.383   1.495   3.913 -0.1640 -0.8538 -0.3325
  136MOL   C29149161   6.245   1.565   3.912  0.4260  0.2344  0.2425
  136MOL   C29249162   6.141   1.479   3.988 -0.3428  0.5035  0.2135
  136MOL   C29349163   6.146   1.455   4.136 -0.3132 -0.1934  0.5008
  136MOL   C29449164   6.068   1.334   4.187  0.0392  0.3500 -0.1779
  136MOL   C29549165   6.084   1.311   4.332 -0.1256  1.0270  0.1789
  136MOL   H29649166   6.471   1.559   3.903 -0.1583 -0.8104 -0.0184
  136MOL   H29749167   6.409   1.457   4.012  3.0491 -1.7358 -1.4478
  136MOL   H29849168   6.205   1.576   3.811  0.6608  0.8070  0.2076
  136MOL   H29949169   6.142   1.380   3.942  1.0270  0.0039  1.2905
  136MOL   H30049170   6.039   1.518   3.980 -0.6755 -0.8239 -2.4248
  136MOL   H30149171   6.250   1.439   4.165 -0.5715 -0.2058  1.4104
  136MOL   H30249172   6.124   1.548   4.188  0.4719 -0.8738  2.0589
  136MOL   H30349173   6.095   1.247   4.128  1.9423  0.5893  0.3042
  136MOL   H30449174   5.960   1.347   4.174 -0.1130  1.2098  1.7176
  136MOL   H30549175   6.027   1.387   4.385  0.1795  0.9190  0.6655
  136MOL   H30649176   6.188   1.290   4.358 -0.2849 -0.2183 -0.1502
  136MOL   H30749177   6.039   1.217   4.365  1.0080  0.0716 -0.9463
  136MOL   C30849178   6.269   1.706   3.976  0.4476  0.6031 -0.4074
  136MOL   C30949179   6.143   1.800   3.987 -0.8973  0.3424 -0.2852
  136MOL   C31049180   6.068   1.813   3.851  0.4811 -0.5146 -0.4078
  136MOL   C31149181   6.138   1.880   3.732  0.0548  0.1430  0.5900
  136MOL   C31249182   6.033   1.917   3.620  0.0783  0.1180  0.1165
  136MOL   C31349183   5.959   1.799   3.550  0.8003 -0.0385 -0.8436
  136MOL   H31449184   6.321   1.701   4.071  0.9698 -2.6669 -0.8133
  136MOL   H31549185   6.347   1.761   3.922  1.0705 -0.3419 -0.4900
  136MOL   H31649186   6.072   1.755   4.056  1.1220 -0.6326  1.2073
  136MOL   H31749187   5.985   1.876   3.882  1.2729  0.2708  0.1456
  136MOL   H31849188   6.030   1.716   3.819 -1.0465  0.4308 -1.5457
  136MOL   H31949189   6.208   1.810   3.687 -1.5549 -1.4403  0.4897
  136MOL   H32049190   6.187   1.973   3.762  0.2133  0.1204  0.4047
  136MOL   H32149191   5.967   1.991   3.665  1.4818  0.9173  0.9165
  136MOL   H32249192   6.082   1.956   3.531 -1.7859  1.9192 -0.1510
  136MOL   H32349193   6.023   1.712   3.536 -0.9090 -1.5011  0.2295
  136MOL   H32449194   5.926   1.837   3.453  0.1431  1.6455  0.0057
  136MOL   H32549195   5.872   1.762   3.603  1.3008  1.2345  0.9337
  136MOL   C32649196   6.163   1.948   4.046  0.5115  0.4734  0.1179
  136MOL   C32749197   6.206   1.960   4.195 -0.2171 -0.1058  0.1170
  136MOL   C32849198   6.330   2.051   4.208  0.0410  0.2782  0.3840
  136MOL   C32949199   6.379   2.059   4.355 -0.4016  0.5699 -0.2546
  136MOL   C33049200   6.530   2.117   4.361  0.3353 -0.0059  0.1660
  136MOL   C33149201   6.524   2.263   4.332  1.1481 -0.5199  0.0591
  136MOL   H33249202   6.072   2.006   4.036  1.2513  2.1602  2.7658
  136MOL   H33349203   6.233   2.001   3.981 -0.8266  1.5183 -0.4880
  136MOL   H33449204   6.237   1.861   4.229 -1.3094  0.8434  4.1623
  136MOL   H33549205   6.408   2.001   4.151 -0.9948  1.0360 -1.7447
  136MOL   H33649206   6.309   2.141   4.150  0.6064 -0.1688 -0.5225
  136MOL   H33749207   6.374   1.962   4.403  0.8833  0.9937  0.7854
  136MOL   H33849208   6.303   2.122   4.401 -0.7994 -0.0025 -0.1241
  136MOL   H33949209   6.569   2.108   4.462  2.6081  2.1069 -0.4994
  136MOL   H34049210   6.593   2.065   4.289 -2.7990  0.2636 -2.9316
  136MOL   H34149211   6.466   2.314   4.409 -0.1401 -4.5162  1.8845
  136MOL   H34249212   6.472   2.282   4.237 -0.6337  1.9433  1.4778
  136MOL   H34349213   6.629   2.287   4.317  0.5218  1.1974 -1.8788
  136MOL   C34449214   6.085   2.007   4.285  0.3597  0.1598 -0.2085
  136MOL   C34549215   6.034   2.148   4.266  0.6189 -0.1076 -0.4818
  136MOL   C34649216   5.934   2.196   4.370  0.1832 -0.0268 -0.0453
  136MOL   C34749217   5.943   2.345   4.386  0.8806  0.8011 -0.2961
  136MOL   C34849218   5.839   2.390   4.494  0.4995 -0.4611 -0.0312
  136MOL   C34949219   5.834   2.541   4.509 -0.0250 -0.1373  0.8817
  136MOL   H35049220   6.006   1.932   4.277  0.7422 -0.2418 -0.2157
  136MOL   H35149221   6.117   1.998   4.388 -1.6814 -5.1479  0.1086
  136MOL   H35249222   5.989   2.181   4.173 -0.2308  2.8775  0.9385
  136MOL   H35349223   5.833   2.183   4.332  0.1012  1.9042 -0.5321
  136MOL   H35449224   5.943   2.144   4.466 -1.9013  0.3619  0.3781
  136MOL   H35549225   6.044   2.360   4.424  1.0175  0.8435 -0.6754
  136MOL   H35649226   5.921   2.399   4.294 -1.9943  0.1645 -0.0403
  136MOL   H35749227   5.737   2.362   4.469  1.3202 -0.5124 -3.6259
  136MOL   H35849228   5.870   2.346   4.588  0.2257 -0.6944 -0.0483
  136MOL   H35949229   5.800   2.588   4.418 -1.1266 -1.3490  0.6627
  136MOL   H36049230   5.774   2.571   4.595 -3.0702  0.9807 -1.5769
  136MOL   H36149231   5.935   2.576   4.532  0.1935 -0.0749 -0.1707
  136MOL   H36249232   6.123   2.212   4.265  0.3121  0.4390  2.2853
  137MOL     C149233   5.718   0.134   3.138  0.3075  0.1532  0.3653
  137MOL     C249234   5.745   0.080   3.278 -0.1692 -0.4277  0.1080
  137MOL     C349235   5.739   7.653   3.275  0.1732  0.7167 -0.0667
  137MOL     C449236   5.787   7.577   3.400 -0.4997 -0.2971 -0.5801
  137MOL     C549237   5.803   7.428   3.375 -0.3816 -0.1085  0.4523
  137MOL     C649238   5.844   7.351   3.500 -0.2074 -0.3882 -0.4533
  137MOL     H749239   5.729   0.242   3.133 -1.8892  0.4604  1.5782
  137MOL     H849240   5.794   0.103   3.066 -1.6550  0.3687 -1.8393
  137MOL     H949241   5.849   0.100   3.305  0.0724 -0.7943 -0.5421
  137MOL    H1049242   5.802   7.619   3.192 -0.1723  0.8340 -0.3769
  137MOL    H1149243   5.637   7.633   3.241  1.1165 -0.1127 -2.5535
  137MOL    H1249244   5.719   7.590   3.484 -0.3897  1.6124 -0.7621
  137MOL    H1349245   5.881   7.618   3.437 -0.9613 -1.2617  1.7665
  137MOL    H1449246   5.716   7.377   3.332  0.3709 -1.5870  0.6552
  137MOL    H1549247   5.884   7.415   3.304  0.3762  1.6573  0.9746
  137MOL    H1649248   5.951   7.366   3.514 -0.9849  2.8778  2.6398
  137MOL    H1749249   5.817   7.246   3.487 -2.3944 -0.2035  2.1694
  137MOL    H1849250   5.786   7.390   3.584  0.2060 -0.9624  0.1084
  137MOL    H1949251   5.620   0.105   3.099  0.5397 -0.9564  0.5776
  137MOL    C2049252   5.649   0.138   3.391  0.4194 -0.3090 -0.9206
  137MOL    C2149253   5.629   0.292   3.396  0.0233  0.1992  0.8460
  137MOL    C2249254   5.530   0.340   3.510 -0.0305  0.4951 -0.2707
  137MOL    C2349255   5.385   0.322   3.472 -0.5092 -0.0428  0.4158
  137MOL    C2449256   5.284   0.365   3.573 -0.8478  0.9867  0.4684
  137MOL    C2549257   5.141   0.357   3.508 -0.0466  0.2630  0.2407
  137MOL    H2649258   5.671   0.093   3.487  1.1581 -1.0078 -1.4097
  137MOL    H2749259   5.554   0.088   3.372 -1.6300  3.7276 -2.1075
  137MOL    H2849260   5.580   0.303   3.299 -1.1813  0.6516  1.4919
  137MOL    H2949261   5.540   0.449   3.519 -1.6692  0.5960  0.4501
  137MOL    H3049262   5.546   0.292   3.606  2.6507  2.1530  0.1897
  137MOL    H3149263   5.367   0.214   3.468  1.5585 -0.4010 -0.4216
  137MOL    H3249264   5.371   0.374   3.377 -0.4435 -0.1556  0.3433
  137MOL    H3349265   5.290   0.308   3.666  2.3969  0.1271 -0.2253
  137MOL    H3449266   5.298   0.469   3.601 -1.5434  0.5879  2.4202
  137MOL    H3549267   5.129   0.259   3.461 -1.9394  0.2145  0.7908
  137MOL    H3649268   5.060   0.376   3.579  1.0578 -0.0145  1.6064
  137MOL    H3749269   5.117   0.426   3.428 -1.5686  1.4489  1.6739
  137MOL    C3849270   5.771   0.361   3.411  0.1106  0.3016  0.0428
  137MOL    C3949271   5.816   0.380   3.563 -1.1424  0.4440 -0.3831
  137MOL    C4049272   5.901   0.262   3.597 -0.1137  0.2394 -0.4771
  137MOL    C4149273   5.909   0.225   3.754 -0.0595  0.0933  0.3208
  137MOL    C4249274   5.963   0.082   3.784 -0.4947 -0.2070  0.4769
  137MOL    C4349275   6.094   0.042   3.712 -0.0827  0.0504 -0.2711
  137MOL    H4449276   5.779   0.460   3.366  2.8946  0.1408  0.0992
  137MOL    H4549277   5.850   0.310   3.356 -0.3240  1.1248 -1.3932
  137MOL    H4649278   5.732   0.369   3.633 -0.7026 -0.5137  0.0117
  137MOL    H4749279   5.853   0.174   3.554  1.9307 -1.8598  1.3979
  137MOL    H4849280   6.001   0.275   3.556  0.1435  1.0315  0.3824
  137MOL    H4949281   5.961   0.309   3.800  0.0863  0.7894 -1.0867
  137MOL    H5049282   5.811   0.239   3.799 -0.8415 -0.7698 -1.0672
  137MOL    H5149283   5.968   0.069   3.892 -1.1428 -0.2192  0.5036
  137MOL    H5249284   5.882   0.014   3.756 -1.1031  0.2235  1.1756
  137MOL    H5349285   6.176   0.106   3.744 -0.0339 -0.0001 -0.2962
  137MOL    H5449286   6.068   0.049   3.606  0.4777  1.6960 -0.3112
  137MOL    H5549287   6.124   7.666   3.733 -0.4708  0.3195  1.7567
  137MOL    C5649288   5.888   0.513   3.590 -0.1318 -0.2957  0.0723
  137MOL    C5749289   5.811   0.652   3.615 -0.6907  0.6578  0.0505
  137MOL    C5849290   5.709   0.643   3.729  0.3914  0.1359 -0.2244
  137MOL    C5949291   5.753   0.556   3.845 -0.0741 -0.0421 -0.6048
  137MOL    C6049292   5.649   0.558   3.963 -0.0477  0.6841  0.2575
  137MOL    C6149293   5.513   0.506   3.925  0.0218  0.5987 -0.4231
  137MOL    H6249294   5.950   0.507   3.680  0.8569 -1.6967 -0.6933
  137MOL    H6349295   5.962   0.526   3.512  0.0095 -0.1253  0.2327
  137MOL    H6449296   5.891   0.714   3.656  0.9823 -1.5957  0.2962
  137MOL    H6549297   5.696   0.744   3.767 -0.6329  0.0616 -0.3626
  137MOL    H6649298   5.606   0.620   3.699  0.2799  0.9175 -0.4552
  137MOL    H6749299   5.849   0.593   3.882 -1.5425  2.2695  0.9553
  137MOL    H6849300   5.779   0.451   3.829 -2.1667 -0.4814 -1.2978
  137MOL    H6949301   5.697   0.511   4.048 -0.5664  0.0349  0.1981
  137MOL    H7049302   5.641   0.660   4.000 -0.2948  0.6383  0.3332
  137MOL    H7149303   5.461   0.584   3.870 -1.6464 -0.4429 -0.3739
  137MOL    H7249304   5.518   0.412   3.870 -0.2829 -0.5429  1.4326
  137MOL    H7349305   5.459   0.482   4.017  2.0696 -0.6886  0.4837
  137MOL    C7449306   5.768   0.729   3.491 -0.1014 -0.3189  0.5349
  137MOL    C7549307   5.694   0.868   3.514 -0.3720  0.2508 -0.1894
  137MOL    C7649308   5.798   0.982   3.533  0.0831  0.1899 -0.1525
  137MOL    C7749309   5.731   1.119   3.581 -0.6789  0.5867 -0.3731
  137MOL    C7849310   5.822   1.239   3.580  0.0311  0.0080 -0.3698
  137MOL    C7949311   5.788   1.368   3.652  0.8456 -0.2866  0.2963
  137MOL    H8049312   5.857   0.751   3.432  0.8241  2.0142  2.7027
  137MOL    H8149313   5.710   0.656   3.434 -1.5185 -0.5371  2.2194
  137MOL    H8249314   5.652   0.866   3.615 -0.4459  0.3572 -0.2178
  137MOL    H8349315   5.871   0.965   3.611  0.0351  4.5874  1.0123
  137MOL    H8449316   5.851   1.005   3.440  0.4749  2.5664  0.6084
  137MOL    H8549317   5.657   1.152   3.507 -0.9181  0.0345 -0.3874
  137MOL    H8649318   5.678   1.117   3.676 -2.2080 -2.7350 -1.1871
  137MOL    H8749319   5.856   1.259   3.478 -0.4702  1.7545 -0.2081
  137MOL    H8849320   5.915   1.207   3.628 -0.0221  2.4001  1.4172
  137MOL    H8949321   5.775   1.352   3.759 -1.4198 -0.0814  0.0830
  137MOL    H9049322   5.865   1.442   3.631  0.6373 -0.1201  0.1058
  137MOL    H9149323   5.697   1.410   3.608 -1.4892 -1.9517  3.3236
  137MOL    C9249324   5.598   0.897   3.398  0.3827 -0.2958  0.1695
  137MOL    C9349325   5.463   0.807   3.392  0.1258 -0.1385  0.4660
  137MOL    C9449326   5.371   0.819   3.520  0.2851  0.2816  0.5658
  137MOL    C9549327   5.350   0.958   3.580  0.1159  0.4674  0.5746
  137MOL    C9649328   5.300   0.965   3.737  0.7398 -0.0963 -0.3614
  137MOL    C9749329   5.205   0.846   3.779  0.5260 -0.0616  0.1381
  137MOL    H9849330   5.567   1.001   3.391  0.0689 -0.4393 -0.6565
  137MOL    H9949331   5.649   0.890   3.302 -2.0084  0.3102 -1.1757
  137MOL   H10049332   5.484   0.700   3.398 -0.0744 -0.2662 -0.9165
  137MOL   H10149333   5.416   0.759   3.599  2.1227  2.0445  0.8968
  137MOL   H10249334   5.269   0.788   3.501  0.5863 -0.2407 -0.2550
  137MOL   H10349335   5.443   1.016   3.585 -0.3768  1.1905  1.5687
  137MOL   H10449336   5.272   1.006   3.521 -2.1880 -0.5739  2.6818
  137MOL   H10549337   5.381   0.961   3.809 -1.1572  0.9882  1.9055
  137MOL   H10649338   5.243   1.057   3.751 -0.2677 -0.5944 -1.1914
  137MOL   H10749339   5.262   0.753   3.774  0.4811 -0.0941  0.2239
  137MOL   H10849340   5.172   0.879   3.877 -0.1184 -0.4391  0.0462
  137MOL   H10949341   5.112   0.843   3.722  0.2642 -0.9715  0.6038
  137MOL   C11049342   5.370   0.835   3.265  0.7423 -0.2277  0.4437
  137MOL   C11149343   5.339   0.711   3.180  0.5356  0.0803 -0.2149
  137MOL   C11249344   5.462   0.649   3.118 -0.3512 -0.6292 -0.2006
  137MOL   C11349345   5.538   0.753   3.026  0.1782  0.0890  0.3679
  137MOL   C11449346   5.669   0.705   2.958  0.3485 -0.1034  0.1340
  137MOL   C11549347   5.773   0.663   3.057  0.1478 -0.5318 -0.1252
  137MOL   H11649348   5.277   0.875   3.304 -0.1160  0.1430 -1.8906
  137MOL   H11749349   5.417   0.909   3.200 -0.1478  0.7999  0.9602
  137MOL   H11849350   5.317   0.636   3.257  3.3587 -0.9882 -0.3851
  137MOL   H11949351   5.431   0.562   3.060  1.6056 -1.1926 -0.4417
  137MOL   H12049352   5.525   0.612   3.199  0.1588  1.9431  0.6377
  137MOL   H12149353   5.557   0.843   3.083  2.7662 -0.7151  0.8273
  137MOL   H12249354   5.466   0.785   2.952  0.6235  0.2054 -0.0119
  137MOL   H12349355   5.717   0.785   2.900 -1.2458 -0.6315 -1.9994
  137MOL   H12449356   5.656   0.623   2.888  1.1383  1.2503 -1.6464
  137MOL   H12549357   5.871   0.657   3.009  0.0331 -1.7840 -0.2074
  137MOL   H12649358   5.781   0.743   3.131 -0.1785  0.9273 -1.6132
  137MOL   H12749359   5.747   0.570   3.106  3.0898 -1.6029 -0.5209
  137MOL   C12849360   5.228   0.730   3.075 -0.1815 -0.0638 -0.4354
  137MOL   C12949361   5.089   0.672   3.101 -0.1803 -0.4229 -0.0567
  137MOL   C13049362   5.019   0.753   3.205 -0.3882 -0.1279  0.5027
  137MOL   C13149363   4.875   0.717   3.224  0.3953  0.3051  0.2326
  137MOL   C13249364   4.800   0.827   3.298  0.2179 -0.1968 -1.0087
  137MOL   C13349365   4.649   0.796   3.294  0.4325 -0.4056  0.3946
  137MOL   H13449366   5.270   0.673   2.992 -1.1157 -0.7839 -0.4231
  137MOL   H13549367   5.214   0.837   3.057  1.3693 -0.4030 -4.2973
  137MOL   H13649368   5.041   0.693   3.006 -0.9657  1.2307  0.6901
  137MOL   H13749369   5.081   0.731   3.292  2.0110  1.1775 -0.8148
  137MOL   H13849370   5.034   0.854   3.166 -0.6567 -0.2341  0.1222
  137MOL   H13949371   4.866   0.633   3.293 -1.0808 -0.4410 -0.8301
  137MOL   H14049372   4.824   0.690   3.131  0.0960 -1.3436  0.8658
  137MOL   H14149373   4.841   0.840   3.398 -2.8096 -1.1427  0.4111
  137MOL   H14249374   4.815   0.925   3.252 -1.6858  0.0459 -1.1682
  137MOL   H14349375   4.596   0.863   3.362  0.0592 -0.4355  0.1291
  137MOL   H14449376   4.633   0.692   3.322 -2.4112 -0.2839 -0.6572
  137MOL   H14549377   4.596   0.810   3.201  1.1343 -0.8176 -0.0728
  137MOL   C14649378   5.089   0.521   3.127  0.3084 -0.2666 -0.2827
  137MOL   C14749379   4.981   0.429   3.065  0.0554 -0.0512  0.1900
  137MOL   C14849380   4.987   0.288   3.129 -0.1315  0.1281  0.6865
  137MOL   C14949381   5.102   0.202   3.074  0.2460 -0.2046 -0.4238
  137MOL   C15049382   5.145   0.101   3.182 -0.1155 -0.4070 -0.7347
  137MOL   C15149383   5.235   7.721   3.124 -0.2212  0.4947  0.6647
  137MOL   H15249384   5.183   0.481   3.088  0.6818 -0.9982  1.3138
  137MOL   H15349385   5.098   0.512   3.235  1.5176  3.9909  0.0397
  137MOL   H15449386   4.884   0.465   3.098 -0.1476  1.6932 -2.1076
  137MOL   H15549387   4.898   0.227   3.111  1.1550 -1.3795 -0.8544
  137MOL   H15649388   4.998   0.300   3.236  0.6330 -1.0397  0.7569
  137MOL   H15749389   5.070   0.147   2.986 -2.1001  0.6501 -0.1584
  137MOL   H15849390   5.195   0.252   3.050  0.5373  0.5411  2.0831
  137MOL   H15949391   5.065   0.049   3.234 -0.5586 -0.1375 -1.1427
  137MOL   H16049392   5.197   0.146   3.267  1.3810 -1.5251 -1.0503
  137MOL   H16149393   5.310   7.693   3.198  0.8798  2.0948  0.1915
  137MOL   H16249394   5.172   7.634   3.103  0.1270  1.0178 -2.9364
  137MOL   H16349395   5.282   0.014   3.027 -4.5222 -0.5185 -1.7391
  137MOL   C16449396   4.988   0.440   2.911  0.5517  0.5872  0.2654
  137MOL   C16549397   4.882   0.349   2.837 -0.6594  0.3140 -0.7498
  137MOL   C16649398   4.731   0.362   2.874 -0.4750 -0.3593  0.2799
  137MOL   C16749399   4.661   0.503   2.868 -0.5983  0.1252 -0.9046
  137MOL   C16849400   4.510   0.490   2.894 -0.6879 -0.5191  0.1790
  137MOL   C16949401   4.457   0.629   2.887  1.0217 -0.4054  0.0391
  137MOL   H17049402   4.977   0.542   2.874 -0.0962 -0.5248 -2.7719
  137MOL   H17149403   5.090   0.413   2.882  0.3089  0.3671 -0.3905
  137MOL   H17249404   4.924   0.253   2.868 -0.6697  1.0464  1.6261
  137MOL   H17349405   4.727   0.337   2.980  1.4209 -1.8300  0.0470
  137MOL   H17449406   4.670   0.287   2.823 -0.3189 -0.8995  0.8729
  137MOL   H17549407   4.667   0.548   2.769 -0.5681  1.2442 -0.4004
  137MOL   H17649408   4.706   0.583   2.927  0.3583 -1.4519  0.5787
  137MOL   H17749409   4.507   0.434   2.988  0.5099 -1.8517 -0.5611
  137MOL   H17849410   4.460   0.425   2.822  1.0851 -0.6500 -0.9526
  137MOL   H17949411   4.501   0.691   2.965 -0.5199  0.2387  0.4189
  137MOL   H18049412   4.350   0.628   2.910  0.4409  2.0096 -2.2950
  137MOL   H18149413   4.473   0.678   2.790  1.3796 -1.4699 -0.4472
  137MOL   C18249414   4.898   0.343   2.683 -0.1085 -1.0929 -0.3371
  137MOL   C18349415   4.849   0.220   2.607 -0.5220  0.6077  0.0908
  137MOL   C18449416   4.897   0.088   2.649 -0.3462  0.3122  0.4444
  137MOL   C18549417   5.054   0.069   2.655 -0.6558  0.4838 -0.7127
  137MOL   C18649418   5.098   7.659   2.719 -0.7401 -0.0156 -0.2093
  137MOL   C18749419   5.251   7.629   2.684 -0.5820  0.3023  0.1969
  137MOL   H18849420   4.850   0.436   2.649  0.2298  0.0512  2.2182
  137MOL   H18949421   5.002   0.361   2.655  0.0162 -0.7313  0.3464
  137MOL   H19049422   4.743   0.210   2.632 -0.6130  0.4100 -0.3765
  137MOL   H19149423   4.859   0.071   2.750  1.4104 -1.6202  0.8273
  137MOL   H19249424   4.845   0.008   2.595  1.2378  0.1706 -0.9273
  137MOL   H19349425   5.097   0.158   2.702 -2.0276  2.5046 -3.1994
  137MOL   H19449426   5.089   0.078   2.552  0.5933  0.0960 -0.3285
  137MOL   H19549427   5.026   7.584   2.687  1.9236 -2.3985 -0.8201
  137MOL   H19649428   5.087   7.662   2.828  1.4836  2.6613 -0.0072
  137MOL   H19749429   5.319   7.711   2.709  1.6337 -1.2505 -0.5745
  137MOL   H19849430   5.272   7.604   2.581  0.2665 -1.2307  0.7284
  137MOL   H19949431   5.291   7.554   2.753  1.5885  0.4817 -0.8440
  137MOL   C20049432   4.837   0.237   2.451 -0.0895 -0.3101  0.0989
  137MOL   C20149433   4.748   0.360   2.399  0.1473 -0.2730 -0.3650
  137MOL   C20249434   4.765   0.383   2.245 -0.4519 -0.5945  0.4266
  137MOL   C20349435   4.708   0.274   2.152 -0.1880 -0.6269  0.1328
  137MOL   C20449436   4.788   0.274   2.014 -0.0806 -0.6501 -0.3334
  137MOL   C20549437   4.766   0.152   1.922 -0.1178 -0.2414  0.0575
  137MOL   H20649438   4.794   0.144   2.413  1.0154 -0.5085 -0.6723
  137MOL   H20749439   4.934   0.234   2.402 -0.8623 -1.9853 -1.3965
  137MOL   H20849440   4.792   0.451   2.439 -1.5005  0.1336  0.5960
  137MOL   H20949441   4.872   0.394   2.230 -0.4402 -2.4712 -1.1262
  137MOL   H21049442   4.732   0.485   2.228  1.3450  0.0780  0.8935
  137MOL   H21149443   4.601   0.292   2.146 -0.5285 -1.7274  2.4428
  137MOL   H21249444   4.715   0.175   2.198 -0.2879 -0.9818 -0.6060
  137MOL   H21349445   4.895   0.269   2.038 -0.2382  0.7794  0.7052
  137MOL   H21449446   4.783   0.371   1.965  1.1052  0.2357  1.2295
  137MOL   H21549447   4.667   0.154   1.878 -0.0666 -2.6359 -0.2409
  137MOL   H21649448   4.830   0.141   1.834 -0.8909 -1.9619 -0.2970
  137MOL   H21749449   4.766   0.057   1.974  0.9716 -0.6009 -0.5780
  137MOL   C21849450   4.602   0.356   2.428  0.7848  0.1019  0.5223
  137MOL   C21949451   4.524   0.491   2.392  0.0337  0.2050 -0.1937
  137MOL   C22049452   4.562   0.602   2.498  0.4375  0.0186 -0.0952
  137MOL   C22149453   4.548   0.740   2.445  0.3096 -0.6165  0.1649
  137MOL   C22249454   4.598   0.847   2.541  1.0353  0.2053 -0.0193
  137MOL   C22349455   4.574   0.991   2.504  0.9464 -0.1982  0.1753
  137MOL   H22449456   4.555   0.270   2.379  1.0557  0.5116 -0.4765
  137MOL   H22549457   4.594   0.350   2.536 -2.6586  1.0700  0.4004
  137MOL   H22649458   4.546   0.528   2.292 -2.1334  2.0017 -0.0375
  137MOL   H22749459   4.667   0.601   2.524  0.2531 -1.6150  0.6281
  137MOL   H22849460   4.496   0.599   2.585  0.5847  1.9483  0.0980
  137MOL   H22949461   4.447   0.759   2.409  0.5789 -0.6864 -0.6546
  137MOL   H23049462   4.607   0.749   2.353 -1.4234 -1.9354 -1.1195
  137MOL   H23149463   4.564   0.839   2.645  1.8475 -2.7074  0.0550
  137MOL   H23249464   4.706   0.839   2.556  1.1183  1.4938  0.1039
  137MOL   H23349465   4.470   1.026   2.508  0.7769 -0.9502  3.8768
  137MOL   H23449466   4.610   1.013   2.403 -2.4459 -1.1787 -1.3343
  137MOL   H23549467   4.623   1.052   2.580  0.4192  0.8092 -0.2785
  137MOL   C23649468   4.366   0.474   2.403 -0.9875 -0.6083 -0.4736
  137MOL   C23749469   4.297   0.373   2.302 -0.3475  0.8743  0.5644
  137MOL   C23849470   4.322   0.406   2.148 -0.0220  0.0562 -0.3928
  137MOL   C23949471   4.305   0.289   2.056  0.1049  0.5535 -0.6802
  137MOL   C24049472   4.330   0.325   1.906 -0.3053  0.2786  0.2727
  137MOL   C24149473   4.213   0.397   1.839  0.5362 -0.0147 -0.2696
  137MOL   H24249474   4.351   0.441   2.505  3.0440 -0.5279  0.2470
  137MOL   H24349475   4.320   0.573   2.396  2.2197  1.0762  1.2436
  137MOL   H24449476   4.350   0.278   2.318 -2.4557  0.0010  2.7588
  137MOL   H24549477   4.273   0.490   2.099 -1.8248 -0.9899 -0.4145
  137MOL   H24649478   4.425   0.442   2.145 -0.2047  0.5930 -0.3095
  137MOL   H24749479   4.205   0.247   2.065 -0.4892  2.0165 -0.2749
  137MOL   H24849480   4.367   0.201   2.073 -1.9654 -0.8265 -0.0902
  137MOL   H24949481   4.420   0.388   1.902  0.1807 -0.2626  2.0575
  137MOL   H25049482   4.358   0.230   1.859  0.2451  1.0850 -1.0667
  137MOL   H25149483   4.188   0.485   1.897  0.6097 -1.1100  1.4840
  137MOL   H25249484   4.233   0.419   1.734 -1.2707 -0.1578 -0.6570
  137MOL   H25349485   4.131   0.326   1.842 -0.4430  0.9830 -2.3887
  137MOL   C25449486   4.151   0.353   2.329  0.3144 -0.1119 -0.2052
  137MOL   C25549487   4.121   0.254   2.447  0.1349 -0.0229 -0.3728
  137MOL   C25649488   4.129   0.105   2.418 -0.7379 -0.0251 -0.3022
  137MOL   C25749489   4.170   0.020   2.533  0.5189  0.6088 -0.2717
  137MOL   C25849490   4.157   7.594   2.508 -0.3623 -0.0176  0.4778
  137MOL   C25949491   4.229   7.508   2.614  0.2882 -0.1380 -0.0539
  137MOL   H26049492   4.101   0.299   2.248  0.9814 -0.9547 -0.0629
  137MOL   H26149493   4.095   0.447   2.331  1.5375  0.6293  0.0920
  137MOL   H26249494   4.193   0.285   2.522  1.4176  0.2888 -1.7003
  137MOL   H26349495   4.031   0.084   2.375 -1.8212  1.6057  1.3021
  137MOL   H26449496   4.193   0.090   2.331 -0.9538  0.1617 -0.4933
  137MOL   H26549497   4.273   0.050   2.553  0.5270  0.9113 -0.7477
  137MOL   H26649498   4.105   0.057   2.612 -0.9192  0.7260 -1.4746
  137MOL   H26749499   4.184   7.579   2.403 -1.5264 -0.0787  0.1765
  137MOL   H26849500   4.050   7.575   2.497 -0.1892  0.7799 -3.2476
  137MOL   H26949501   4.332   7.539   2.630  1.1158 -2.0677 -1.4914
  137MOL   H27049502   4.227   7.403   2.585  3.3716  0.8336 -4.2100
  137MOL   H27149503   4.175   7.512   2.709 -2.0108 -1.3799 -1.2557
  137MOL   C27249504   3.982   0.278   2.513 -0.4903  0.0827 -0.2747
  137MOL   C27349505   3.953   0.415   2.588 -0.4589 -0.5869 -0.2856
  137MOL   C27449506   4.026   0.421   2.725  0.3243 -0.3443 -0.2935
  137MOL   C27549507   3.975   0.322   2.826  0.4740 -0.5820  0.1687
  137MOL   C27649508   4.059   0.301   2.950 -0.2902 -0.1798 -0.1842
  137MOL   C27749509   4.198   0.238   2.915 -0.6119 -0.0676  0.3078
  137MOL   H27849510   3.914   0.272   2.428  0.3379  0.5835 -0.9783
  137MOL   H27949511   3.943   0.195   2.572 -0.2420 -1.2233 -1.9110
  137MOL   H28049512   4.006   0.496   2.539 -1.4871  1.1111  1.3052
  137MOL   H28149513   4.028   0.527   2.751  0.4509 -0.2777 -0.5723
  137MOL   H28249514   4.131   0.396   2.708  0.9037  1.1127  1.0341
  137MOL   H28349515   3.969   0.223   2.781  1.3137 -0.9536  0.8630
  137MOL   H28449516   3.876   0.347   2.864  0.2056 -0.2947 -0.7226
  137MOL   H28549517   4.082   0.395   3.000 -0.9805  0.1818 -0.5367
  137MOL   H28649518   4.007   0.234   3.018  0.3068  1.7935  2.2723
  137MOL   H28749519   4.181   0.136   2.879  0.2589  0.1575 -0.7872
  137MOL   H28849520   4.254   0.290   2.838 -0.7290 -0.2518  0.0976
  137MOL   H28949521   4.260   0.230   3.005  2.8565 -0.6192 -2.0299
  137MOL   C29049522   3.809   0.455   2.602  0.8038  0.0033 -0.3130
  137MOL   C29149523   3.726   0.467   2.469  0.1391 -0.1544 -0.4501
  137MOL   C29249524   3.583   0.516   2.501 -0.2575  0.4572  0.3495
  137MOL   C29349525   3.503   0.425   2.596 -0.1219  0.6201  0.0890
  137MOL   C29449526   3.358   0.459   2.606 -0.2254 -0.6817  0.6395
  137MOL   C29549527   3.262   0.385   2.702  0.1753  0.0315  0.2204
  137MOL   H29649528   3.804   0.545   2.664  1.7256  0.8203 -1.4152
  137MOL   H29749529   3.758   0.375   2.656  1.2827  0.3276  0.6272
  137MOL   H29849530   3.710   0.367   2.429  0.7934  0.4773 -2.3188
  137MOL   H29949531   3.526   0.544   2.412  0.1963  1.0946  0.2619
  137MOL   H30049532   3.588   0.619   2.534  0.0048  0.3272  0.7235
  137MOL   H30149533   3.524   0.322   2.568  2.2245  0.5423  2.0290
  137MOL   H30249534   3.540   0.446   2.696  0.1926 -1.0763  0.3382
  137MOL   H30349535   3.317   0.425   2.511  2.0648 -1.2605 -0.1846
  137MOL   H30449536   3.343   0.567   2.614  1.0262 -0.3616 -1.0625
  137MOL   H30549537   3.263   0.446   2.792  0.7001  0.4859 -0.0914
  137MOL   H30649538   3.303   0.287   2.728  0.9717 -0.3412 -2.2363
  137MOL   H30749539   3.163   0.374   2.658 -0.2768 -0.4558  1.3410
  137MOL   C30849540   3.794   0.554   2.368  0.3324 -0.1406 -0.2503
  137MOL   C30949541   3.733   0.581   2.230  0.1927 -0.1551  0.1619
  137MOL   C31049542   3.678   0.458   2.150  0.3310  0.4291  0.6746
  137MOL   C31149543   3.778   0.353   2.109  0.5581  0.3949  0.3496
  137MOL   C31249544   3.713   0.245   2.019 -0.5414 -0.8733 -0.1290
  137MOL   C31349545   3.822   0.150   1.974 -0.3705  0.3109 -0.1228
  137MOL   H31449546   3.810   0.648   2.421 -0.1660  0.5522 -1.3018
  137MOL   H31549547   3.887   0.502   2.347  1.1272  0.3029  2.0920
  137MOL   H31649548   3.642   0.640   2.244  2.0544  2.7163  0.4920
  137MOL   H31749549   3.630   0.502   2.062 -0.2235 -1.9892 -0.2750
  137MOL   H31849550   3.600   0.414   2.212  0.4070  0.8818  1.0971
  137MOL   H31949551   3.818   0.304   2.198 -2.6514 -0.3290  1.4387
  137MOL   H32049552   3.869   0.387   2.059  0.5257 -1.5733 -1.0623
  137MOL   H32149553   3.625   0.194   2.059 -0.1661  0.0680  1.9761
  137MOL   H32249554   3.671   0.299   1.934  1.0582 -1.1491 -1.1219
  137MOL   H32349555   3.831   0.079   2.057 -0.8876 -1.3000 -1.4177
  137MOL   H32449556   3.916   0.194   1.941  0.1851 -1.6483 -1.2268
  137MOL   H32549557   3.784   0.091   1.891 -2.2744  0.8239  0.3412
  137MOL   C32649558   3.819   0.677   2.141  0.2584 -0.3872  0.4644
  137MOL   C32749559   3.814   0.832   2.176  0.3543  0.0762 -0.7411
  137MOL   C32849560   3.664   0.875   2.177  0.0521 -0.4146 -0.6211
  137MOL   C32949561   3.637   1.018   2.130  0.7956 -0.2015 -0.0292
  137MOL   C33049562   3.495   1.067   2.148 -0.6249  0.0379 -0.2214
  137MOL   C33149563   3.464   1.203   2.091 -0.1192  0.0819  0.3858
  137MOL   H33249564   3.799   0.658   2.035  1.2213 -0.4584  0.2869
  137MOL   H33349565   3.922   0.641   2.139 -0.4026 -2.3829  1.1028
  137MOL   H33449566   3.861   0.876   2.088  2.2033  2.0913  1.1925
  137MOL   H33549567   3.612   0.814   2.103 -3.5979  1.5906  0.1590
  137MOL   H33649568   3.617   0.863   2.275  0.0155 -0.5252 -0.6522
  137MOL   H33749569   3.669   1.025   2.026 -0.3451 -0.5704 -0.4182
  137MOL   H33849570   3.697   1.083   2.192 -1.8381  3.1337 -0.8359
  137MOL   H33949571   3.424   0.992   2.112 -1.1637 -0.4237  1.7288
  137MOL   H34049572   3.467   1.086   2.252  3.1798  0.9521  0.6982
  137MOL   H34149573   3.360   1.231   2.106 -0.6517 -0.8981 -1.3554
  137MOL   H34249574   3.491   1.215   1.986 -1.2877 -1.3666 -0.0978
  137MOL   H34349575   3.517   1.274   2.156 -0.8462  0.0443  1.0288
  137MOL   C34449576   3.894   0.877   2.298 -0.6878 -0.1334 -0.4652
  137MOL   C34549577   4.044   0.836   2.289  0.2558  0.1447  0.1708
  137MOL   C34649578   4.138   0.939   2.356 -0.4065 -0.4933 -0.2083
  137MOL   C34749579   4.161   0.909   2.508  0.4199  0.0376  0.0133
  137MOL   C34849580   4.044   0.925   2.608 -0.1848 -0.0658  0.0275
  137MOL   C34949581   4.103   0.925   2.746  0.0630 -0.5289 -0.6791
  137MOL   H35049582   3.878   0.985   2.292 -2.5003 -0.2237  1.9732
  137MOL   H35149583   3.845   0.849   2.391 -0.3577  1.3043  0.1444
  137MOL   H35249584   4.083   0.836   2.187 -0.0688  0.2703  0.0470
  137MOL   H35349585   4.236   0.929   2.311 -0.0076  1.0767  0.2908
  137MOL   H35449586   4.102   1.041   2.342 -0.2359 -0.7275 -2.4959
  137MOL   H35549587   4.204   0.810   2.519 -1.4144 -0.7600  0.1899
  137MOL   H35649588   4.239   0.977   2.542 -0.9113  2.4485 -1.5566
  137MOL   H35749589   3.982   1.013   2.590  3.6358  3.0027  1.1891
  137MOL   H35849590   3.981   0.839   2.586  0.6426 -0.4305 -0.9161
  137MOL   H35949591   4.144   1.022   2.777  2.3724 -1.0207 -2.0532
  137MOL   H36049592   4.021   0.920   2.818 -1.0468  2.0635 -1.6963
  137MOL   H36149593   4.178   0.850   2.769 -0.4360 -0.9917 -0.5678
  137MOL   H36249594   4.052   0.730   2.312 -1.6735  0.2510  1.4787
  138MOL     C149595   2.104   3.124   1.335  0.1084 -0.0263  0.3361
  138MOL     C249596   1.988   3.228   1.349  0.8512  0.7639  0.5118
  138MOL     C349597   1.850   3.158   1.377 -0.0432 -0.5761  0.2866
  138MOL     C449598   1.844   3.089   1.513  0.0560  0.3905  0.0892
  138MOL     C549599   1.866   3.166   1.644  0.1047 -0.0182  0.5590
  138MOL     C649600   1.903   3.069   1.762  0.1499 -0.0344  0.1203
  138MOL     H749601   2.143   3.078   1.426 -0.0949  0.0237  0.4476
  138MOL     H849602   2.062   3.043   1.275 -0.6373  0.8248 -0.3069
  138MOL     H949603   2.012   3.282   1.440 -0.7866 -1.2706  2.1984
  138MOL    H1049604   1.803   3.099   1.298 -1.6670 -0.1950  0.9510
  138MOL    H1149605   1.778   3.239   1.373 -1.8689 -2.1381  0.7027
  138MOL    H1249606   1.910   3.003   1.504  0.0256  0.2974  0.7324
  138MOL    H1349607   1.747   3.043   1.532 -0.2205  0.6197 -0.7490
  138MOL    H1449608   1.959   3.223   1.644 -0.2759  0.6069  1.5935
  138MOL    H1549609   1.777   3.225   1.665 -0.6801 -0.7169 -0.7391
  138MOL    H1649610   1.815   3.008   1.783  0.9542 -0.6280  1.8131
  138MOL    H1749611   1.943   3.108   1.855  1.8991 -1.1596 -0.1406
  138MOL    H1849612   1.976   2.992   1.737 -0.2082 -0.2030 -0.4221
  138MOL    H1949613   2.192   3.161   1.281  0.3767 -2.1068 -0.6736
  138MOL    C2049614   1.975   3.321   1.226  0.5303  0.3968  0.1942
  138MOL    C2149615   2.099   3.413   1.200 -0.7137 -0.5345  0.1667
  138MOL    C2249616   2.078   3.499   1.076  0.2439  0.1138  0.4252
  138MOL    C2349617   2.087   3.433   0.942  0.2611 -0.0518  1.0135
  138MOL    C2449618   2.021   3.505   0.821 -0.1547  0.0196  0.0101
  138MOL    C2549619   1.869   3.520   0.821 -0.0672 -0.0355 -0.7580
  138MOL    H2649620   1.880   3.375   1.225 -0.7431 -1.8150 -1.5224
  138MOL    H2749621   1.963   3.257   1.139 -0.7848  1.4947 -0.4466
  138MOL    H2849622   2.186   3.349   1.184 -0.8786 -0.3027 -1.8398
  138MOL    H2949623   2.144   3.586   1.072 -0.5035  0.7577  1.7786
  138MOL    H3049624   1.982   3.551   1.079 -0.6743 -1.6017  1.4186
  138MOL    H3149625   2.040   3.335   0.953 -1.5319  0.6006 -0.5266
  138MOL    H3249626   2.191   3.406   0.921 -0.1566 -0.2209 -1.0184
  138MOL    H3349627   2.077   3.598   0.805  0.0068 -0.0274  0.2975
  138MOL    H3449628   2.039   3.449   0.729  1.6672  0.4006  0.1128
  138MOL    H3549629   1.834   3.588   0.899 -1.3039 -1.5736  0.0581
  138MOL    H3649630   1.842   3.562   0.724  0.1352 -2.3557 -1.8645
  138MOL    H3749631   1.824   3.421   0.827  0.4564 -0.2216  0.2272
  138MOL    C3849632   2.141   3.508   1.317 -0.0375  0.1425 -0.8070
  138MOL    C3949633   2.025   3.566   1.412  0.2758  0.2965 -0.6124
  138MOL    C4049634   2.084   3.603   1.553 -0.0265  0.2583  0.0810
  138MOL    C4149635   2.211   3.695   1.567 -0.1389 -0.8259 -0.1505
  138MOL    C4249636   2.260   3.703   1.707  0.2091  0.2779  0.9643
  138MOL    C4349637   2.357   3.814   1.728  0.8384 -0.0097  0.4147
  138MOL    H4449638   2.203   3.585   1.271 -1.7935  1.4540 -1.0133
  138MOL    H4549639   2.208   3.454   1.384  0.4535  0.2033 -1.2454
  138MOL    H4649640   1.952   3.485   1.426  2.5793 -1.8648 -0.7390
  138MOL    H4749641   1.999   3.619   1.620 -1.1501 -1.8540 -0.7973
  138MOL    H4849642   2.119   3.507   1.590  0.0212  0.6570  1.0841
  138MOL    H4949643   2.295   3.665   1.505  1.9890 -0.7509  2.6551
  138MOL    H5049644   2.191   3.797   1.533 -0.9825 -1.2272 -0.8832
  138MOL    H5149645   2.169   3.716   1.767 -0.0845  0.6372  0.4472
  138MOL    H5249646   2.309   3.615   1.749  1.1724  0.4461  0.2100
  138MOL    H5349647   2.314   3.911   1.703  0.5529 -0.0297  0.8224
  138MOL    H5449648   2.439   3.788   1.661 -1.2103 -0.9281 -1.7745
  138MOL    H5549649   2.389   3.821   1.832 -1.3406  0.5624  1.0607
  138MOL    C5649650   1.954   3.691   1.347 -0.1213  0.3225  0.3001
  138MOL    C5749651   1.816   3.728   1.409  0.4710 -0.0197  0.9400
  138MOL    C5849652   1.710   3.620   1.363  0.8085  0.1894  0.3980
  138MOL    C5949653   1.571   3.634   1.430  0.0581  0.6292 -0.1016
  138MOL    C6049654   1.566   3.579   1.571 -0.3926  0.3081  0.3017
  138MOL    C6149655   1.418   3.580   1.628  0.3460  0.0824  0.5320
  138MOL    H6249656   2.020   3.778   1.355  0.1341  0.2743 -1.2383
  138MOL    H6349657   1.945   3.688   1.239  2.3492 -1.1136  0.0988
  138MOL    H6449658   1.821   3.724   1.518  1.0421 -0.6573  0.8910
  138MOL    H6549659   1.687   3.618   1.257  1.7590  2.4190  0.1084
  138MOL    H6649660   1.750   3.520   1.379 -1.9565 -1.2465 -1.1711
  138MOL    H6749661   1.509   3.570   1.368  2.1993 -0.7284 -0.8962
  138MOL    H6849662   1.526   3.733   1.440 -2.3553 -0.5966  1.6608
  138MOL    H6949663   1.624   3.488   1.582  0.0338  0.6518  0.9456
  138MOL    H7049664   1.635   3.643   1.626 -0.4644  0.9766 -0.3756
  138MOL    H7149665   1.422   3.575   1.737  0.1669  0.2622  0.5467
  138MOL    H7249666   1.379   3.676   1.596 -1.8417 -0.4011  1.6956
  138MOL    H7349667   1.348   3.503   1.596  0.4766  0.4092 -0.5435
  138MOL    C7449668   1.765   3.868   1.370  0.2001 -0.5647 -0.0327
  138MOL    C7549669   1.823   3.989   1.434 -0.4618 -0.2385 -0.6386
  138MOL    C7649670   1.797   4.111   1.348  0.2092 -0.4008 -0.3752
  138MOL    C7749671   1.662   4.179   1.381  0.1600  0.1513  0.4051
  138MOL    C7849672   1.619   4.280   1.281  0.2569 -1.2993 -0.4854
  138MOL    C7949673   1.484   4.348   1.304  0.1783 -0.4723 -0.1944
  138MOL    H8049674   1.777   3.877   1.262  3.1047 -0.0000  0.2939
  138MOL    H8149675   1.656   3.874   1.379  0.0165 -0.7318 -1.8837
  138MOL    H8249676   1.931   3.975   1.427 -0.6151 -1.9318  0.3154
  138MOL    H8349677   1.875   4.187   1.359 -2.0835  2.0075 -0.2835
  138MOL    H8449678   1.797   4.083   1.242 -1.6230  0.7185 -0.7014
  138MOL    H8549679   1.591   4.096   1.379  0.8976 -0.5057  1.2878
  138MOL    H8649680   1.666   4.231   1.477 -0.5267  1.7677 -0.4284
  138MOL    H8749681   1.639   4.253   1.177  0.1197  0.2694 -0.9317
  138MOL    H8849682   1.700   4.353   1.282 -0.5060 -0.4431 -0.2000
  138MOL    H8949683   1.450   4.383   1.206 -0.3428  1.3561  0.6236
  138MOL    H9049684   1.405   4.283   1.343  0.7319 -1.1759 -0.2431
  138MOL    H9149685   1.486   4.446   1.351  0.2280 -0.2834 -0.5906
  138MOL    C9249686   1.785   3.999   1.586 -0.3764  0.2484  0.3898
  138MOL    C9349687   1.911   4.014   1.672  0.0881  0.0767  0.1095
  138MOL    C9449688   1.997   4.142   1.644  0.4351  0.4952 -0.8945
  138MOL    C9549689   2.140   4.132   1.698 -0.0675  0.3057 -0.1819
  138MOL    C9649690   2.206   4.269   1.719  0.0648  0.3173 -0.4285
  138MOL    C9749691   2.351   4.260   1.774  0.1909 -0.0408  0.0652
  138MOL    H9849692   1.711   4.074   1.612  2.0934  2.9596 -0.2307
  138MOL    H9949693   1.741   3.902   1.609 -1.6606  0.6438 -0.3574
  138MOL   H10049694   1.978   3.930   1.654  0.2051  0.2823 -0.3997
  138MOL   H10149695   1.948   4.228   1.688 -1.4505  0.8157 -3.4983
  138MOL   H10249696   2.000   4.163   1.537 -2.8535  0.7839 -0.9837
  138MOL   H10349697   2.147   4.089   1.798  0.8792  1.7378  0.3825
  138MOL   H10449698   2.199   4.071   1.630  0.6213  0.1524  0.5376
  138MOL   H10549699   2.210   4.316   1.621 -0.3370  0.2250 -0.4886
  138MOL   H10649700   2.150   4.337   1.783 -1.9089 -1.7572  0.1079
  138MOL   H10749701   2.349   4.238   1.880  0.3269  0.1272  0.1035
  138MOL   H10849702   2.400   4.175   1.727  0.8986  0.6468 -0.4638
  138MOL   H10949703   2.407   4.347   1.739  2.4523 -0.9785  1.2725
  138MOL   C11049704   1.880   4.004   1.824  0.3387 -0.0378 -0.0466
  138MOL   C11149705   1.932   3.885   1.905 -0.6476  0.1869 -0.1652
  138MOL   C11249706   1.847   3.766   1.862 -0.0367  0.0042  0.7677
  138MOL   C11349707   1.865   3.636   1.939  0.2708 -0.0534 -0.3095
  138MOL   C11449708   1.804   3.509   1.870 -0.0091 -0.3635 -0.9301
  138MOL   C11549709   1.840   3.379   1.946 -0.1869 -0.4168  0.5287
  138MOL   H11649710   1.933   4.087   1.870  0.9612 -1.2892  1.5612
  138MOL   H11749711   1.780   4.029   1.861 -0.1230 -4.2879  1.9671
  138MOL   H11849712   2.036   3.868   1.881 -0.9762 -0.3836 -1.1856
  138MOL   H11949713   1.866   3.744   1.757 -0.5457  0.5130  0.5673
  138MOL   H12049714   1.742   3.794   1.867 -0.2383 -0.5100 -0.5120
  138MOL   H12149715   1.817   3.653   2.035  1.8882  1.3866  0.2758
  138MOL   H12249716   1.972   3.620   1.950  0.4806  1.2628 -0.2976
  138MOL   H12349717   1.849   3.509   1.771 -2.9593 -2.3226 -2.3567
  138MOL   H12449718   1.696   3.503   1.855  0.0687 -0.7764 -1.3150
  138MOL   H12549719   1.949   3.376   1.935 -0.0975  1.6546  0.7627
  138MOL   H12649720   1.826   3.375   2.054 -0.5662 -2.0568  0.4392
  138MOL   H12749721   1.789   3.290   1.908  0.5274 -0.5526 -0.1283
  138MOL   C12849722   1.939   3.898   2.056  0.2501  0.1714 -0.1311
  138MOL   C12949723   2.034   4.004   2.112  0.2040 -0.7472 -0.6530
  138MOL   C13049724   2.180   3.968   2.082 -0.2459  0.5197 -0.3861
  138MOL   C13149725   2.290   4.056   2.153  0.4743  0.2720  0.7737
  138MOL   C13249726   2.430   4.054   2.079  0.1250  0.0107  0.3286
  138MOL   C13349727   2.530   4.164   2.118 -0.5571  0.1052  0.8832
  138MOL   H13449728   1.964   3.804   2.104  2.0063  0.5643 -0.2552
  138MOL   H13549729   1.836   3.926   2.080 -0.0893 -0.3343 -0.9463
  138MOL   H13649730   2.004   4.105   2.081 -0.3670 -0.4326  0.8840
  138MOL   H13749731   2.196   3.862   2.102  0.1949  0.0032 -3.2691
  138MOL   H13849732   2.182   3.986   1.974 -1.1570  1.3884 -0.2619
  138MOL   H13949733   2.314   4.020   2.253  2.1388  2.2040  1.1072
  138MOL   H14049734   2.249   4.156   2.167  4.4936  2.1394 -0.1675
  138MOL   H14149735   2.473   3.955   2.096 -0.8250 -0.4622  0.0654
  138MOL   H14249736   2.395   4.057   1.975 -3.7046  3.5560  1.5955
  138MOL   H14349737   2.482   4.257   2.089  2.0326  1.5905  1.2407
  138MOL   H14449738   2.625   4.135   2.074 -0.4148  0.8110  0.7305
  138MOL   H14549739   2.518   4.172   2.226 -2.3832  1.2931  0.6135
  138MOL   C14649740   2.001   3.997   2.264 -0.7283 -0.0237  0.0287
  138MOL   C14749741   1.971   4.126   2.332 -0.0513  0.4777 -0.1391
  138MOL   C14849742   1.988   4.105   2.488  0.2996 -0.5400 -0.0146
  138MOL   C14949743   2.070   4.220   2.550 -0.1179  0.0285  0.2138
  138MOL   C15049744   2.017   4.272   2.685  0.1050  0.6675  0.6480
  138MOL   C15149745   2.027   4.152   2.788  1.0801 -0.1948 -0.1794
  138MOL   H15249746   1.921   3.928   2.291  0.4152 -0.3895  2.6299
  138MOL   H15349747   2.085   3.945   2.309 -0.3130 -0.3919 -1.1595
  138MOL   H15449748   2.047   4.198   2.301  0.4315 -0.7362 -1.8812
  138MOL   H15549749   2.026   4.007   2.516  1.0761 -0.7905 -1.8591
  138MOL   H15649750   1.891   4.115   2.537  0.8216 -1.4617  1.2296
  138MOL   H15749751   2.172   4.189   2.569  0.5369  0.9751 -1.6502
  138MOL   H15849752   2.073   4.300   2.476  0.5391  0.8696  1.1550
  138MOL   H15949753   1.913   4.304   2.676  0.1733  0.5989 -0.4275
  138MOL   H16049754   2.077   4.356   2.718  2.8284 -0.0320 -2.2768
  138MOL   H16149755   1.967   4.065   2.761 -0.3773  1.0689 -1.0706
  138MOL   H16249756   2.130   4.117   2.799  0.8141 -0.9455 -0.0198
  138MOL   H16349757   1.995   4.191   2.884 -0.1206 -2.0118  0.1850
  138MOL   C16449758   1.829   4.186   2.283 -0.3260 -0.4742  0.0775
  138MOL   C16549759   1.785   4.312   2.360  0.0334  0.0794  0.2412
  138MOL   C16649760   1.848   4.439   2.293 -0.2201 -0.3389 -0.6780
  138MOL   C16749761   1.863   4.556   2.402  0.1161  0.3150  0.6309
  138MOL   C16849762   1.979   4.659   2.387  0.4257 -0.2206 -0.2125
  138MOL   C16949763   1.972   4.781   2.485 -0.0175  0.6590 -0.1276
  138MOL   H17049764   1.826   4.185   2.174  1.3399 -0.8872  0.0119
  138MOL   H17149765   1.770   4.100   2.315 -1.9606  0.7978  0.5663
  138MOL   H17249766   1.817   4.313   2.464  1.6643 -0.8389 -0.2310
  138MOL   H17349767   1.786   4.471   2.209 -1.3077 -0.1324  0.1902
  138MOL   H17449768   1.939   4.396   2.251  0.5737 -0.0687  0.7451
  138MOL   H17549769   1.874   4.514   2.502  1.7472 -3.0107 -0.8562
  138MOL   H17649770   1.770   4.612   2.406 -0.9148 -1.3773  0.8593
  138MOL   H17749771   1.969   4.690   2.283 -0.6704  0.8864  0.2145
  138MOL   H17849772   2.071   4.601   2.397  0.3070 -0.3411  0.1966
  138MOL   H17949773   1.971   4.750   2.590  1.4425  0.4521 -0.1607
  138MOL   H18049774   1.877   4.832   2.472 -0.9621 -1.0453  0.0050
  138MOL   H18149775   2.052   4.854   2.472  1.3736 -0.5286  1.5316
  138MOL   C18249776   1.634   4.322   2.370 -0.7111  0.2168  0.2090
  138MOL   C18349777   1.559   4.221   2.468 -0.2811  0.7277  0.1201
  138MOL   C18449778   1.408   4.214   2.427  0.4474  1.0499 -0.1973
  138MOL   C18549779   1.333   4.351   2.456 -0.9655  0.0250 -0.0256
  138MOL   C18649780   1.186   4.351   2.419 -0.6872  0.2703  0.1858
  138MOL   C18749781   1.112   4.481   2.464 -0.2039  0.3618  0.4366
  138MOL   H18849782   1.623   4.425   2.405  0.5271  0.3217  0.2982
  138MOL   H18949783   1.584   4.320   2.273 -0.1999  1.5970 -0.0963
  138MOL   H19049784   1.591   4.120   2.444 -0.2527  0.5241  0.9969
  138MOL   H19149785   1.397   4.171   2.328  3.6701 -1.0062  0.2438
  138MOL   H19249786   1.363   4.141   2.495  0.7305  3.7777  3.0512
  138MOL   H19349787   1.379   4.436   2.405  1.4288 -1.1454  0.1141
  138MOL   H19449788   1.332   4.371   2.563 -2.9357  1.7346 -0.3319
  138MOL   H19549789   1.133   4.278   2.480 -1.4106  1.1734  0.6468
  138MOL   H19649790   1.161   4.327   2.316 -1.3720 -2.8868  1.0348
  138MOL   H19749791   1.003   4.481   2.461 -0.2658 -1.7430  2.0378
  138MOL   H19849792   1.139   4.566   2.401 -0.8108  2.6573  3.1987
  138MOL   H19949793   1.134   4.488   2.570 -1.3373  3.8014  0.5320
  138MOL   C20049794   1.573   4.262   2.626  0.6277 -0.1133 -0.1213
  138MOL   C20149795   1.504   4.171   2.728 -0.8479 -0.0546  0.1467
  138MOL   C20249796   1.533   4.019   2.727 -0.4231 -0.3008 -0.2958
  138MOL   C20349797   1.677   3.982   2.720 -0.0010  0.4646 -0.6546
  138MOL   C20449798   1.699   3.830   2.727  0.2933 -0.4908  0.1783
  138MOL   C20549799   1.848   3.804   2.753 -0.6779  0.1604 -0.5296
  138MOL   H20649800   1.532   4.363   2.636 -2.0970 -1.2497  0.6455
  138MOL   H20749801   1.676   4.273   2.657  0.1524 -0.5758  1.6647
  138MOL   H20849802   1.399   4.191   2.704 -0.6851  0.5802 -0.0422
  138MOL   H20949803   1.479   3.984   2.638  0.8950 -0.3505 -1.0921
  138MOL   H21049804   1.478   3.967   2.806  0.2350  2.1636  1.8310
  138MOL   H21149805   1.747   4.037   2.783 -0.6411 -0.3206  0.7505
  138MOL   H21249806   1.715   4.014   2.623  0.0910  2.0569 -0.1077
  138MOL   H21349807   1.656   3.773   2.645 -3.1507  1.7794  0.3211
  138MOL   H21449808   1.639   3.801   2.812 -0.5761 -2.4831 -1.0789
  138MOL   H21549809   1.918   3.852   2.685 -1.0876 -0.5508 -1.4600
  138MOL   H21649810   1.874   3.839   2.853  1.0400  0.6835 -1.1537
  138MOL   H21749811   1.870   3.698   2.744 -1.2840  0.0813 -1.2328
  138MOL   C21849812   1.520   4.219   2.876  0.1416  0.3252  0.5172
  138MOL   C21949813   1.393   4.212   2.963  0.1197 -0.8578 -0.2631
  138MOL   C22049814   1.327   4.355   2.980  0.2860 -0.3388 -0.0883
  138MOL   C22149815   1.243   4.396   2.864 -0.6675 -0.2179 -0.1937
  138MOL   C22249816   1.126   4.303   2.826  0.1314  0.5031 -0.5380
  138MOL   C22349817   1.028   4.259   2.934 -0.1248  1.3402 -0.0232
  138MOL   H22449818   1.604   4.166   2.923 -0.9734 -0.2019  1.9514
  138MOL   H22549819   1.557   4.321   2.871  0.7948  0.1285  1.1628
  138MOL   H22649820   1.319   4.142   2.925 -0.3915 -0.4730  0.0137
  138MOL   H22749821   1.399   4.434   2.999  1.7873 -1.5664 -0.5539
  138MOL   H22849822   1.266   4.378   3.068 -0.8178 -1.0546 -0.6596
  138MOL   H22949823   1.293   4.426   2.772 -1.1185 -1.8027 -0.9607
  138MOL   H23049824   1.192   4.491   2.883  0.5942  1.0238 -2.8077
  138MOL   H23149825   1.062   4.351   2.752  0.7199  1.4620 -0.4407
  138MOL   H23249826   1.169   4.216   2.776 -0.7182 -1.2193  1.6251
  138MOL   H23349827   1.077   4.209   3.018 -1.2432 -1.0157 -0.7427
  138MOL   H23449828   0.942   4.207   2.892  0.3450  0.9450 -0.5090
  138MOL   H23549829   0.992   4.355   2.970 -2.5371  1.0182 -1.4900
  138MOL   C23649830   1.412   4.168   3.108  0.2129  0.5782  0.4045
  138MOL   C23749831   1.466   4.024   3.116  0.1953  0.7790  0.1195
  138MOL   C23849832   1.353   3.916   3.093  0.2494  0.0849 -0.4508
  138MOL   C23949833   1.409   3.781   3.049  0.3828 -0.3728 -0.0562
  138MOL   C24049834   1.321   3.661   3.090 -0.1183  0.2595  0.3223
  138MOL   C24149835   1.387   3.527   3.051  0.0435 -0.0124  0.2079
  138MOL   H24249836   1.489   4.236   3.144  0.4872  0.7929 -0.5568
  138MOL   H24349837   1.312   4.180   3.149 -0.3869 -1.3266 -0.4238
  138MOL   H24449838   1.535   4.003   3.034  0.2866  0.6201  0.2374
  138MOL   H24549839   1.297   3.910   3.186  1.8677 -2.2703  0.4351
  138MOL   H24649840   1.276   3.951   3.024  1.8284  5.3129  0.2391
  138MOL   H24749841   1.502   3.758   3.102 -0.3634 -1.4099  0.8428
  138MOL   H24849842   1.417   3.789   2.941 -1.1566 -1.3510 -0.2552
  138MOL   H24949843   1.309   3.663   3.199  1.6144 -2.6983  0.6474
  138MOL   H25049844   1.222   3.672   3.047  0.3308 -0.0906 -0.8283
  138MOL   H25149845   1.325   3.449   3.096 -1.7329  0.6872 -1.0050
  138MOL   H25249846   1.396   3.527   2.943  5.3553 -2.1107  0.4957
  138MOL   H25349847   1.491   3.516   3.083  0.3682 -0.5244 -0.9753
  138MOL   C25449848   1.532   4.016   3.257 -0.2476  0.5300  0.7322
  138MOL   C25549849   1.683   4.055   3.258 -0.2904 -0.4499  0.3905
  138MOL   C25649850   1.782   3.958   3.194 -0.5492  0.1719  0.1001
  138MOL   C25749851   1.790   3.822   3.267  0.5833 -0.6932 -0.9792
  138MOL   C25849852   1.893   3.722   3.223 -0.0333  0.4219  0.1836
  138MOL   C25949853   1.886   3.593   3.311  0.0168  0.4253  0.1395
  138MOL   H26049854   1.535   3.912   3.288 -2.9410  0.7248  1.7370
  138MOL   H26149855   1.464   4.061   3.329  0.1815  3.6891 -0.7498
  138MOL   H26249856   1.686   4.140   3.189 -0.7898  1.2470  2.3961
  138MOL   H26349857   1.756   3.939   3.090  0.3727 -1.9226  0.2371
  138MOL   H26449858   1.879   4.008   3.189 -0.3003 -0.5041 -4.0770
  138MOL   H26549859   1.806   3.847   3.372 -0.3199  0.4965 -1.1174
  138MOL   H26649860   1.692   3.774   3.262 -0.0237  0.4671 -0.4804
  138MOL   H26749861   1.998   3.749   3.232  0.5793 -0.8841 -2.5490
  138MOL   H26849862   1.876   3.691   3.120  0.5561 -0.6575  0.3981
  138MOL   H26949863   1.925   3.622   3.409 -0.5943 -0.0765  0.5334
  138MOL   H27049864   1.933   3.506   3.266  0.8481  1.9418 -2.0268
  138MOL   H27149865   1.781   3.574   3.334 -0.0440  2.3543  1.6015
  138MOL   C27249866   1.729   4.104   3.399 -0.3256 -0.0370 -0.3483
  138MOL   C27349867   1.680   4.244   3.433  0.5406  0.2669 -0.8232
  138MOL   C27449868   1.788   4.347   3.404  0.5548 -0.2951  0.2939
  138MOL   C27549869   1.838   4.349   3.259  0.6046 -0.1066  0.2240
  138MOL   C27649870   1.932   4.462   3.230  0.0952 -0.4198  0.1883
  138MOL   C27749871   1.989   4.448   3.085 -0.2645  0.4333 -0.2694
  138MOL   H27849872   1.688   4.024   3.461 -0.1751 -2.0620 -2.7634
  138MOL   H27949873   1.834   4.090   3.422 -0.9101 -1.8304  1.3251
  138MOL   H28049874   1.592   4.271   3.375  0.2141  1.7614  0.3396
  138MOL   H28149875   1.867   4.314   3.472 -0.7816 -0.2356  1.9259
  138MOL   H28249876   1.751   4.444   3.437 -0.0665 -0.7145  0.8550
  138MOL   H28349877   1.756   4.348   3.187  1.1618  1.1405 -0.4507
  138MOL   H28449878   1.885   4.252   3.249  0.9791  0.1072 -0.1050
  138MOL   H28549879   1.881   4.557   3.245  0.8013  0.7463 -4.0232
  138MOL   H28649880   2.014   4.460   3.301  3.7626  1.0556 -3.8337
  138MOL   H28749881   1.999   4.545   3.036 -1.3565  0.7064  0.0352
  138MOL   H28849882   2.085   4.398   3.097 -0.3890  0.3896  0.5972
  138MOL   H28949883   1.931   4.378   3.026  0.8343 -1.2668  0.6390
  138MOL   C29049884   1.653   4.267   3.592  0.4840  0.4441 -0.5704
  138MOL   C29149885   1.501   4.285   3.625  0.4529 -0.4787 -0.2237
  138MOL   C29249886   1.466   4.261   3.773  0.4664 -0.2707 -0.3576
  138MOL   C29349887   1.538   4.333   3.880  0.3230  0.0162 -0.4065
  138MOL   C29449888   1.506   4.269   4.014  0.2987  0.8949  0.0336
  138MOL   C29549889   1.592   4.335   4.128  0.0695 -0.2348 -0.6523
  138MOL   H29649890   1.702   4.354   3.636  0.0763  0.7257 -0.6730
  138MOL   H29749891   1.695   4.177   3.639  1.4573  1.1311 -0.1023
  138MOL   H29849892   1.446   4.207   3.571 -0.3835 -0.3604  0.4408
  138MOL   H29949893   1.484   4.154   3.783  4.0316  0.3073 -0.1525
  138MOL   H30049894   1.359   4.277   3.786  0.6939  1.8327 -0.9943
  138MOL   H30149895   1.646   4.331   3.869  0.6348  0.3875  2.2117
  138MOL   H30249896   1.518   4.440   3.876  0.4449  0.0363 -0.4803
  138MOL   H30349897   1.511   4.160   4.009 -1.3291  0.8245 -0.3888
  138MOL   H30449898   1.402   4.289   4.039 -0.3678  0.0086 -1.9736
  138MOL   H30549899   1.698   4.328   4.106 -0.0607  1.3010 -1.8488
  138MOL   H30649900   1.571   4.289   4.225 -1.0959  0.0959 -0.7364
  138MOL   H30749901   1.575   4.442   4.137 -2.8597 -0.7347  0.6787
  138MOL   C30849902   1.460   4.429   3.577 -0.5878  0.6915 -0.3117
  138MOL   C30949903   1.307   4.467   3.589 -0.9240 -0.4699 -0.3734
  138MOL   C31049904   1.223   4.416   3.474  0.4007  0.4516 -0.4784
  138MOL   C31149905   1.097   4.343   3.528 -0.1494 -0.5346  0.2616
  138MOL   C31249906   1.007   4.266   3.428 -0.0770 -0.2205 -0.5682
  138MOL   C31349907   1.085   4.178   3.331  0.3193  0.0734  0.4678
  138MOL   H31449908   1.511   4.510   3.631 -0.8159 -0.2062  1.2842
  138MOL   H31549909   1.501   4.437   3.477 -1.1119 -0.6433 -0.6426
  138MOL   H31649910   1.262   4.432   3.682  1.4918  1.7406  1.6993
  138MOL   H31749911   1.283   4.350   3.413  3.2379  0.5904  2.0745
  138MOL   H31849912   1.195   4.498   3.408 -1.0278 -1.6495 -2.5655
  138MOL   H31949913   1.041   4.411   3.592 -2.1400 -3.3748  1.6067
  138MOL   H32049914   1.133   4.266   3.595  2.1198 -0.1333 -0.4339
  138MOL   H32149915   0.933   4.205   3.480 -1.8107  0.9715 -1.5922
  138MOL   H32249916   0.958   4.337   3.362 -1.7371 -0.2608  0.5886
  138MOL   H32349917   1.132   4.244   3.257 -1.8621 -0.7621 -1.7561
  138MOL   H32449918   1.020   4.108   3.279  1.9835 -1.2460  0.0936
  138MOL   H32549919   1.157   4.120   3.388  2.5838  2.3169  0.0337
  138MOL   C32649920   1.279   4.618   3.604  0.0262 -0.3499  0.3657
  138MOL   C32749921   1.329   4.693   3.736  0.0404 -0.2128  0.0796
  138MOL   C32849922   1.346   4.849   3.718  0.3739 -0.1185  0.4119
  138MOL   C32949923   1.472   4.895   3.625  0.2309  0.3784 -0.5376
  138MOL   C33049924   1.444   5.035   3.570  0.3052  1.1942 -0.4564
  138MOL   C33149925   1.574   5.100   3.523 -0.2658  0.0707 -0.3880
  138MOL   H33249926   1.177   4.649   3.583  0.3772  0.8859  0.4107
  138MOL   H33349927   1.330   4.674   3.525 -1.9325  0.5189 -0.3134
  138MOL   H33449928   1.430   4.656   3.755  0.3047  0.1120 -0.6566
  138MOL   H33549929   1.254   4.884   3.672  1.8765  1.4868 -1.5320
  138MOL   H33649930   1.367   4.902   3.810  0.2627 -2.4518  1.8339
  138MOL   H33749931   1.487   4.821   3.547  1.0885  1.2430 -1.2014
  138MOL   H33849932   1.564   4.892   3.683  0.9401 -0.1086 -1.6938
  138MOL   H33949933   1.363   5.023   3.497 -2.4847 -0.8078  2.8139
  138MOL   H34049934   1.405   5.102   3.646 -1.4909 -1.2760  0.8724
  138MOL   H34149935   1.636   5.108   3.613  1.5195 -1.6881 -1.4154
  138MOL   H34249936   1.558   5.202   3.489  2.2222  0.9569  0.9252
  138MOL   H34349937   1.630   5.043   3.449 -0.4145 -1.8884  0.9809
  138MOL   C34449938   1.242   4.661   3.864 -0.8139 -0.5938  0.4306
  138MOL   C34549939   1.304   4.702   3.994 -0.4869  0.1184  0.0493
  138MOL   C34649940   1.223   4.651   4.115 -0.6641 -0.3483  0.1161
  138MOL   C34749941   1.098   4.727   4.160 -0.0250 -0.3477 -0.0799
  138MOL   C34849942   1.013   4.673   4.279  0.1334  0.2060  0.0339
  138MOL   C34949943   1.086   4.688   4.415  0.3537 -0.1407 -0.5806
  138MOL   H35049944   1.142   4.698   3.840  0.0963  2.3724  0.9979
  138MOL   H35149945   1.227   4.553   3.871  2.2337 -0.8269  4.4430
  138MOL   H35249946   1.330   4.807   4.003 -0.9808  0.6544 -3.7380
  138MOL   H35349947   1.201   4.544   4.121 -1.9778  0.0228  2.2604
  138MOL   H35449948   1.290   4.653   4.200  0.6514 -0.1477 -0.9120
  138MOL   H35549949   1.131   4.826   4.193 -1.1263  0.6971 -2.0248
  138MOL   H35649950   1.027   4.741   4.078 -0.6469 -1.2840  0.2937
  138MOL   H35749951   0.915   4.721   4.284  1.0748  2.0578  1.3859
  138MOL   H35849952   1.001   4.566   4.260 -1.8328 -0.0562  2.5607
  138MOL   H35949953   1.042   4.636   4.499  1.3031 -0.5552 -0.3250
  138MOL   H36049954   1.195   4.677   4.414  0.3469 -0.1880 -0.8592
  138MOL   H36149955   1.087   4.789   4.457  0.9134 -0.5585  0.4388
  138MOL   H36249956   1.403   4.657   4.001  0.3954  1.6468 -2.0420
   7.72706   7.72706   7.72706
