;
; Gromacs include topology (itp) file.
; For Molecular Group XYZ
; Force field scheme: opls2005
; Produced from DL_FIELD v4.11
;


[ moleculetype ]
; name    nrexcl
XYZ    3

[ atoms ]
; nr   type   resnr   residu    atom    cgnr    charge    mass
    1        CT    1  MOL      C1     1  -0.1800000   12.0115
    2        CT    1  MOL      C2     2  -0.0600000   12.0115
    3        CT    1  MOL      C3     3  -0.1200000   12.0115
    4        CT    1  MOL      C4     4  -0.1200000   12.0115
    5        CT    1  MOL      C5     5  -0.1200000   12.0115
    6        CT    1  MOL      C6     6  -0.1800000   12.0115
    7        HC    1  MOL      H7     7   0.0600000    1.0080
    8        HC    1  MOL      H8     8   0.0600000    1.0080
    9        HC    1  MOL      H9     9   0.0600000    1.0080
   10        HC    1  MOL     H10    10   0.0600000    1.0080
   11        HC    1  MOL     H11    11   0.0600000    1.0080
   12        HC    1  MOL     H12    12   0.0600000    1.0080
   13        HC    1  MOL     H13    13   0.0600000    1.0080
   14        HC    1  MOL     H14    14   0.0600000    1.0080
   15        HC    1  MOL     H15    15   0.0600000    1.0080
   16        HC    1  MOL     H16    16   0.0600000    1.0080
   17        HC    1  MOL     H17    17   0.0600000    1.0080
   18        HC    1  MOL     H18    18   0.0600000    1.0080
   19        HC    1  MOL     H19    19   0.0600000    1.0080
   20        CT    1  MOL     C20    20  -0.1200000   12.0115
   21        CT    1  MOL     C21    21  -0.0600000   12.0115
   22        CT    1  MOL     C22    22  -0.1200000   12.0115
   23        CT    1  MOL     C23    23  -0.1200000   12.0115
   24        CT    1  MOL     C24    24  -0.1200000   12.0115
   25        CT    1  MOL     C25    25  -0.1800000   12.0115
   26        HC    1  MOL     H26    26   0.0600000    1.0080
   27        HC    1  MOL     H27    27   0.0600000    1.0080
   28        HC    1  MOL     H28    28   0.0600000    1.0080
   29        HC    1  MOL     H29    29   0.0600000    1.0080
   30        HC    1  MOL     H30    30   0.0600000    1.0080
   31        HC    1  MOL     H31    31   0.0600000    1.0080
   32        HC    1  MOL     H32    32   0.0600000    1.0080
   33        HC    1  MOL     H33    33   0.0600000    1.0080
   34        HC    1  MOL     H34    34   0.0600000    1.0080
   35        HC    1  MOL     H35    35   0.0600000    1.0080
   36        HC    1  MOL     H36    36   0.0600000    1.0080
   37        HC    1  MOL     H37    37   0.0600000    1.0080
   38        CT    1  MOL     C38    38  -0.1200000   12.0115
   39        CT    1  MOL     C39    39  -0.0600000   12.0115
   40        CT    1  MOL     C40    40  -0.1200000   12.0115
   41        CT    1  MOL     C41    41  -0.1200000   12.0115
   42        CT    1  MOL     C42    42  -0.1200000   12.0115
   43        CT    1  MOL     C43    43  -0.1800000   12.0115
   44        HC    1  MOL     H44    44   0.0600000    1.0080
   45        HC    1  MOL     H45    45   0.0600000    1.0080
   46        HC    1  MOL     H46    46   0.0600000    1.0080
   47        HC    1  MOL     H47    47   0.0600000    1.0080
   48        HC    1  MOL     H48    48   0.0600000    1.0080
   49        HC    1  MOL     H49    49   0.0600000    1.0080
   50        HC    1  MOL     H50    50   0.0600000    1.0080
   51        HC    1  MOL     H51    51   0.0600000    1.0080
   52        HC    1  MOL     H52    52   0.0600000    1.0080
   53        HC    1  MOL     H53    53   0.0600000    1.0080
   54        HC    1  MOL     H54    54   0.0600000    1.0080
   55        HC    1  MOL     H55    55   0.0600000    1.0080
   56        CT    1  MOL     C56    56  -0.1200000   12.0115
   57        CT    1  MOL     C57    57  -0.0600000   12.0115
   58        CT    1  MOL     C58    58  -0.1200000   12.0115
   59        CT    1  MOL     C59    59  -0.1200000   12.0115
   60        CT    1  MOL     C60    60  -0.1200000   12.0115
   61        CT    1  MOL     C61    61  -0.1800000   12.0115
   62        HC    1  MOL     H62    62   0.0600000    1.0080
   63        HC    1  MOL     H63    63   0.0600000    1.0080
   64        HC    1  MOL     H64    64   0.0600000    1.0080
   65        HC    1  MOL     H65    65   0.0600000    1.0080
   66        HC    1  MOL     H66    66   0.0600000    1.0080
   67        HC    1  MOL     H67    67   0.0600000    1.0080
   68        HC    1  MOL     H68    68   0.0600000    1.0080
   69        HC    1  MOL     H69    69   0.0600000    1.0080
   70        HC    1  MOL     H70    70   0.0600000    1.0080
   71        HC    1  MOL     H71    71   0.0600000    1.0080
   72        HC    1  MOL     H72    72   0.0600000    1.0080
   73        HC    1  MOL     H73    73   0.0600000    1.0080
   74        CT    1  MOL     C74    74  -0.1200000   12.0115
   75        CT    1  MOL     C75    75  -0.0600000   12.0115
   76        CT    1  MOL     C76    76  -0.1200000   12.0115
   77        CT    1  MOL     C77    77  -0.1200000   12.0115
   78        CT    1  MOL     C78    78  -0.1200000   12.0115
   79        CT    1  MOL     C79    79  -0.1800000   12.0115
   80        HC    1  MOL     H80    80   0.0600000    1.0080
   81        HC    1  MOL     H81    81   0.0600000    1.0080
   82        HC    1  MOL     H82    82   0.0600000    1.0080
   83        HC    1  MOL     H83    83   0.0600000    1.0080
   84        HC    1  MOL     H84    84   0.0600000    1.0080
   85        HC    1  MOL     H85    85   0.0600000    1.0080
   86        HC    1  MOL     H86    86   0.0600000    1.0080
   87        HC    1  MOL     H87    87   0.0600000    1.0080
   88        HC    1  MOL     H88    88   0.0600000    1.0080
   89        HC    1  MOL     H89    89   0.0600000    1.0080
   90        HC    1  MOL     H90    90   0.0600000    1.0080
   91        HC    1  MOL     H91    91   0.0600000    1.0080
   92        CT    1  MOL     C92    92  -0.1200000   12.0115
   93        CT    1  MOL     C93    93  -0.0600000   12.0115
   94        CT    1  MOL     C94    94  -0.1200000   12.0115
   95        CT    1  MOL     C95    95  -0.1200000   12.0115
   96        CT    1  MOL     C96    96  -0.1200000   12.0115
   97        CT    1  MOL     C97    97  -0.1800000   12.0115
   98        HC    1  MOL     H98    98   0.0600000    1.0080
   99        HC    1  MOL     H99    99   0.0600000    1.0080
  100        HC    1  MOL    H100   100   0.0600000    1.0080
  101        HC    1  MOL    H101   101   0.0600000    1.0080
  102        HC    1  MOL    H102   102   0.0600000    1.0080
  103        HC    1  MOL    H103   103   0.0600000    1.0080
  104        HC    1  MOL    H104   104   0.0600000    1.0080
  105        HC    1  MOL    H105   105   0.0600000    1.0080
  106        HC    1  MOL    H106   106   0.0600000    1.0080
  107        HC    1  MOL    H107   107   0.0600000    1.0080
  108        HC    1  MOL    H108   108   0.0600000    1.0080
  109        HC    1  MOL    H109   109   0.0600000    1.0080
  110        CT    1  MOL    C110   110  -0.1200000   12.0115
  111        CT    1  MOL    C111   111  -0.0600000   12.0115
  112        CT    1  MOL    C112   112  -0.1200000   12.0115
  113        CT    1  MOL    C113   113  -0.1200000   12.0115
  114        CT    1  MOL    C114   114  -0.1200000   12.0115
  115        CT    1  MOL    C115   115  -0.1800000   12.0115
  116        HC    1  MOL    H116   116   0.0600000    1.0080
  117        HC    1  MOL    H117   117   0.0600000    1.0080
  118        HC    1  MOL    H118   118   0.0600000    1.0080
  119        HC    1  MOL    H119   119   0.0600000    1.0080
  120        HC    1  MOL    H120   120   0.0600000    1.0080
  121        HC    1  MOL    H121   121   0.0600000    1.0080
  122        HC    1  MOL    H122   122   0.0600000    1.0080
  123        HC    1  MOL    H123   123   0.0600000    1.0080
  124        HC    1  MOL    H124   124   0.0600000    1.0080
  125        HC    1  MOL    H125   125   0.0600000    1.0080
  126        HC    1  MOL    H126   126   0.0600000    1.0080
  127        HC    1  MOL    H127   127   0.0600000    1.0080
  128        CT    1  MOL    C128   128  -0.1200000   12.0115
  129        CT    1  MOL    C129   129  -0.0600000   12.0115
  130        CT    1  MOL    C130   130  -0.1200000   12.0115
  131        CT    1  MOL    C131   131  -0.1200000   12.0115
  132        CT    1  MOL    C132   132  -0.1200000   12.0115
  133        CT    1  MOL    C133   133  -0.1800000   12.0115
  134        HC    1  MOL    H134   134   0.0600000    1.0080
  135        HC    1  MOL    H135   135   0.0600000    1.0080
  136        HC    1  MOL    H136   136   0.0600000    1.0080
  137        HC    1  MOL    H137   137   0.0600000    1.0080
  138        HC    1  MOL    H138   138   0.0600000    1.0080
  139        HC    1  MOL    H139   139   0.0600000    1.0080
  140        HC    1  MOL    H140   140   0.0600000    1.0080
  141        HC    1  MOL    H141   141   0.0600000    1.0080
  142        HC    1  MOL    H142   142   0.0600000    1.0080
  143        HC    1  MOL    H143   143   0.0600000    1.0080
  144        HC    1  MOL    H144   144   0.0600000    1.0080
  145        HC    1  MOL    H145   145   0.0600000    1.0080
  146        CT    1  MOL    C146   146  -0.1200000   12.0115
  147        CT    1  MOL    C147   147  -0.0600000   12.0115
  148        CT    1  MOL    C148   148  -0.1200000   12.0115
  149        CT    1  MOL    C149   149  -0.1200000   12.0115
  150        CT    1  MOL    C150   150  -0.1200000   12.0115
  151        CT    1  MOL    C151   151  -0.1800000   12.0115
  152        HC    1  MOL    H152   152   0.0600000    1.0080
  153        HC    1  MOL    H153   153   0.0600000    1.0080
  154        HC    1  MOL    H154   154   0.0600000    1.0080
  155        HC    1  MOL    H155   155   0.0600000    1.0080
  156        HC    1  MOL    H156   156   0.0600000    1.0080
  157        HC    1  MOL    H157   157   0.0600000    1.0080
  158        HC    1  MOL    H158   158   0.0600000    1.0080
  159        HC    1  MOL    H159   159   0.0600000    1.0080
  160        HC    1  MOL    H160   160   0.0600000    1.0080
  161        HC    1  MOL    H161   161   0.0600000    1.0080
  162        HC    1  MOL    H162   162   0.0600000    1.0080
  163        HC    1  MOL    H163   163   0.0600000    1.0080
  164        CT    1  MOL    C164   164  -0.1200000   12.0115
  165        CT    1  MOL    C165   165  -0.0600000   12.0115
  166        CT    1  MOL    C166   166  -0.1200000   12.0115
  167        CT    1  MOL    C167   167  -0.1200000   12.0115
  168        CT    1  MOL    C168   168  -0.1200000   12.0115
  169        CT    1  MOL    C169   169  -0.1800000   12.0115
  170        HC    1  MOL    H170   170   0.0600000    1.0080
  171        HC    1  MOL    H171   171   0.0600000    1.0080
  172        HC    1  MOL    H172   172   0.0600000    1.0080
  173        HC    1  MOL    H173   173   0.0600000    1.0080
  174        HC    1  MOL    H174   174   0.0600000    1.0080
  175        HC    1  MOL    H175   175   0.0600000    1.0080
  176        HC    1  MOL    H176   176   0.0600000    1.0080
  177        HC    1  MOL    H177   177   0.0600000    1.0080
  178        HC    1  MOL    H178   178   0.0600000    1.0080
  179        HC    1  MOL    H179   179   0.0600000    1.0080
  180        HC    1  MOL    H180   180   0.0600000    1.0080
  181        HC    1  MOL    H181   181   0.0600000    1.0080
  182        CT    1  MOL    C182   182  -0.1200000   12.0115
  183        CT    1  MOL    C183   183  -0.0600000   12.0115
  184        CT    1  MOL    C184   184  -0.1200000   12.0115
  185        CT    1  MOL    C185   185  -0.1200000   12.0115
  186        CT    1  MOL    C186   186  -0.1200000   12.0115
  187        CT    1  MOL    C187   187  -0.1800000   12.0115
  188        HC    1  MOL    H188   188   0.0600000    1.0080
  189        HC    1  MOL    H189   189   0.0600000    1.0080
  190        HC    1  MOL    H190   190   0.0600000    1.0080
  191        HC    1  MOL    H191   191   0.0600000    1.0080
  192        HC    1  MOL    H192   192   0.0600000    1.0080
  193        HC    1  MOL    H193   193   0.0600000    1.0080
  194        HC    1  MOL    H194   194   0.0600000    1.0080
  195        HC    1  MOL    H195   195   0.0600000    1.0080
  196        HC    1  MOL    H196   196   0.0600000    1.0080
  197        HC    1  MOL    H197   197   0.0600000    1.0080
  198        HC    1  MOL    H198   198   0.0600000    1.0080
  199        HC    1  MOL    H199   199   0.0600000    1.0080
  200        CT    1  MOL    C200   200  -0.1200000   12.0115
  201        CT    1  MOL    C201   201  -0.0600000   12.0115
  202        CT    1  MOL    C202   202  -0.1200000   12.0115
  203        CT    1  MOL    C203   203  -0.1200000   12.0115
  204        CT    1  MOL    C204   204  -0.1200000   12.0115
  205        CT    1  MOL    C205   205  -0.1800000   12.0115
  206        HC    1  MOL    H206   206   0.0600000    1.0080
  207        HC    1  MOL    H207   207   0.0600000    1.0080
  208        HC    1  MOL    H208   208   0.0600000    1.0080
  209        HC    1  MOL    H209   209   0.0600000    1.0080
  210        HC    1  MOL    H210   210   0.0600000    1.0080
  211        HC    1  MOL    H211   211   0.0600000    1.0080
  212        HC    1  MOL    H212   212   0.0600000    1.0080
  213        HC    1  MOL    H213   213   0.0600000    1.0080
  214        HC    1  MOL    H214   214   0.0600000    1.0080
  215        HC    1  MOL    H215   215   0.0600000    1.0080
  216        HC    1  MOL    H216   216   0.0600000    1.0080
  217        HC    1  MOL    H217   217   0.0600000    1.0080
  218        CT    1  MOL    C218   218  -0.1200000   12.0115
  219        CT    1  MOL    C219   219  -0.0600000   12.0115
  220        CT    1  MOL    C220   220  -0.1200000   12.0115
  221        CT    1  MOL    C221   221  -0.1200000   12.0115
  222        CT    1  MOL    C222   222  -0.1200000   12.0115
  223        CT    1  MOL    C223   223  -0.1800000   12.0115
  224        HC    1  MOL    H224   224   0.0600000    1.0080
  225        HC    1  MOL    H225   225   0.0600000    1.0080
  226        HC    1  MOL    H226   226   0.0600000    1.0080
  227        HC    1  MOL    H227   227   0.0600000    1.0080
  228        HC    1  MOL    H228   228   0.0600000    1.0080
  229        HC    1  MOL    H229   229   0.0600000    1.0080
  230        HC    1  MOL    H230   230   0.0600000    1.0080
  231        HC    1  MOL    H231   231   0.0600000    1.0080
  232        HC    1  MOL    H232   232   0.0600000    1.0080
  233        HC    1  MOL    H233   233   0.0600000    1.0080
  234        HC    1  MOL    H234   234   0.0600000    1.0080
  235        HC    1  MOL    H235   235   0.0600000    1.0080
  236        CT    1  MOL    C236   236  -0.1200000   12.0115
  237        CT    1  MOL    C237   237  -0.0600000   12.0115
  238        CT    1  MOL    C238   238  -0.1200000   12.0115
  239        CT    1  MOL    C239   239  -0.1200000   12.0115
  240        CT    1  MOL    C240   240  -0.1200000   12.0115
  241        CT    1  MOL    C241   241  -0.1800000   12.0115
  242        HC    1  MOL    H242   242   0.0600000    1.0080
  243        HC    1  MOL    H243   243   0.0600000    1.0080
  244        HC    1  MOL    H244   244   0.0600000    1.0080
  245        HC    1  MOL    H245   245   0.0600000    1.0080
  246        HC    1  MOL    H246   246   0.0600000    1.0080
  247        HC    1  MOL    H247   247   0.0600000    1.0080
  248        HC    1  MOL    H248   248   0.0600000    1.0080
  249        HC    1  MOL    H249   249   0.0600000    1.0080
  250        HC    1  MOL    H250   250   0.0600000    1.0080
  251        HC    1  MOL    H251   251   0.0600000    1.0080
  252        HC    1  MOL    H252   252   0.0600000    1.0080
  253        HC    1  MOL    H253   253   0.0600000    1.0080
  254        CT    1  MOL    C254   254  -0.1200000   12.0115
  255        CT    1  MOL    C255   255  -0.0600000   12.0115
  256        CT    1  MOL    C256   256  -0.1200000   12.0115
  257        CT    1  MOL    C257   257  -0.1200000   12.0115
  258        CT    1  MOL    C258   258  -0.1200000   12.0115
  259        CT    1  MOL    C259   259  -0.1800000   12.0115
  260        HC    1  MOL    H260   260   0.0600000    1.0080
  261        HC    1  MOL    H261   261   0.0600000    1.0080
  262        HC    1  MOL    H262   262   0.0600000    1.0080
  263        HC    1  MOL    H263   263   0.0600000    1.0080
  264        HC    1  MOL    H264   264   0.0600000    1.0080
  265        HC    1  MOL    H265   265   0.0600000    1.0080
  266        HC    1  MOL    H266   266   0.0600000    1.0080
  267        HC    1  MOL    H267   267   0.0600000    1.0080
  268        HC    1  MOL    H268   268   0.0600000    1.0080
  269        HC    1  MOL    H269   269   0.0600000    1.0080
  270        HC    1  MOL    H270   270   0.0600000    1.0080
  271        HC    1  MOL    H271   271   0.0600000    1.0080
  272        CT    1  MOL    C272   272  -0.1200000   12.0115
  273        CT    1  MOL    C273   273  -0.0600000   12.0115
  274        CT    1  MOL    C274   274  -0.1200000   12.0115
  275        CT    1  MOL    C275   275  -0.1200000   12.0115
  276        CT    1  MOL    C276   276  -0.1200000   12.0115
  277        CT    1  MOL    C277   277  -0.1800000   12.0115
  278        HC    1  MOL    H278   278   0.0600000    1.0080
  279        HC    1  MOL    H279   279   0.0600000    1.0080
  280        HC    1  MOL    H280   280   0.0600000    1.0080
  281        HC    1  MOL    H281   281   0.0600000    1.0080
  282        HC    1  MOL    H282   282   0.0600000    1.0080
  283        HC    1  MOL    H283   283   0.0600000    1.0080
  284        HC    1  MOL    H284   284   0.0600000    1.0080
  285        HC    1  MOL    H285   285   0.0600000    1.0080
  286        HC    1  MOL    H286   286   0.0600000    1.0080
  287        HC    1  MOL    H287   287   0.0600000    1.0080
  288        HC    1  MOL    H288   288   0.0600000    1.0080
  289        HC    1  MOL    H289   289   0.0600000    1.0080
  290        CT    1  MOL    C290   290  -0.1200000   12.0115
  291        CT    1  MOL    C291   291  -0.0600000   12.0115
  292        CT    1  MOL    C292   292  -0.1200000   12.0115
  293        CT    1  MOL    C293   293  -0.1200000   12.0115
  294        CT    1  MOL    C294   294  -0.1200000   12.0115
  295        CT    1  MOL    C295   295  -0.1800000   12.0115
  296        HC    1  MOL    H296   296   0.0600000    1.0080
  297        HC    1  MOL    H297   297   0.0600000    1.0080
  298        HC    1  MOL    H298   298   0.0600000    1.0080
  299        HC    1  MOL    H299   299   0.0600000    1.0080
  300        HC    1  MOL    H300   300   0.0600000    1.0080
  301        HC    1  MOL    H301   301   0.0600000    1.0080
  302        HC    1  MOL    H302   302   0.0600000    1.0080
  303        HC    1  MOL    H303   303   0.0600000    1.0080
  304        HC    1  MOL    H304   304   0.0600000    1.0080
  305        HC    1  MOL    H305   305   0.0600000    1.0080
  306        HC    1  MOL    H306   306   0.0600000    1.0080
  307        HC    1  MOL    H307   307   0.0600000    1.0080
  308        CT    1  MOL    C308   308  -0.1200000   12.0115
  309        CT    1  MOL    C309   309  -0.0600000   12.0115
  310        CT    1  MOL    C310   310  -0.1200000   12.0115
  311        CT    1  MOL    C311   311  -0.1200000   12.0115
  312        CT    1  MOL    C312   312  -0.1200000   12.0115
  313        CT    1  MOL    C313   313  -0.1800000   12.0115
  314        HC    1  MOL    H314   314   0.0600000    1.0080
  315        HC    1  MOL    H315   315   0.0600000    1.0080
  316        HC    1  MOL    H316   316   0.0600000    1.0080
  317        HC    1  MOL    H317   317   0.0600000    1.0080
  318        HC    1  MOL    H318   318   0.0600000    1.0080
  319        HC    1  MOL    H319   319   0.0600000    1.0080
  320        HC    1  MOL    H320   320   0.0600000    1.0080
  321        HC    1  MOL    H321   321   0.0600000    1.0080
  322        HC    1  MOL    H322   322   0.0600000    1.0080
  323        HC    1  MOL    H323   323   0.0600000    1.0080
  324        HC    1  MOL    H324   324   0.0600000    1.0080
  325        HC    1  MOL    H325   325   0.0600000    1.0080
  326        CT    1  MOL    C326   326  -0.1200000   12.0115
  327        CT    1  MOL    C327   327  -0.0600000   12.0115
  328        CT    1  MOL    C328   328  -0.1200000   12.0115
  329        CT    1  MOL    C329   329  -0.1200000   12.0115
  330        CT    1  MOL    C330   330  -0.1200000   12.0115
  331        CT    1  MOL    C331   331  -0.1800000   12.0115
  332        HC    1  MOL    H332   332   0.0600000    1.0080
  333        HC    1  MOL    H333   333   0.0600000    1.0080
  334        HC    1  MOL    H334   334   0.0600000    1.0080
  335        HC    1  MOL    H335   335   0.0600000    1.0080
  336        HC    1  MOL    H336   336   0.0600000    1.0080
  337        HC    1  MOL    H337   337   0.0600000    1.0080
  338        HC    1  MOL    H338   338   0.0600000    1.0080
  339        HC    1  MOL    H339   339   0.0600000    1.0080
  340        HC    1  MOL    H340   340   0.0600000    1.0080
  341        HC    1  MOL    H341   341   0.0600000    1.0080
  342        HC    1  MOL    H342   342   0.0600000    1.0080
  343        HC    1  MOL    H343   343   0.0600000    1.0080
  344        CT    1  MOL    C344   344  -0.1200000   12.0115
  345        CT    1  MOL    C345   345  -0.1200000   12.0115
  346        CT    1  MOL    C346   346  -0.1200000   12.0115
  347        CT    1  MOL    C347   347  -0.1200000   12.0115
  348        CT    1  MOL    C348   348  -0.1200000   12.0115
  349        CT    1  MOL    C349   349  -0.1800000   12.0115
  350        HC    1  MOL    H350   350   0.0600000    1.0080
  351        HC    1  MOL    H351   351   0.0600000    1.0080
  352        HC    1  MOL    H352   352   0.0600000    1.0080
  353        HC    1  MOL    H353   353   0.0600000    1.0080
  354        HC    1  MOL    H354   354   0.0600000    1.0080
  355        HC    1  MOL    H355   355   0.0600000    1.0080
  356        HC    1  MOL    H356   356   0.0600000    1.0080
  357        HC    1  MOL    H357   357   0.0600000    1.0080
  358        HC    1  MOL    H358   358   0.0600000    1.0080
  359        HC    1  MOL    H359   359   0.0600000    1.0080
  360        HC    1  MOL    H360   360   0.0600000    1.0080
  361        HC    1  MOL    H361   361   0.0600000    1.0080
  362        HC    1  MOL    H362   362   0.0600000    1.0080

[ bonds ]
      1      2   1      0.1529 224262.4000
      1      7   1      0.1090 284512.0000
      1      8   1      0.1090 284512.0000
      1     19   1      0.1090 284512.0000
      2      3   1      0.1529 224262.4000
      2      9   1      0.1090 284512.0000
      2     20   1      0.1529 224262.4000
      3      4   1      0.1529 224262.4000
      3     10   1      0.1090 284512.0000
      3     11   1      0.1090 284512.0000
      4      5   1      0.1529 224262.4000
      4     12   1      0.1090 284512.0000
      4     13   1      0.1090 284512.0000
      5      6   1      0.1529 224262.4000
      5     14   1      0.1090 284512.0000
      5     15   1      0.1090 284512.0000
      6     16   1      0.1090 284512.0000
      6     17   1      0.1090 284512.0000
      6     18   1      0.1090 284512.0000
     20     21   1      0.1529 224262.4000
     20     26   1      0.1090 284512.0000
     20     27   1      0.1090 284512.0000
     21     22   1      0.1529 224262.4000
     21     28   1      0.1090 284512.0000
     21     38   1      0.1529 224262.4000
     22     23   1      0.1529 224262.4000
     22     29   1      0.1090 284512.0000
     22     30   1      0.1090 284512.0000
     23     24   1      0.1529 224262.4000
     23     31   1      0.1090 284512.0000
     23     32   1      0.1090 284512.0000
     24     25   1      0.1529 224262.4000
     24     33   1      0.1090 284512.0000
     24     34   1      0.1090 284512.0000
     25     35   1      0.1090 284512.0000
     25     36   1      0.1090 284512.0000
     25     37   1      0.1090 284512.0000
     38     39   1      0.1529 224262.4000
     38     44   1      0.1090 284512.0000
     38     45   1      0.1090 284512.0000
     39     40   1      0.1529 224262.4000
     39     46   1      0.1090 284512.0000
     39     56   1      0.1529 224262.4000
     40     41   1      0.1529 224262.4000
     40     47   1      0.1090 284512.0000
     40     48   1      0.1090 284512.0000
     41     42   1      0.1529 224262.4000
     41     49   1      0.1090 284512.0000
     41     50   1      0.1090 284512.0000
     42     43   1      0.1529 224262.4000
     42     51   1      0.1090 284512.0000
     42     52   1      0.1090 284512.0000
     43     53   1      0.1090 284512.0000
     43     54   1      0.1090 284512.0000
     43     55   1      0.1090 284512.0000
     56     57   1      0.1529 224262.4000
     56     62   1      0.1090 284512.0000
     56     63   1      0.1090 284512.0000
     57     58   1      0.1529 224262.4000
     57     64   1      0.1090 284512.0000
     57     74   1      0.1529 224262.4000
     58     59   1      0.1529 224262.4000
     58     65   1      0.1090 284512.0000
     58     66   1      0.1090 284512.0000
     59     60   1      0.1529 224262.4000
     59     67   1      0.1090 284512.0000
     59     68   1      0.1090 284512.0000
     60     61   1      0.1529 224262.4000
     60     69   1      0.1090 284512.0000
     60     70   1      0.1090 284512.0000
     61     71   1      0.1090 284512.0000
     61     72   1      0.1090 284512.0000
     61     73   1      0.1090 284512.0000
     74     75   1      0.1529 224262.4000
     74     80   1      0.1090 284512.0000
     74     81   1      0.1090 284512.0000
     75     76   1      0.1529 224262.4000
     75     82   1      0.1090 284512.0000
     75     92   1      0.1529 224262.4000
     76     77   1      0.1529 224262.4000
     76     83   1      0.1090 284512.0000
     76     84   1      0.1090 284512.0000
     77     78   1      0.1529 224262.4000
     77     85   1      0.1090 284512.0000
     77     86   1      0.1090 284512.0000
     78     79   1      0.1529 224262.4000
     78     87   1      0.1090 284512.0000
     78     88   1      0.1090 284512.0000
     79     89   1      0.1090 284512.0000
     79     90   1      0.1090 284512.0000
     79     91   1      0.1090 284512.0000
     92     93   1      0.1529 224262.4000
     92     98   1      0.1090 284512.0000
     92     99   1      0.1090 284512.0000
     93     94   1      0.1529 224262.4000
     93    100   1      0.1090 284512.0000
     93    110   1      0.1529 224262.4000
     94     95   1      0.1529 224262.4000
     94    101   1      0.1090 284512.0000
     94    102   1      0.1090 284512.0000
     95     96   1      0.1529 224262.4000
     95    103   1      0.1090 284512.0000
     95    104   1      0.1090 284512.0000
     96     97   1      0.1529 224262.4000
     96    105   1      0.1090 284512.0000
     96    106   1      0.1090 284512.0000
     97    107   1      0.1090 284512.0000
     97    108   1      0.1090 284512.0000
     97    109   1      0.1090 284512.0000
    110    111   1      0.1529 224262.4000
    110    116   1      0.1090 284512.0000
    110    117   1      0.1090 284512.0000
    111    112   1      0.1529 224262.4000
    111    118   1      0.1090 284512.0000
    111    128   1      0.1529 224262.4000
    112    113   1      0.1529 224262.4000
    112    119   1      0.1090 284512.0000
    112    120   1      0.1090 284512.0000
    113    114   1      0.1529 224262.4000
    113    121   1      0.1090 284512.0000
    113    122   1      0.1090 284512.0000
    114    115   1      0.1529 224262.4000
    114    123   1      0.1090 284512.0000
    114    124   1      0.1090 284512.0000
    115    125   1      0.1090 284512.0000
    115    126   1      0.1090 284512.0000
    115    127   1      0.1090 284512.0000
    128    129   1      0.1529 224262.4000
    128    134   1      0.1090 284512.0000
    128    135   1      0.1090 284512.0000
    129    130   1      0.1529 224262.4000
    129    136   1      0.1090 284512.0000
    129    146   1      0.1529 224262.4000
    130    131   1      0.1529 224262.4000
    130    137   1      0.1090 284512.0000
    130    138   1      0.1090 284512.0000
    131    132   1      0.1529 224262.4000
    131    139   1      0.1090 284512.0000
    131    140   1      0.1090 284512.0000
    132    133   1      0.1529 224262.4000
    132    141   1      0.1090 284512.0000
    132    142   1      0.1090 284512.0000
    133    143   1      0.1090 284512.0000
    133    144   1      0.1090 284512.0000
    133    145   1      0.1090 284512.0000
    146    147   1      0.1529 224262.4000
    146    152   1      0.1090 284512.0000
    146    153   1      0.1090 284512.0000
    147    148   1      0.1529 224262.4000
    147    154   1      0.1090 284512.0000
    147    164   1      0.1529 224262.4000
    148    149   1      0.1529 224262.4000
    148    155   1      0.1090 284512.0000
    148    156   1      0.1090 284512.0000
    149    150   1      0.1529 224262.4000
    149    157   1      0.1090 284512.0000
    149    158   1      0.1090 284512.0000
    150    151   1      0.1529 224262.4000
    150    159   1      0.1090 284512.0000
    150    160   1      0.1090 284512.0000
    151    161   1      0.1090 284512.0000
    151    162   1      0.1090 284512.0000
    151    163   1      0.1090 284512.0000
    164    165   1      0.1529 224262.4000
    164    170   1      0.1090 284512.0000
    164    171   1      0.1090 284512.0000
    165    166   1      0.1529 224262.4000
    165    172   1      0.1090 284512.0000
    165    182   1      0.1529 224262.4000
    166    167   1      0.1529 224262.4000
    166    173   1      0.1090 284512.0000
    166    174   1      0.1090 284512.0000
    167    168   1      0.1529 224262.4000
    167    175   1      0.1090 284512.0000
    167    176   1      0.1090 284512.0000
    168    169   1      0.1529 224262.4000
    168    177   1      0.1090 284512.0000
    168    178   1      0.1090 284512.0000
    169    179   1      0.1090 284512.0000
    169    180   1      0.1090 284512.0000
    169    181   1      0.1090 284512.0000
    182    183   1      0.1529 224262.4000
    182    188   1      0.1090 284512.0000
    182    189   1      0.1090 284512.0000
    183    184   1      0.1529 224262.4000
    183    190   1      0.1090 284512.0000
    183    200   1      0.1529 224262.4000
    184    185   1      0.1529 224262.4000
    184    191   1      0.1090 284512.0000
    184    192   1      0.1090 284512.0000
    185    186   1      0.1529 224262.4000
    185    193   1      0.1090 284512.0000
    185    194   1      0.1090 284512.0000
    186    187   1      0.1529 224262.4000
    186    195   1      0.1090 284512.0000
    186    196   1      0.1090 284512.0000
    187    197   1      0.1090 284512.0000
    187    198   1      0.1090 284512.0000
    187    199   1      0.1090 284512.0000
    200    201   1      0.1529 224262.4000
    200    206   1      0.1090 284512.0000
    200    207   1      0.1090 284512.0000
    201    202   1      0.1529 224262.4000
    201    208   1      0.1090 284512.0000
    201    218   1      0.1529 224262.4000
    202    203   1      0.1529 224262.4000
    202    209   1      0.1090 284512.0000
    202    210   1      0.1090 284512.0000
    203    204   1      0.1529 224262.4000
    203    211   1      0.1090 284512.0000
    203    212   1      0.1090 284512.0000
    204    205   1      0.1529 224262.4000
    204    213   1      0.1090 284512.0000
    204    214   1      0.1090 284512.0000
    205    215   1      0.1090 284512.0000
    205    216   1      0.1090 284512.0000
    205    217   1      0.1090 284512.0000
    218    219   1      0.1529 224262.4000
    218    224   1      0.1090 284512.0000
    218    225   1      0.1090 284512.0000
    219    220   1      0.1529 224262.4000
    219    226   1      0.1090 284512.0000
    219    236   1      0.1529 224262.4000
    220    221   1      0.1529 224262.4000
    220    227   1      0.1090 284512.0000
    220    228   1      0.1090 284512.0000
    221    222   1      0.1529 224262.4000
    221    229   1      0.1090 284512.0000
    221    230   1      0.1090 284512.0000
    222    223   1      0.1529 224262.4000
    222    231   1      0.1090 284512.0000
    222    232   1      0.1090 284512.0000
    223    233   1      0.1090 284512.0000
    223    234   1      0.1090 284512.0000
    223    235   1      0.1090 284512.0000
    236    237   1      0.1529 224262.4000
    236    242   1      0.1090 284512.0000
    236    243   1      0.1090 284512.0000
    237    238   1      0.1529 224262.4000
    237    244   1      0.1090 284512.0000
    237    254   1      0.1529 224262.4000
    238    239   1      0.1529 224262.4000
    238    245   1      0.1090 284512.0000
    238    246   1      0.1090 284512.0000
    239    240   1      0.1529 224262.4000
    239    247   1      0.1090 284512.0000
    239    248   1      0.1090 284512.0000
    240    241   1      0.1529 224262.4000
    240    249   1      0.1090 284512.0000
    240    250   1      0.1090 284512.0000
    241    251   1      0.1090 284512.0000
    241    252   1      0.1090 284512.0000
    241    253   1      0.1090 284512.0000
    254    255   1      0.1529 224262.4000
    254    260   1      0.1090 284512.0000
    254    261   1      0.1090 284512.0000
    255    256   1      0.1529 224262.4000
    255    262   1      0.1090 284512.0000
    255    272   1      0.1529 224262.4000
    256    257   1      0.1529 224262.4000
    256    263   1      0.1090 284512.0000
    256    264   1      0.1090 284512.0000
    257    258   1      0.1529 224262.4000
    257    265   1      0.1090 284512.0000
    257    266   1      0.1090 284512.0000
    258    259   1      0.1529 224262.4000
    258    267   1      0.1090 284512.0000
    258    268   1      0.1090 284512.0000
    259    269   1      0.1090 284512.0000
    259    270   1      0.1090 284512.0000
    259    271   1      0.1090 284512.0000
    272    273   1      0.1529 224262.4000
    272    278   1      0.1090 284512.0000
    272    279   1      0.1090 284512.0000
    273    274   1      0.1529 224262.4000
    273    280   1      0.1090 284512.0000
    273    290   1      0.1529 224262.4000
    274    275   1      0.1529 224262.4000
    274    281   1      0.1090 284512.0000
    274    282   1      0.1090 284512.0000
    275    276   1      0.1529 224262.4000
    275    283   1      0.1090 284512.0000
    275    284   1      0.1090 284512.0000
    276    277   1      0.1529 224262.4000
    276    285   1      0.1090 284512.0000
    276    286   1      0.1090 284512.0000
    277    287   1      0.1090 284512.0000
    277    288   1      0.1090 284512.0000
    277    289   1      0.1090 284512.0000
    290    291   1      0.1529 224262.4000
    290    296   1      0.1090 284512.0000
    290    297   1      0.1090 284512.0000
    291    292   1      0.1529 224262.4000
    291    298   1      0.1090 284512.0000
    291    308   1      0.1529 224262.4000
    292    293   1      0.1529 224262.4000
    292    299   1      0.1090 284512.0000
    292    300   1      0.1090 284512.0000
    293    294   1      0.1529 224262.4000
    293    301   1      0.1090 284512.0000
    293    302   1      0.1090 284512.0000
    294    295   1      0.1529 224262.4000
    294    303   1      0.1090 284512.0000
    294    304   1      0.1090 284512.0000
    295    305   1      0.1090 284512.0000
    295    306   1      0.1090 284512.0000
    295    307   1      0.1090 284512.0000
    308    309   1      0.1529 224262.4000
    308    314   1      0.1090 284512.0000
    308    315   1      0.1090 284512.0000
    309    310   1      0.1529 224262.4000
    309    316   1      0.1090 284512.0000
    309    326   1      0.1529 224262.4000
    310    311   1      0.1529 224262.4000
    310    317   1      0.1090 284512.0000
    310    318   1      0.1090 284512.0000
    311    312   1      0.1529 224262.4000
    311    319   1      0.1090 284512.0000
    311    320   1      0.1090 284512.0000
    312    313   1      0.1529 224262.4000
    312    321   1      0.1090 284512.0000
    312    322   1      0.1090 284512.0000
    313    323   1      0.1090 284512.0000
    313    324   1      0.1090 284512.0000
    313    325   1      0.1090 284512.0000
    326    327   1      0.1529 224262.4000
    326    332   1      0.1090 284512.0000
    326    333   1      0.1090 284512.0000
    327    328   1      0.1529 224262.4000
    327    334   1      0.1090 284512.0000
    327    344   1      0.1529 224262.4000
    328    329   1      0.1529 224262.4000
    328    335   1      0.1090 284512.0000
    328    336   1      0.1090 284512.0000
    329    330   1      0.1529 224262.4000
    329    337   1      0.1090 284512.0000
    329    338   1      0.1090 284512.0000
    330    331   1      0.1529 224262.4000
    330    339   1      0.1090 284512.0000
    330    340   1      0.1090 284512.0000
    331    341   1      0.1090 284512.0000
    331    342   1      0.1090 284512.0000
    331    343   1      0.1090 284512.0000
    344    345   1      0.1529 224262.4000
    344    350   1      0.1090 284512.0000
    344    351   1      0.1090 284512.0000
    345    346   1      0.1529 224262.4000
    345    352   1      0.1090 284512.0000
    345    362   1      0.1090 284512.0000
    346    347   1      0.1529 224262.4000
    346    353   1      0.1090 284512.0000
    346    354   1      0.1090 284512.0000
    347    348   1      0.1529 224262.4000
    347    355   1      0.1090 284512.0000
    347    356   1      0.1090 284512.0000
    348    349   1      0.1529 224262.4000
    348    357   1      0.1090 284512.0000
    348    358   1      0.1090 284512.0000
    349    359   1      0.1090 284512.0000
    349    360   1      0.1090 284512.0000
    349    361   1      0.1090 284512.0000

[ pairs ]
; ai   aj   funct   fudge_QQ  charge_i   charge_j   c6    c12
      7      3   2   0.50000     0.0600000   -0.1200000   2.494471e-04  1.671101e-07
      7      9   2   0.50000     0.0600000    0.0600000   6.128906e-05  1.496315e-08
      7     20   2   0.50000     0.0600000   -0.1200000   2.494471e-04  1.671101e-07
      8      3   2   0.50000     0.0600000   -0.1200000   2.494471e-04  1.671101e-07
      8      9   2   0.50000     0.0600000    0.0600000   6.128906e-05  1.496315e-08
      8     20   2   0.50000     0.0600000   -0.1200000   2.494471e-04  1.671101e-07
     19      3   2   0.50000     0.0600000   -0.1200000   2.494471e-04  1.671101e-07
     19      9   2   0.50000     0.0600000    0.0600000   6.128906e-05  1.496315e-08
     19     20   2   0.50000     0.0600000   -0.1200000   2.494471e-04  1.671101e-07
      1      4   2   0.50000    -0.1800000   -0.1200000   1.015252e-03  1.866303e-06
      1     10   2   0.50000    -0.1800000    0.0600000   2.494471e-04  1.671101e-07
      1     11   2   0.50000    -0.1800000    0.0600000   2.494471e-04  1.671101e-07
      9      4   2   0.50000     0.0600000   -0.1200000   2.494471e-04  1.671101e-07
      9     10   2   0.50000     0.0600000    0.0600000   6.128906e-05  1.496315e-08
      9     11   2   0.50000     0.0600000    0.0600000   6.128906e-05  1.496315e-08
     20      4   2   0.50000    -0.1200000   -0.1200000   1.015252e-03  1.866303e-06
     20     10   2   0.50000    -0.1200000    0.0600000   2.494471e-04  1.671101e-07
     20     11   2   0.50000    -0.1200000    0.0600000   2.494471e-04  1.671101e-07
      1     21   2   0.50000    -0.1800000   -0.0600000   1.015252e-03  1.866303e-06
      1     26   2   0.50000    -0.1800000    0.0600000   2.494471e-04  1.671101e-07
      1     27   2   0.50000    -0.1800000    0.0600000   2.494471e-04  1.671101e-07
      3     21   2   0.50000    -0.1200000   -0.0600000   1.015252e-03  1.866303e-06
      3     26   2   0.50000    -0.1200000    0.0600000   2.494471e-04  1.671101e-07
      3     27   2   0.50000    -0.1200000    0.0600000   2.494471e-04  1.671101e-07
      9     21   2   0.50000     0.0600000   -0.0600000   2.494471e-04  1.671101e-07
      9     26   2   0.50000     0.0600000    0.0600000   6.128906e-05  1.496315e-08
      9     27   2   0.50000     0.0600000    0.0600000   6.128906e-05  1.496315e-08
      2      5   2   0.50000    -0.0600000   -0.1200000   1.015252e-03  1.866303e-06
      2     12   2   0.50000    -0.0600000    0.0600000   2.494471e-04  1.671101e-07
      2     13   2   0.50000    -0.0600000    0.0600000   2.494471e-04  1.671101e-07
     10      5   2   0.50000     0.0600000   -0.1200000   2.494471e-04  1.671101e-07
     10     12   2   0.50000     0.0600000    0.0600000   6.128906e-05  1.496315e-08
     10     13   2   0.50000     0.0600000    0.0600000   6.128906e-05  1.496315e-08
     11      5   2   0.50000     0.0600000   -0.1200000   2.494471e-04  1.671101e-07
     11     12   2   0.50000     0.0600000    0.0600000   6.128906e-05  1.496315e-08
     11     13   2   0.50000     0.0600000    0.0600000   6.128906e-05  1.496315e-08
      3      6   2   0.50000    -0.1200000   -0.1800000   1.015252e-03  1.866303e-06
      3     14   2   0.50000    -0.1200000    0.0600000   2.494471e-04  1.671101e-07
      3     15   2   0.50000    -0.1200000    0.0600000   2.494471e-04  1.671101e-07
     12      6   2   0.50000     0.0600000   -0.1800000   2.494471e-04  1.671101e-07
     12     14   2   0.50000     0.0600000    0.0600000   6.128906e-05  1.496315e-08
     12     15   2   0.50000     0.0600000    0.0600000   6.128906e-05  1.496315e-08
     13      6   2   0.50000     0.0600000   -0.1800000   2.494471e-04  1.671101e-07
     13     14   2   0.50000     0.0600000    0.0600000   6.128906e-05  1.496315e-08
     13     15   2   0.50000     0.0600000    0.0600000   6.128906e-05  1.496315e-08
      4     16   2   0.50000    -0.1200000    0.0600000   2.494471e-04  1.671101e-07
      4     17   2   0.50000    -0.1200000    0.0600000   2.494471e-04  1.671101e-07
      4     18   2   0.50000    -0.1200000    0.0600000   2.494471e-04  1.671101e-07
     14     16   2   0.50000     0.0600000    0.0600000   6.128906e-05  1.496315e-08
     14     17   2   0.50000     0.0600000    0.0600000   6.128906e-05  1.496315e-08
     14     18   2   0.50000     0.0600000    0.0600000   6.128906e-05  1.496315e-08
     15     16   2   0.50000     0.0600000    0.0600000   6.128906e-05  1.496315e-08
     15     17   2   0.50000     0.0600000    0.0600000   6.128906e-05  1.496315e-08
     15     18   2   0.50000     0.0600000    0.0600000   6.128906e-05  1.496315e-08
      2     22   2   0.50000    -0.0600000   -0.1200000   1.015252e-03  1.866303e-06
      2     28   2   0.50000    -0.0600000    0.0600000   2.494471e-04  1.671101e-07
      2     38   2   0.50000    -0.0600000   -0.1200000   1.015252e-03  1.866303e-06
     26     22   2   0.50000     0.0600000   -0.1200000   2.494471e-04  1.671101e-07
     26     28   2   0.50000     0.0600000    0.0600000   6.128906e-05  1.496315e-08
     26     38   2   0.50000     0.0600000   -0.1200000   2.494471e-04  1.671101e-07
     27     22   2   0.50000     0.0600000   -0.1200000   2.494471e-04  1.671101e-07
     27     28   2   0.50000     0.0600000    0.0600000   6.128906e-05  1.496315e-08
     27     38   2   0.50000     0.0600000   -0.1200000   2.494471e-04  1.671101e-07
     20     23   2   0.50000    -0.1200000   -0.1200000   1.015252e-03  1.866303e-06
     20     29   2   0.50000    -0.1200000    0.0600000   2.494471e-04  1.671101e-07
     20     30   2   0.50000    -0.1200000    0.0600000   2.494471e-04  1.671101e-07
     28     23   2   0.50000     0.0600000   -0.1200000   2.494471e-04  1.671101e-07
     28     29   2   0.50000     0.0600000    0.0600000   6.128906e-05  1.496315e-08
     28     30   2   0.50000     0.0600000    0.0600000   6.128906e-05  1.496315e-08
     38     23   2   0.50000    -0.1200000   -0.1200000   1.015252e-03  1.866303e-06
     38     29   2   0.50000    -0.1200000    0.0600000   2.494471e-04  1.671101e-07
     38     30   2   0.50000    -0.1200000    0.0600000   2.494471e-04  1.671101e-07
     20     39   2   0.50000    -0.1200000   -0.0600000   1.015252e-03  1.866303e-06
     20     44   2   0.50000    -0.1200000    0.0600000   2.494471e-04  1.671101e-07
     20     45   2   0.50000    -0.1200000    0.0600000   2.494471e-04  1.671101e-07
     22     39   2   0.50000    -0.1200000   -0.0600000   1.015252e-03  1.866303e-06
     22     44   2   0.50000    -0.1200000    0.0600000   2.494471e-04  1.671101e-07
     22     45   2   0.50000    -0.1200000    0.0600000   2.494471e-04  1.671101e-07
     28     39   2   0.50000     0.0600000   -0.0600000   2.494471e-04  1.671101e-07
     28     44   2   0.50000     0.0600000    0.0600000   6.128906e-05  1.496315e-08
     28     45   2   0.50000     0.0600000    0.0600000   6.128906e-05  1.496315e-08
     21     24   2   0.50000    -0.0600000   -0.1200000   1.015252e-03  1.866303e-06
     21     31   2   0.50000    -0.0600000    0.0600000   2.494471e-04  1.671101e-07
     21     32   2   0.50000    -0.0600000    0.0600000   2.494471e-04  1.671101e-07
     29     24   2   0.50000     0.0600000   -0.1200000   2.494471e-04  1.671101e-07
     29     31   2   0.50000     0.0600000    0.0600000   6.128906e-05  1.496315e-08
     29     32   2   0.50000     0.0600000    0.0600000   6.128906e-05  1.496315e-08
     30     24   2   0.50000     0.0600000   -0.1200000   2.494471e-04  1.671101e-07
     30     31   2   0.50000     0.0600000    0.0600000   6.128906e-05  1.496315e-08
     30     32   2   0.50000     0.0600000    0.0600000   6.128906e-05  1.496315e-08
     22     25   2   0.50000    -0.1200000   -0.1800000   1.015252e-03  1.866303e-06
     22     33   2   0.50000    -0.1200000    0.0600000   2.494471e-04  1.671101e-07
     22     34   2   0.50000    -0.1200000    0.0600000   2.494471e-04  1.671101e-07
     31     25   2   0.50000     0.0600000   -0.1800000   2.494471e-04  1.671101e-07
     31     33   2   0.50000     0.0600000    0.0600000   6.128906e-05  1.496315e-08
     31     34   2   0.50000     0.0600000    0.0600000   6.128906e-05  1.496315e-08
     32     25   2   0.50000     0.0600000   -0.1800000   2.494471e-04  1.671101e-07
     32     33   2   0.50000     0.0600000    0.0600000   6.128906e-05  1.496315e-08
     32     34   2   0.50000     0.0600000    0.0600000   6.128906e-05  1.496315e-08
     23     35   2   0.50000    -0.1200000    0.0600000   2.494471e-04  1.671101e-07
     23     36   2   0.50000    -0.1200000    0.0600000   2.494471e-04  1.671101e-07
     23     37   2   0.50000    -0.1200000    0.0600000   2.494471e-04  1.671101e-07
     33     35   2   0.50000     0.0600000    0.0600000   6.128906e-05  1.496315e-08
     33     36   2   0.50000     0.0600000    0.0600000   6.128906e-05  1.496315e-08
     33     37   2   0.50000     0.0600000    0.0600000   6.128906e-05  1.496315e-08
     34     35   2   0.50000     0.0600000    0.0600000   6.128906e-05  1.496315e-08
     34     36   2   0.50000     0.0600000    0.0600000   6.128906e-05  1.496315e-08
     34     37   2   0.50000     0.0600000    0.0600000   6.128906e-05  1.496315e-08
     21     40   2   0.50000    -0.0600000   -0.1200000   1.015252e-03  1.866303e-06
     21     46   2   0.50000    -0.0600000    0.0600000   2.494471e-04  1.671101e-07
     21     56   2   0.50000    -0.0600000   -0.1200000   1.015252e-03  1.866303e-06
     44     40   2   0.50000     0.0600000   -0.1200000   2.494471e-04  1.671101e-07
     44     46   2   0.50000     0.0600000    0.0600000   6.128906e-05  1.496315e-08
     44     56   2   0.50000     0.0600000   -0.1200000   2.494471e-04  1.671101e-07
     45     40   2   0.50000     0.0600000   -0.1200000   2.494471e-04  1.671101e-07
     45     46   2   0.50000     0.0600000    0.0600000   6.128906e-05  1.496315e-08
     45     56   2   0.50000     0.0600000   -0.1200000   2.494471e-04  1.671101e-07
     38     41   2   0.50000    -0.1200000   -0.1200000   1.015252e-03  1.866303e-06
     38     47   2   0.50000    -0.1200000    0.0600000   2.494471e-04  1.671101e-07
     38     48   2   0.50000    -0.1200000    0.0600000   2.494471e-04  1.671101e-07
     46     41   2   0.50000     0.0600000   -0.1200000   2.494471e-04  1.671101e-07
     46     47   2   0.50000     0.0600000    0.0600000   6.128906e-05  1.496315e-08
     46     48   2   0.50000     0.0600000    0.0600000   6.128906e-05  1.496315e-08
     56     41   2   0.50000    -0.1200000   -0.1200000   1.015252e-03  1.866303e-06
     56     47   2   0.50000    -0.1200000    0.0600000   2.494471e-04  1.671101e-07
     56     48   2   0.50000    -0.1200000    0.0600000   2.494471e-04  1.671101e-07
     38     57   2   0.50000    -0.1200000   -0.0600000   1.015252e-03  1.866303e-06
     38     62   2   0.50000    -0.1200000    0.0600000   2.494471e-04  1.671101e-07
     38     63   2   0.50000    -0.1200000    0.0600000   2.494471e-04  1.671101e-07
     40     57   2   0.50000    -0.1200000   -0.0600000   1.015252e-03  1.866303e-06
     40     62   2   0.50000    -0.1200000    0.0600000   2.494471e-04  1.671101e-07
     40     63   2   0.50000    -0.1200000    0.0600000   2.494471e-04  1.671101e-07
     46     57   2   0.50000     0.0600000   -0.0600000   2.494471e-04  1.671101e-07
     46     62   2   0.50000     0.0600000    0.0600000   6.128906e-05  1.496315e-08
     46     63   2   0.50000     0.0600000    0.0600000   6.128906e-05  1.496315e-08
     39     42   2   0.50000    -0.0600000   -0.1200000   1.015252e-03  1.866303e-06
     39     49   2   0.50000    -0.0600000    0.0600000   2.494471e-04  1.671101e-07
     39     50   2   0.50000    -0.0600000    0.0600000   2.494471e-04  1.671101e-07
     47     42   2   0.50000     0.0600000   -0.1200000   2.494471e-04  1.671101e-07
     47     49   2   0.50000     0.0600000    0.0600000   6.128906e-05  1.496315e-08
     47     50   2   0.50000     0.0600000    0.0600000   6.128906e-05  1.496315e-08
     48     42   2   0.50000     0.0600000   -0.1200000   2.494471e-04  1.671101e-07
     48     49   2   0.50000     0.0600000    0.0600000   6.128906e-05  1.496315e-08
     48     50   2   0.50000     0.0600000    0.0600000   6.128906e-05  1.496315e-08
     40     43   2   0.50000    -0.1200000   -0.1800000   1.015252e-03  1.866303e-06
     40     51   2   0.50000    -0.1200000    0.0600000   2.494471e-04  1.671101e-07
     40     52   2   0.50000    -0.1200000    0.0600000   2.494471e-04  1.671101e-07
     49     43   2   0.50000     0.0600000   -0.1800000   2.494471e-04  1.671101e-07
     49     51   2   0.50000     0.0600000    0.0600000   6.128906e-05  1.496315e-08
     49     52   2   0.50000     0.0600000    0.0600000   6.128906e-05  1.496315e-08
     50     43   2   0.50000     0.0600000   -0.1800000   2.494471e-04  1.671101e-07
     50     51   2   0.50000     0.0600000    0.0600000   6.128906e-05  1.496315e-08
     50     52   2   0.50000     0.0600000    0.0600000   6.128906e-05  1.496315e-08
     41     53   2   0.50000    -0.1200000    0.0600000   2.494471e-04  1.671101e-07
     41     54   2   0.50000    -0.1200000    0.0600000   2.494471e-04  1.671101e-07
     41     55   2   0.50000    -0.1200000    0.0600000   2.494471e-04  1.671101e-07
     51     53   2   0.50000     0.0600000    0.0600000   6.128906e-05  1.496315e-08
     51     54   2   0.50000     0.0600000    0.0600000   6.128906e-05  1.496315e-08
     51     55   2   0.50000     0.0600000    0.0600000   6.128906e-05  1.496315e-08
     52     53   2   0.50000     0.0600000    0.0600000   6.128906e-05  1.496315e-08
     52     54   2   0.50000     0.0600000    0.0600000   6.128906e-05  1.496315e-08
     52     55   2   0.50000     0.0600000    0.0600000   6.128906e-05  1.496315e-08
     39     58   2   0.50000    -0.0600000   -0.1200000   1.015252e-03  1.866303e-06
     39     64   2   0.50000    -0.0600000    0.0600000   2.494471e-04  1.671101e-07
     39     74   2   0.50000    -0.0600000   -0.1200000   1.015252e-03  1.866303e-06
     62     58   2   0.50000     0.0600000   -0.1200000   2.494471e-04  1.671101e-07
     62     64   2   0.50000     0.0600000    0.0600000   6.128906e-05  1.496315e-08
     62     74   2   0.50000     0.0600000   -0.1200000   2.494471e-04  1.671101e-07
     63     58   2   0.50000     0.0600000   -0.1200000   2.494471e-04  1.671101e-07
     63     64   2   0.50000     0.0600000    0.0600000   6.128906e-05  1.496315e-08
     63     74   2   0.50000     0.0600000   -0.1200000   2.494471e-04  1.671101e-07
     56     59   2   0.50000    -0.1200000   -0.1200000   1.015252e-03  1.866303e-06
     56     65   2   0.50000    -0.1200000    0.0600000   2.494471e-04  1.671101e-07
     56     66   2   0.50000    -0.1200000    0.0600000   2.494471e-04  1.671101e-07
     64     59   2   0.50000     0.0600000   -0.1200000   2.494471e-04  1.671101e-07
     64     65   2   0.50000     0.0600000    0.0600000   6.128906e-05  1.496315e-08
     64     66   2   0.50000     0.0600000    0.0600000   6.128906e-05  1.496315e-08
     74     59   2   0.50000    -0.1200000   -0.1200000   1.015252e-03  1.866303e-06
     74     65   2   0.50000    -0.1200000    0.0600000   2.494471e-04  1.671101e-07
     74     66   2   0.50000    -0.1200000    0.0600000   2.494471e-04  1.671101e-07
     56     75   2   0.50000    -0.1200000   -0.0600000   1.015252e-03  1.866303e-06
     56     80   2   0.50000    -0.1200000    0.0600000   2.494471e-04  1.671101e-07
     56     81   2   0.50000    -0.1200000    0.0600000   2.494471e-04  1.671101e-07
     58     75   2   0.50000    -0.1200000   -0.0600000   1.015252e-03  1.866303e-06
     58     80   2   0.50000    -0.1200000    0.0600000   2.494471e-04  1.671101e-07
     58     81   2   0.50000    -0.1200000    0.0600000   2.494471e-04  1.671101e-07
     64     75   2   0.50000     0.0600000   -0.0600000   2.494471e-04  1.671101e-07
     64     80   2   0.50000     0.0600000    0.0600000   6.128906e-05  1.496315e-08
     64     81   2   0.50000     0.0600000    0.0600000   6.128906e-05  1.496315e-08
     57     60   2   0.50000    -0.0600000   -0.1200000   1.015252e-03  1.866303e-06
     57     67   2   0.50000    -0.0600000    0.0600000   2.494471e-04  1.671101e-07
     57     68   2   0.50000    -0.0600000    0.0600000   2.494471e-04  1.671101e-07
     65     60   2   0.50000     0.0600000   -0.1200000   2.494471e-04  1.671101e-07
     65     67   2   0.50000     0.0600000    0.0600000   6.128906e-05  1.496315e-08
     65     68   2   0.50000     0.0600000    0.0600000   6.128906e-05  1.496315e-08
     66     60   2   0.50000     0.0600000   -0.1200000   2.494471e-04  1.671101e-07
     66     67   2   0.50000     0.0600000    0.0600000   6.128906e-05  1.496315e-08
     66     68   2   0.50000     0.0600000    0.0600000   6.128906e-05  1.496315e-08
     58     61   2   0.50000    -0.1200000   -0.1800000   1.015252e-03  1.866303e-06
     58     69   2   0.50000    -0.1200000    0.0600000   2.494471e-04  1.671101e-07
     58     70   2   0.50000    -0.1200000    0.0600000   2.494471e-04  1.671101e-07
     67     61   2   0.50000     0.0600000   -0.1800000   2.494471e-04  1.671101e-07
     67     69   2   0.50000     0.0600000    0.0600000   6.128906e-05  1.496315e-08
     67     70   2   0.50000     0.0600000    0.0600000   6.128906e-05  1.496315e-08
     68     61   2   0.50000     0.0600000   -0.1800000   2.494471e-04  1.671101e-07
     68     69   2   0.50000     0.0600000    0.0600000   6.128906e-05  1.496315e-08
     68     70   2   0.50000     0.0600000    0.0600000   6.128906e-05  1.496315e-08
     59     71   2   0.50000    -0.1200000    0.0600000   2.494471e-04  1.671101e-07
     59     72   2   0.50000    -0.1200000    0.0600000   2.494471e-04  1.671101e-07
     59     73   2   0.50000    -0.1200000    0.0600000   2.494471e-04  1.671101e-07
     69     71   2   0.50000     0.0600000    0.0600000   6.128906e-05  1.496315e-08
     69     72   2   0.50000     0.0600000    0.0600000   6.128906e-05  1.496315e-08
     69     73   2   0.50000     0.0600000    0.0600000   6.128906e-05  1.496315e-08
     70     71   2   0.50000     0.0600000    0.0600000   6.128906e-05  1.496315e-08
     70     72   2   0.50000     0.0600000    0.0600000   6.128906e-05  1.496315e-08
     70     73   2   0.50000     0.0600000    0.0600000   6.128906e-05  1.496315e-08
     57     76   2   0.50000    -0.0600000   -0.1200000   1.015252e-03  1.866303e-06
     57     82   2   0.50000    -0.0600000    0.0600000   2.494471e-04  1.671101e-07
     57     92   2   0.50000    -0.0600000   -0.1200000   1.015252e-03  1.866303e-06
     80     76   2   0.50000     0.0600000   -0.1200000   2.494471e-04  1.671101e-07
     80     82   2   0.50000     0.0600000    0.0600000   6.128906e-05  1.496315e-08
     80     92   2   0.50000     0.0600000   -0.1200000   2.494471e-04  1.671101e-07
     81     76   2   0.50000     0.0600000   -0.1200000   2.494471e-04  1.671101e-07
     81     82   2   0.50000     0.0600000    0.0600000   6.128906e-05  1.496315e-08
     81     92   2   0.50000     0.0600000   -0.1200000   2.494471e-04  1.671101e-07
     74     77   2   0.50000    -0.1200000   -0.1200000   1.015252e-03  1.866303e-06
     74     83   2   0.50000    -0.1200000    0.0600000   2.494471e-04  1.671101e-07
     74     84   2   0.50000    -0.1200000    0.0600000   2.494471e-04  1.671101e-07
     82     77   2   0.50000     0.0600000   -0.1200000   2.494471e-04  1.671101e-07
     82     83   2   0.50000     0.0600000    0.0600000   6.128906e-05  1.496315e-08
     82     84   2   0.50000     0.0600000    0.0600000   6.128906e-05  1.496315e-08
     92     77   2   0.50000    -0.1200000   -0.1200000   1.015252e-03  1.866303e-06
     92     83   2   0.50000    -0.1200000    0.0600000   2.494471e-04  1.671101e-07
     92     84   2   0.50000    -0.1200000    0.0600000   2.494471e-04  1.671101e-07
     74     93   2   0.50000    -0.1200000   -0.0600000   1.015252e-03  1.866303e-06
     74     98   2   0.50000    -0.1200000    0.0600000   2.494471e-04  1.671101e-07
     74     99   2   0.50000    -0.1200000    0.0600000   2.494471e-04  1.671101e-07
     76     93   2   0.50000    -0.1200000   -0.0600000   1.015252e-03  1.866303e-06
     76     98   2   0.50000    -0.1200000    0.0600000   2.494471e-04  1.671101e-07
     76     99   2   0.50000    -0.1200000    0.0600000   2.494471e-04  1.671101e-07
     82     93   2   0.50000     0.0600000   -0.0600000   2.494471e-04  1.671101e-07
     82     98   2   0.50000     0.0600000    0.0600000   6.128906e-05  1.496315e-08
     82     99   2   0.50000     0.0600000    0.0600000   6.128906e-05  1.496315e-08
     75     78   2   0.50000    -0.0600000   -0.1200000   1.015252e-03  1.866303e-06
     75     85   2   0.50000    -0.0600000    0.0600000   2.494471e-04  1.671101e-07
     75     86   2   0.50000    -0.0600000    0.0600000   2.494471e-04  1.671101e-07
     83     78   2   0.50000     0.0600000   -0.1200000   2.494471e-04  1.671101e-07
     83     85   2   0.50000     0.0600000    0.0600000   6.128906e-05  1.496315e-08
     83     86   2   0.50000     0.0600000    0.0600000   6.128906e-05  1.496315e-08
     84     78   2   0.50000     0.0600000   -0.1200000   2.494471e-04  1.671101e-07
     84     85   2   0.50000     0.0600000    0.0600000   6.128906e-05  1.496315e-08
     84     86   2   0.50000     0.0600000    0.0600000   6.128906e-05  1.496315e-08
     76     79   2   0.50000    -0.1200000   -0.1800000   1.015252e-03  1.866303e-06
     76     87   2   0.50000    -0.1200000    0.0600000   2.494471e-04  1.671101e-07
     76     88   2   0.50000    -0.1200000    0.0600000   2.494471e-04  1.671101e-07
     85     79   2   0.50000     0.0600000   -0.1800000   2.494471e-04  1.671101e-07
     85     87   2   0.50000     0.0600000    0.0600000   6.128906e-05  1.496315e-08
     85     88   2   0.50000     0.0600000    0.0600000   6.128906e-05  1.496315e-08
     86     79   2   0.50000     0.0600000   -0.1800000   2.494471e-04  1.671101e-07
     86     87   2   0.50000     0.0600000    0.0600000   6.128906e-05  1.496315e-08
     86     88   2   0.50000     0.0600000    0.0600000   6.128906e-05  1.496315e-08
     77     89   2   0.50000    -0.1200000    0.0600000   2.494471e-04  1.671101e-07
     77     90   2   0.50000    -0.1200000    0.0600000   2.494471e-04  1.671101e-07
     77     91   2   0.50000    -0.1200000    0.0600000   2.494471e-04  1.671101e-07
     87     89   2   0.50000     0.0600000    0.0600000   6.128906e-05  1.496315e-08
     87     90   2   0.50000     0.0600000    0.0600000   6.128906e-05  1.496315e-08
     87     91   2   0.50000     0.0600000    0.0600000   6.128906e-05  1.496315e-08
     88     89   2   0.50000     0.0600000    0.0600000   6.128906e-05  1.496315e-08
     88     90   2   0.50000     0.0600000    0.0600000   6.128906e-05  1.496315e-08
     88     91   2   0.50000     0.0600000    0.0600000   6.128906e-05  1.496315e-08
     75     94   2   0.50000    -0.0600000   -0.1200000   1.015252e-03  1.866303e-06
     75    100   2   0.50000    -0.0600000    0.0600000   2.494471e-04  1.671101e-07
     75    110   2   0.50000    -0.0600000   -0.1200000   1.015252e-03  1.866303e-06
     98     94   2   0.50000     0.0600000   -0.1200000   2.494471e-04  1.671101e-07
     98    100   2   0.50000     0.0600000    0.0600000   6.128906e-05  1.496315e-08
     98    110   2   0.50000     0.0600000   -0.1200000   2.494471e-04  1.671101e-07
     99     94   2   0.50000     0.0600000   -0.1200000   2.494471e-04  1.671101e-07
     99    100   2   0.50000     0.0600000    0.0600000   6.128906e-05  1.496315e-08
     99    110   2   0.50000     0.0600000   -0.1200000   2.494471e-04  1.671101e-07
     92     95   2   0.50000    -0.1200000   -0.1200000   1.015252e-03  1.866303e-06
     92    101   2   0.50000    -0.1200000    0.0600000   2.494471e-04  1.671101e-07
     92    102   2   0.50000    -0.1200000    0.0600000   2.494471e-04  1.671101e-07
    100     95   2   0.50000     0.0600000   -0.1200000   2.494471e-04  1.671101e-07
    100    101   2   0.50000     0.0600000    0.0600000   6.128906e-05  1.496315e-08
    100    102   2   0.50000     0.0600000    0.0600000   6.128906e-05  1.496315e-08
    110     95   2   0.50000    -0.1200000   -0.1200000   1.015252e-03  1.866303e-06
    110    101   2   0.50000    -0.1200000    0.0600000   2.494471e-04  1.671101e-07
    110    102   2   0.50000    -0.1200000    0.0600000   2.494471e-04  1.671101e-07
     92    111   2   0.50000    -0.1200000   -0.0600000   1.015252e-03  1.866303e-06
     92    116   2   0.50000    -0.1200000    0.0600000   2.494471e-04  1.671101e-07
     92    117   2   0.50000    -0.1200000    0.0600000   2.494471e-04  1.671101e-07
     94    111   2   0.50000    -0.1200000   -0.0600000   1.015252e-03  1.866303e-06
     94    116   2   0.50000    -0.1200000    0.0600000   2.494471e-04  1.671101e-07
     94    117   2   0.50000    -0.1200000    0.0600000   2.494471e-04  1.671101e-07
    100    111   2   0.50000     0.0600000   -0.0600000   2.494471e-04  1.671101e-07
    100    116   2   0.50000     0.0600000    0.0600000   6.128906e-05  1.496315e-08
    100    117   2   0.50000     0.0600000    0.0600000   6.128906e-05  1.496315e-08
     93     96   2   0.50000    -0.0600000   -0.1200000   1.015252e-03  1.866303e-06
     93    103   2   0.50000    -0.0600000    0.0600000   2.494471e-04  1.671101e-07
     93    104   2   0.50000    -0.0600000    0.0600000   2.494471e-04  1.671101e-07
    101     96   2   0.50000     0.0600000   -0.1200000   2.494471e-04  1.671101e-07
    101    103   2   0.50000     0.0600000    0.0600000   6.128906e-05  1.496315e-08
    101    104   2   0.50000     0.0600000    0.0600000   6.128906e-05  1.496315e-08
    102     96   2   0.50000     0.0600000   -0.1200000   2.494471e-04  1.671101e-07
    102    103   2   0.50000     0.0600000    0.0600000   6.128906e-05  1.496315e-08
    102    104   2   0.50000     0.0600000    0.0600000   6.128906e-05  1.496315e-08
     94     97   2   0.50000    -0.1200000   -0.1800000   1.015252e-03  1.866303e-06
     94    105   2   0.50000    -0.1200000    0.0600000   2.494471e-04  1.671101e-07
     94    106   2   0.50000    -0.1200000    0.0600000   2.494471e-04  1.671101e-07
    103     97   2   0.50000     0.0600000   -0.1800000   2.494471e-04  1.671101e-07
    103    105   2   0.50000     0.0600000    0.0600000   6.128906e-05  1.496315e-08
    103    106   2   0.50000     0.0600000    0.0600000   6.128906e-05  1.496315e-08
    104     97   2   0.50000     0.0600000   -0.1800000   2.494471e-04  1.671101e-07
    104    105   2   0.50000     0.0600000    0.0600000   6.128906e-05  1.496315e-08
    104    106   2   0.50000     0.0600000    0.0600000   6.128906e-05  1.496315e-08
     95    107   2   0.50000    -0.1200000    0.0600000   2.494471e-04  1.671101e-07
     95    108   2   0.50000    -0.1200000    0.0600000   2.494471e-04  1.671101e-07
     95    109   2   0.50000    -0.1200000    0.0600000   2.494471e-04  1.671101e-07
    105    107   2   0.50000     0.0600000    0.0600000   6.128906e-05  1.496315e-08
    105    108   2   0.50000     0.0600000    0.0600000   6.128906e-05  1.496315e-08
    105    109   2   0.50000     0.0600000    0.0600000   6.128906e-05  1.496315e-08
    106    107   2   0.50000     0.0600000    0.0600000   6.128906e-05  1.496315e-08
    106    108   2   0.50000     0.0600000    0.0600000   6.128906e-05  1.496315e-08
    106    109   2   0.50000     0.0600000    0.0600000   6.128906e-05  1.496315e-08
     93    112   2   0.50000    -0.0600000   -0.1200000   1.015252e-03  1.866303e-06
     93    118   2   0.50000    -0.0600000    0.0600000   2.494471e-04  1.671101e-07
     93    128   2   0.50000    -0.0600000   -0.1200000   1.015252e-03  1.866303e-06
    116    112   2   0.50000     0.0600000   -0.1200000   2.494471e-04  1.671101e-07
    116    118   2   0.50000     0.0600000    0.0600000   6.128906e-05  1.496315e-08
    116    128   2   0.50000     0.0600000   -0.1200000   2.494471e-04  1.671101e-07
    117    112   2   0.50000     0.0600000   -0.1200000   2.494471e-04  1.671101e-07
    117    118   2   0.50000     0.0600000    0.0600000   6.128906e-05  1.496315e-08
    117    128   2   0.50000     0.0600000   -0.1200000   2.494471e-04  1.671101e-07
    110    113   2   0.50000    -0.1200000   -0.1200000   1.015252e-03  1.866303e-06
    110    119   2   0.50000    -0.1200000    0.0600000   2.494471e-04  1.671101e-07
    110    120   2   0.50000    -0.1200000    0.0600000   2.494471e-04  1.671101e-07
    118    113   2   0.50000     0.0600000   -0.1200000   2.494471e-04  1.671101e-07
    118    119   2   0.50000     0.0600000    0.0600000   6.128906e-05  1.496315e-08
    118    120   2   0.50000     0.0600000    0.0600000   6.128906e-05  1.496315e-08
    128    113   2   0.50000    -0.1200000   -0.1200000   1.015252e-03  1.866303e-06
    128    119   2   0.50000    -0.1200000    0.0600000   2.494471e-04  1.671101e-07
    128    120   2   0.50000    -0.1200000    0.0600000   2.494471e-04  1.671101e-07
    110    129   2   0.50000    -0.1200000   -0.0600000   1.015252e-03  1.866303e-06
    110    134   2   0.50000    -0.1200000    0.0600000   2.494471e-04  1.671101e-07
    110    135   2   0.50000    -0.1200000    0.0600000   2.494471e-04  1.671101e-07
    112    129   2   0.50000    -0.1200000   -0.0600000   1.015252e-03  1.866303e-06
    112    134   2   0.50000    -0.1200000    0.0600000   2.494471e-04  1.671101e-07
    112    135   2   0.50000    -0.1200000    0.0600000   2.494471e-04  1.671101e-07
    118    129   2   0.50000     0.0600000   -0.0600000   2.494471e-04  1.671101e-07
    118    134   2   0.50000     0.0600000    0.0600000   6.128906e-05  1.496315e-08
    118    135   2   0.50000     0.0600000    0.0600000   6.128906e-05  1.496315e-08
    111    114   2   0.50000    -0.0600000   -0.1200000   1.015252e-03  1.866303e-06
    111    121   2   0.50000    -0.0600000    0.0600000   2.494471e-04  1.671101e-07
    111    122   2   0.50000    -0.0600000    0.0600000   2.494471e-04  1.671101e-07
    119    114   2   0.50000     0.0600000   -0.1200000   2.494471e-04  1.671101e-07
    119    121   2   0.50000     0.0600000    0.0600000   6.128906e-05  1.496315e-08
    119    122   2   0.50000     0.0600000    0.0600000   6.128906e-05  1.496315e-08
    120    114   2   0.50000     0.0600000   -0.1200000   2.494471e-04  1.671101e-07
    120    121   2   0.50000     0.0600000    0.0600000   6.128906e-05  1.496315e-08
    120    122   2   0.50000     0.0600000    0.0600000   6.128906e-05  1.496315e-08
    112    115   2   0.50000    -0.1200000   -0.1800000   1.015252e-03  1.866303e-06
    112    123   2   0.50000    -0.1200000    0.0600000   2.494471e-04  1.671101e-07
    112    124   2   0.50000    -0.1200000    0.0600000   2.494471e-04  1.671101e-07
    121    115   2   0.50000     0.0600000   -0.1800000   2.494471e-04  1.671101e-07
    121    123   2   0.50000     0.0600000    0.0600000   6.128906e-05  1.496315e-08
    121    124   2   0.50000     0.0600000    0.0600000   6.128906e-05  1.496315e-08
    122    115   2   0.50000     0.0600000   -0.1800000   2.494471e-04  1.671101e-07
    122    123   2   0.50000     0.0600000    0.0600000   6.128906e-05  1.496315e-08
    122    124   2   0.50000     0.0600000    0.0600000   6.128906e-05  1.496315e-08
    113    125   2   0.50000    -0.1200000    0.0600000   2.494471e-04  1.671101e-07
    113    126   2   0.50000    -0.1200000    0.0600000   2.494471e-04  1.671101e-07
    113    127   2   0.50000    -0.1200000    0.0600000   2.494471e-04  1.671101e-07
    123    125   2   0.50000     0.0600000    0.0600000   6.128906e-05  1.496315e-08
    123    126   2   0.50000     0.0600000    0.0600000   6.128906e-05  1.496315e-08
    123    127   2   0.50000     0.0600000    0.0600000   6.128906e-05  1.496315e-08
    124    125   2   0.50000     0.0600000    0.0600000   6.128906e-05  1.496315e-08
    124    126   2   0.50000     0.0600000    0.0600000   6.128906e-05  1.496315e-08
    124    127   2   0.50000     0.0600000    0.0600000   6.128906e-05  1.496315e-08
    111    130   2   0.50000    -0.0600000   -0.1200000   1.015252e-03  1.866303e-06
    111    136   2   0.50000    -0.0600000    0.0600000   2.494471e-04  1.671101e-07
    111    146   2   0.50000    -0.0600000   -0.1200000   1.015252e-03  1.866303e-06
    134    130   2   0.50000     0.0600000   -0.1200000   2.494471e-04  1.671101e-07
    134    136   2   0.50000     0.0600000    0.0600000   6.128906e-05  1.496315e-08
    134    146   2   0.50000     0.0600000   -0.1200000   2.494471e-04  1.671101e-07
    135    130   2   0.50000     0.0600000   -0.1200000   2.494471e-04  1.671101e-07
    135    136   2   0.50000     0.0600000    0.0600000   6.128906e-05  1.496315e-08
    135    146   2   0.50000     0.0600000   -0.1200000   2.494471e-04  1.671101e-07
    128    131   2   0.50000    -0.1200000   -0.1200000   1.015252e-03  1.866303e-06
    128    137   2   0.50000    -0.1200000    0.0600000   2.494471e-04  1.671101e-07
    128    138   2   0.50000    -0.1200000    0.0600000   2.494471e-04  1.671101e-07
    136    131   2   0.50000     0.0600000   -0.1200000   2.494471e-04  1.671101e-07
    136    137   2   0.50000     0.0600000    0.0600000   6.128906e-05  1.496315e-08
    136    138   2   0.50000     0.0600000    0.0600000   6.128906e-05  1.496315e-08
    146    131   2   0.50000    -0.1200000   -0.1200000   1.015252e-03  1.866303e-06
    146    137   2   0.50000    -0.1200000    0.0600000   2.494471e-04  1.671101e-07
    146    138   2   0.50000    -0.1200000    0.0600000   2.494471e-04  1.671101e-07
    128    147   2   0.50000    -0.1200000   -0.0600000   1.015252e-03  1.866303e-06
    128    152   2   0.50000    -0.1200000    0.0600000   2.494471e-04  1.671101e-07
    128    153   2   0.50000    -0.1200000    0.0600000   2.494471e-04  1.671101e-07
    130    147   2   0.50000    -0.1200000   -0.0600000   1.015252e-03  1.866303e-06
    130    152   2   0.50000    -0.1200000    0.0600000   2.494471e-04  1.671101e-07
    130    153   2   0.50000    -0.1200000    0.0600000   2.494471e-04  1.671101e-07
    136    147   2   0.50000     0.0600000   -0.0600000   2.494471e-04  1.671101e-07
    136    152   2   0.50000     0.0600000    0.0600000   6.128906e-05  1.496315e-08
    136    153   2   0.50000     0.0600000    0.0600000   6.128906e-05  1.496315e-08
    129    132   2   0.50000    -0.0600000   -0.1200000   1.015252e-03  1.866303e-06
    129    139   2   0.50000    -0.0600000    0.0600000   2.494471e-04  1.671101e-07
    129    140   2   0.50000    -0.0600000    0.0600000   2.494471e-04  1.671101e-07
    137    132   2   0.50000     0.0600000   -0.1200000   2.494471e-04  1.671101e-07
    137    139   2   0.50000     0.0600000    0.0600000   6.128906e-05  1.496315e-08
    137    140   2   0.50000     0.0600000    0.0600000   6.128906e-05  1.496315e-08
    138    132   2   0.50000     0.0600000   -0.1200000   2.494471e-04  1.671101e-07
    138    139   2   0.50000     0.0600000    0.0600000   6.128906e-05  1.496315e-08
    138    140   2   0.50000     0.0600000    0.0600000   6.128906e-05  1.496315e-08
    130    133   2   0.50000    -0.1200000   -0.1800000   1.015252e-03  1.866303e-06
    130    141   2   0.50000    -0.1200000    0.0600000   2.494471e-04  1.671101e-07
    130    142   2   0.50000    -0.1200000    0.0600000   2.494471e-04  1.671101e-07
    139    133   2   0.50000     0.0600000   -0.1800000   2.494471e-04  1.671101e-07
    139    141   2   0.50000     0.0600000    0.0600000   6.128906e-05  1.496315e-08
    139    142   2   0.50000     0.0600000    0.0600000   6.128906e-05  1.496315e-08
    140    133   2   0.50000     0.0600000   -0.1800000   2.494471e-04  1.671101e-07
    140    141   2   0.50000     0.0600000    0.0600000   6.128906e-05  1.496315e-08
    140    142   2   0.50000     0.0600000    0.0600000   6.128906e-05  1.496315e-08
    131    143   2   0.50000    -0.1200000    0.0600000   2.494471e-04  1.671101e-07
    131    144   2   0.50000    -0.1200000    0.0600000   2.494471e-04  1.671101e-07
    131    145   2   0.50000    -0.1200000    0.0600000   2.494471e-04  1.671101e-07
    141    143   2   0.50000     0.0600000    0.0600000   6.128906e-05  1.496315e-08
    141    144   2   0.50000     0.0600000    0.0600000   6.128906e-05  1.496315e-08
    141    145   2   0.50000     0.0600000    0.0600000   6.128906e-05  1.496315e-08
    142    143   2   0.50000     0.0600000    0.0600000   6.128906e-05  1.496315e-08
    142    144   2   0.50000     0.0600000    0.0600000   6.128906e-05  1.496315e-08
    142    145   2   0.50000     0.0600000    0.0600000   6.128906e-05  1.496315e-08
    129    148   2   0.50000    -0.0600000   -0.1200000   1.015252e-03  1.866303e-06
    129    154   2   0.50000    -0.0600000    0.0600000   2.494471e-04  1.671101e-07
    129    164   2   0.50000    -0.0600000   -0.1200000   1.015252e-03  1.866303e-06
    152    148   2   0.50000     0.0600000   -0.1200000   2.494471e-04  1.671101e-07
    152    154   2   0.50000     0.0600000    0.0600000   6.128906e-05  1.496315e-08
    152    164   2   0.50000     0.0600000   -0.1200000   2.494471e-04  1.671101e-07
    153    148   2   0.50000     0.0600000   -0.1200000   2.494471e-04  1.671101e-07
    153    154   2   0.50000     0.0600000    0.0600000   6.128906e-05  1.496315e-08
    153    164   2   0.50000     0.0600000   -0.1200000   2.494471e-04  1.671101e-07
    146    149   2   0.50000    -0.1200000   -0.1200000   1.015252e-03  1.866303e-06
    146    155   2   0.50000    -0.1200000    0.0600000   2.494471e-04  1.671101e-07
    146    156   2   0.50000    -0.1200000    0.0600000   2.494471e-04  1.671101e-07
    154    149   2   0.50000     0.0600000   -0.1200000   2.494471e-04  1.671101e-07
    154    155   2   0.50000     0.0600000    0.0600000   6.128906e-05  1.496315e-08
    154    156   2   0.50000     0.0600000    0.0600000   6.128906e-05  1.496315e-08
    164    149   2   0.50000    -0.1200000   -0.1200000   1.015252e-03  1.866303e-06
    164    155   2   0.50000    -0.1200000    0.0600000   2.494471e-04  1.671101e-07
    164    156   2   0.50000    -0.1200000    0.0600000   2.494471e-04  1.671101e-07
    146    165   2   0.50000    -0.1200000   -0.0600000   1.015252e-03  1.866303e-06
    146    170   2   0.50000    -0.1200000    0.0600000   2.494471e-04  1.671101e-07
    146    171   2   0.50000    -0.1200000    0.0600000   2.494471e-04  1.671101e-07
    148    165   2   0.50000    -0.1200000   -0.0600000   1.015252e-03  1.866303e-06
    148    170   2   0.50000    -0.1200000    0.0600000   2.494471e-04  1.671101e-07
    148    171   2   0.50000    -0.1200000    0.0600000   2.494471e-04  1.671101e-07
    154    165   2   0.50000     0.0600000   -0.0600000   2.494471e-04  1.671101e-07
    154    170   2   0.50000     0.0600000    0.0600000   6.128906e-05  1.496315e-08
    154    171   2   0.50000     0.0600000    0.0600000   6.128906e-05  1.496315e-08
    147    150   2   0.50000    -0.0600000   -0.1200000   1.015252e-03  1.866303e-06
    147    157   2   0.50000    -0.0600000    0.0600000   2.494471e-04  1.671101e-07
    147    158   2   0.50000    -0.0600000    0.0600000   2.494471e-04  1.671101e-07
    155    150   2   0.50000     0.0600000   -0.1200000   2.494471e-04  1.671101e-07
    155    157   2   0.50000     0.0600000    0.0600000   6.128906e-05  1.496315e-08
    155    158   2   0.50000     0.0600000    0.0600000   6.128906e-05  1.496315e-08
    156    150   2   0.50000     0.0600000   -0.1200000   2.494471e-04  1.671101e-07
    156    157   2   0.50000     0.0600000    0.0600000   6.128906e-05  1.496315e-08
    156    158   2   0.50000     0.0600000    0.0600000   6.128906e-05  1.496315e-08
    148    151   2   0.50000    -0.1200000   -0.1800000   1.015252e-03  1.866303e-06
    148    159   2   0.50000    -0.1200000    0.0600000   2.494471e-04  1.671101e-07
    148    160   2   0.50000    -0.1200000    0.0600000   2.494471e-04  1.671101e-07
    157    151   2   0.50000     0.0600000   -0.1800000   2.494471e-04  1.671101e-07
    157    159   2   0.50000     0.0600000    0.0600000   6.128906e-05  1.496315e-08
    157    160   2   0.50000     0.0600000    0.0600000   6.128906e-05  1.496315e-08
    158    151   2   0.50000     0.0600000   -0.1800000   2.494471e-04  1.671101e-07
    158    159   2   0.50000     0.0600000    0.0600000   6.128906e-05  1.496315e-08
    158    160   2   0.50000     0.0600000    0.0600000   6.128906e-05  1.496315e-08
    149    161   2   0.50000    -0.1200000    0.0600000   2.494471e-04  1.671101e-07
    149    162   2   0.50000    -0.1200000    0.0600000   2.494471e-04  1.671101e-07
    149    163   2   0.50000    -0.1200000    0.0600000   2.494471e-04  1.671101e-07
    159    161   2   0.50000     0.0600000    0.0600000   6.128906e-05  1.496315e-08
    159    162   2   0.50000     0.0600000    0.0600000   6.128906e-05  1.496315e-08
    159    163   2   0.50000     0.0600000    0.0600000   6.128906e-05  1.496315e-08
    160    161   2   0.50000     0.0600000    0.0600000   6.128906e-05  1.496315e-08
    160    162   2   0.50000     0.0600000    0.0600000   6.128906e-05  1.496315e-08
    160    163   2   0.50000     0.0600000    0.0600000   6.128906e-05  1.496315e-08
    147    166   2   0.50000    -0.0600000   -0.1200000   1.015252e-03  1.866303e-06
    147    172   2   0.50000    -0.0600000    0.0600000   2.494471e-04  1.671101e-07
    147    182   2   0.50000    -0.0600000   -0.1200000   1.015252e-03  1.866303e-06
    170    166   2   0.50000     0.0600000   -0.1200000   2.494471e-04  1.671101e-07
    170    172   2   0.50000     0.0600000    0.0600000   6.128906e-05  1.496315e-08
    170    182   2   0.50000     0.0600000   -0.1200000   2.494471e-04  1.671101e-07
    171    166   2   0.50000     0.0600000   -0.1200000   2.494471e-04  1.671101e-07
    171    172   2   0.50000     0.0600000    0.0600000   6.128906e-05  1.496315e-08
    171    182   2   0.50000     0.0600000   -0.1200000   2.494471e-04  1.671101e-07
    164    167   2   0.50000    -0.1200000   -0.1200000   1.015252e-03  1.866303e-06
    164    173   2   0.50000    -0.1200000    0.0600000   2.494471e-04  1.671101e-07
    164    174   2   0.50000    -0.1200000    0.0600000   2.494471e-04  1.671101e-07
    172    167   2   0.50000     0.0600000   -0.1200000   2.494471e-04  1.671101e-07
    172    173   2   0.50000     0.0600000    0.0600000   6.128906e-05  1.496315e-08
    172    174   2   0.50000     0.0600000    0.0600000   6.128906e-05  1.496315e-08
    182    167   2   0.50000    -0.1200000   -0.1200000   1.015252e-03  1.866303e-06
    182    173   2   0.50000    -0.1200000    0.0600000   2.494471e-04  1.671101e-07
    182    174   2   0.50000    -0.1200000    0.0600000   2.494471e-04  1.671101e-07
    164    183   2   0.50000    -0.1200000   -0.0600000   1.015252e-03  1.866303e-06
    164    188   2   0.50000    -0.1200000    0.0600000   2.494471e-04  1.671101e-07
    164    189   2   0.50000    -0.1200000    0.0600000   2.494471e-04  1.671101e-07
    166    183   2   0.50000    -0.1200000   -0.0600000   1.015252e-03  1.866303e-06
    166    188   2   0.50000    -0.1200000    0.0600000   2.494471e-04  1.671101e-07
    166    189   2   0.50000    -0.1200000    0.0600000   2.494471e-04  1.671101e-07
    172    183   2   0.50000     0.0600000   -0.0600000   2.494471e-04  1.671101e-07
    172    188   2   0.50000     0.0600000    0.0600000   6.128906e-05  1.496315e-08
    172    189   2   0.50000     0.0600000    0.0600000   6.128906e-05  1.496315e-08
    165    168   2   0.50000    -0.0600000   -0.1200000   1.015252e-03  1.866303e-06
    165    175   2   0.50000    -0.0600000    0.0600000   2.494471e-04  1.671101e-07
    165    176   2   0.50000    -0.0600000    0.0600000   2.494471e-04  1.671101e-07
    173    168   2   0.50000     0.0600000   -0.1200000   2.494471e-04  1.671101e-07
    173    175   2   0.50000     0.0600000    0.0600000   6.128906e-05  1.496315e-08
    173    176   2   0.50000     0.0600000    0.0600000   6.128906e-05  1.496315e-08
    174    168   2   0.50000     0.0600000   -0.1200000   2.494471e-04  1.671101e-07
    174    175   2   0.50000     0.0600000    0.0600000   6.128906e-05  1.496315e-08
    174    176   2   0.50000     0.0600000    0.0600000   6.128906e-05  1.496315e-08
    166    169   2   0.50000    -0.1200000   -0.1800000   1.015252e-03  1.866303e-06
    166    177   2   0.50000    -0.1200000    0.0600000   2.494471e-04  1.671101e-07
    166    178   2   0.50000    -0.1200000    0.0600000   2.494471e-04  1.671101e-07
    175    169   2   0.50000     0.0600000   -0.1800000   2.494471e-04  1.671101e-07
    175    177   2   0.50000     0.0600000    0.0600000   6.128906e-05  1.496315e-08
    175    178   2   0.50000     0.0600000    0.0600000   6.128906e-05  1.496315e-08
    176    169   2   0.50000     0.0600000   -0.1800000   2.494471e-04  1.671101e-07
    176    177   2   0.50000     0.0600000    0.0600000   6.128906e-05  1.496315e-08
    176    178   2   0.50000     0.0600000    0.0600000   6.128906e-05  1.496315e-08
    167    179   2   0.50000    -0.1200000    0.0600000   2.494471e-04  1.671101e-07
    167    180   2   0.50000    -0.1200000    0.0600000   2.494471e-04  1.671101e-07
    167    181   2   0.50000    -0.1200000    0.0600000   2.494471e-04  1.671101e-07
    177    179   2   0.50000     0.0600000    0.0600000   6.128906e-05  1.496315e-08
    177    180   2   0.50000     0.0600000    0.0600000   6.128906e-05  1.496315e-08
    177    181   2   0.50000     0.0600000    0.0600000   6.128906e-05  1.496315e-08
    178    179   2   0.50000     0.0600000    0.0600000   6.128906e-05  1.496315e-08
    178    180   2   0.50000     0.0600000    0.0600000   6.128906e-05  1.496315e-08
    178    181   2   0.50000     0.0600000    0.0600000   6.128906e-05  1.496315e-08
    165    184   2   0.50000    -0.0600000   -0.1200000   1.015252e-03  1.866303e-06
    165    190   2   0.50000    -0.0600000    0.0600000   2.494471e-04  1.671101e-07
    165    200   2   0.50000    -0.0600000   -0.1200000   1.015252e-03  1.866303e-06
    188    184   2   0.50000     0.0600000   -0.1200000   2.494471e-04  1.671101e-07
    188    190   2   0.50000     0.0600000    0.0600000   6.128906e-05  1.496315e-08
    188    200   2   0.50000     0.0600000   -0.1200000   2.494471e-04  1.671101e-07
    189    184   2   0.50000     0.0600000   -0.1200000   2.494471e-04  1.671101e-07
    189    190   2   0.50000     0.0600000    0.0600000   6.128906e-05  1.496315e-08
    189    200   2   0.50000     0.0600000   -0.1200000   2.494471e-04  1.671101e-07
    182    185   2   0.50000    -0.1200000   -0.1200000   1.015252e-03  1.866303e-06
    182    191   2   0.50000    -0.1200000    0.0600000   2.494471e-04  1.671101e-07
    182    192   2   0.50000    -0.1200000    0.0600000   2.494471e-04  1.671101e-07
    190    185   2   0.50000     0.0600000   -0.1200000   2.494471e-04  1.671101e-07
    190    191   2   0.50000     0.0600000    0.0600000   6.128906e-05  1.496315e-08
    190    192   2   0.50000     0.0600000    0.0600000   6.128906e-05  1.496315e-08
    200    185   2   0.50000    -0.1200000   -0.1200000   1.015252e-03  1.866303e-06
    200    191   2   0.50000    -0.1200000    0.0600000   2.494471e-04  1.671101e-07
    200    192   2   0.50000    -0.1200000    0.0600000   2.494471e-04  1.671101e-07
    182    201   2   0.50000    -0.1200000   -0.0600000   1.015252e-03  1.866303e-06
    182    206   2   0.50000    -0.1200000    0.0600000   2.494471e-04  1.671101e-07
    182    207   2   0.50000    -0.1200000    0.0600000   2.494471e-04  1.671101e-07
    184    201   2   0.50000    -0.1200000   -0.0600000   1.015252e-03  1.866303e-06
    184    206   2   0.50000    -0.1200000    0.0600000   2.494471e-04  1.671101e-07
    184    207   2   0.50000    -0.1200000    0.0600000   2.494471e-04  1.671101e-07
    190    201   2   0.50000     0.0600000   -0.0600000   2.494471e-04  1.671101e-07
    190    206   2   0.50000     0.0600000    0.0600000   6.128906e-05  1.496315e-08
    190    207   2   0.50000     0.0600000    0.0600000   6.128906e-05  1.496315e-08
    183    186   2   0.50000    -0.0600000   -0.1200000   1.015252e-03  1.866303e-06
    183    193   2   0.50000    -0.0600000    0.0600000   2.494471e-04  1.671101e-07
    183    194   2   0.50000    -0.0600000    0.0600000   2.494471e-04  1.671101e-07
    191    186   2   0.50000     0.0600000   -0.1200000   2.494471e-04  1.671101e-07
    191    193   2   0.50000     0.0600000    0.0600000   6.128906e-05  1.496315e-08
    191    194   2   0.50000     0.0600000    0.0600000   6.128906e-05  1.496315e-08
    192    186   2   0.50000     0.0600000   -0.1200000   2.494471e-04  1.671101e-07
    192    193   2   0.50000     0.0600000    0.0600000   6.128906e-05  1.496315e-08
    192    194   2   0.50000     0.0600000    0.0600000   6.128906e-05  1.496315e-08
    184    187   2   0.50000    -0.1200000   -0.1800000   1.015252e-03  1.866303e-06
    184    195   2   0.50000    -0.1200000    0.0600000   2.494471e-04  1.671101e-07
    184    196   2   0.50000    -0.1200000    0.0600000   2.494471e-04  1.671101e-07
    193    187   2   0.50000     0.0600000   -0.1800000   2.494471e-04  1.671101e-07
    193    195   2   0.50000     0.0600000    0.0600000   6.128906e-05  1.496315e-08
    193    196   2   0.50000     0.0600000    0.0600000   6.128906e-05  1.496315e-08
    194    187   2   0.50000     0.0600000   -0.1800000   2.494471e-04  1.671101e-07
    194    195   2   0.50000     0.0600000    0.0600000   6.128906e-05  1.496315e-08
    194    196   2   0.50000     0.0600000    0.0600000   6.128906e-05  1.496315e-08
    185    197   2   0.50000    -0.1200000    0.0600000   2.494471e-04  1.671101e-07
    185    198   2   0.50000    -0.1200000    0.0600000   2.494471e-04  1.671101e-07
    185    199   2   0.50000    -0.1200000    0.0600000   2.494471e-04  1.671101e-07
    195    197   2   0.50000     0.0600000    0.0600000   6.128906e-05  1.496315e-08
    195    198   2   0.50000     0.0600000    0.0600000   6.128906e-05  1.496315e-08
    195    199   2   0.50000     0.0600000    0.0600000   6.128906e-05  1.496315e-08
    196    197   2   0.50000     0.0600000    0.0600000   6.128906e-05  1.496315e-08
    196    198   2   0.50000     0.0600000    0.0600000   6.128906e-05  1.496315e-08
    196    199   2   0.50000     0.0600000    0.0600000   6.128906e-05  1.496315e-08
    183    202   2   0.50000    -0.0600000   -0.1200000   1.015252e-03  1.866303e-06
    183    208   2   0.50000    -0.0600000    0.0600000   2.494471e-04  1.671101e-07
    183    218   2   0.50000    -0.0600000   -0.1200000   1.015252e-03  1.866303e-06
    206    202   2   0.50000     0.0600000   -0.1200000   2.494471e-04  1.671101e-07
    206    208   2   0.50000     0.0600000    0.0600000   6.128906e-05  1.496315e-08
    206    218   2   0.50000     0.0600000   -0.1200000   2.494471e-04  1.671101e-07
    207    202   2   0.50000     0.0600000   -0.1200000   2.494471e-04  1.671101e-07
    207    208   2   0.50000     0.0600000    0.0600000   6.128906e-05  1.496315e-08
    207    218   2   0.50000     0.0600000   -0.1200000   2.494471e-04  1.671101e-07
    200    203   2   0.50000    -0.1200000   -0.1200000   1.015252e-03  1.866303e-06
    200    209   2   0.50000    -0.1200000    0.0600000   2.494471e-04  1.671101e-07
    200    210   2   0.50000    -0.1200000    0.0600000   2.494471e-04  1.671101e-07
    208    203   2   0.50000     0.0600000   -0.1200000   2.494471e-04  1.671101e-07
    208    209   2   0.50000     0.0600000    0.0600000   6.128906e-05  1.496315e-08
    208    210   2   0.50000     0.0600000    0.0600000   6.128906e-05  1.496315e-08
    218    203   2   0.50000    -0.1200000   -0.1200000   1.015252e-03  1.866303e-06
    218    209   2   0.50000    -0.1200000    0.0600000   2.494471e-04  1.671101e-07
    218    210   2   0.50000    -0.1200000    0.0600000   2.494471e-04  1.671101e-07
    200    219   2   0.50000    -0.1200000   -0.0600000   1.015252e-03  1.866303e-06
    200    224   2   0.50000    -0.1200000    0.0600000   2.494471e-04  1.671101e-07
    200    225   2   0.50000    -0.1200000    0.0600000   2.494471e-04  1.671101e-07
    202    219   2   0.50000    -0.1200000   -0.0600000   1.015252e-03  1.866303e-06
    202    224   2   0.50000    -0.1200000    0.0600000   2.494471e-04  1.671101e-07
    202    225   2   0.50000    -0.1200000    0.0600000   2.494471e-04  1.671101e-07
    208    219   2   0.50000     0.0600000   -0.0600000   2.494471e-04  1.671101e-07
    208    224   2   0.50000     0.0600000    0.0600000   6.128906e-05  1.496315e-08
    208    225   2   0.50000     0.0600000    0.0600000   6.128906e-05  1.496315e-08
    201    204   2   0.50000    -0.0600000   -0.1200000   1.015252e-03  1.866303e-06
    201    211   2   0.50000    -0.0600000    0.0600000   2.494471e-04  1.671101e-07
    201    212   2   0.50000    -0.0600000    0.0600000   2.494471e-04  1.671101e-07
    209    204   2   0.50000     0.0600000   -0.1200000   2.494471e-04  1.671101e-07
    209    211   2   0.50000     0.0600000    0.0600000   6.128906e-05  1.496315e-08
    209    212   2   0.50000     0.0600000    0.0600000   6.128906e-05  1.496315e-08
    210    204   2   0.50000     0.0600000   -0.1200000   2.494471e-04  1.671101e-07
    210    211   2   0.50000     0.0600000    0.0600000   6.128906e-05  1.496315e-08
    210    212   2   0.50000     0.0600000    0.0600000   6.128906e-05  1.496315e-08
    202    205   2   0.50000    -0.1200000   -0.1800000   1.015252e-03  1.866303e-06
    202    213   2   0.50000    -0.1200000    0.0600000   2.494471e-04  1.671101e-07
    202    214   2   0.50000    -0.1200000    0.0600000   2.494471e-04  1.671101e-07
    211    205   2   0.50000     0.0600000   -0.1800000   2.494471e-04  1.671101e-07
    211    213   2   0.50000     0.0600000    0.0600000   6.128906e-05  1.496315e-08
    211    214   2   0.50000     0.0600000    0.0600000   6.128906e-05  1.496315e-08
    212    205   2   0.50000     0.0600000   -0.1800000   2.494471e-04  1.671101e-07
    212    213   2   0.50000     0.0600000    0.0600000   6.128906e-05  1.496315e-08
    212    214   2   0.50000     0.0600000    0.0600000   6.128906e-05  1.496315e-08
    203    215   2   0.50000    -0.1200000    0.0600000   2.494471e-04  1.671101e-07
    203    216   2   0.50000    -0.1200000    0.0600000   2.494471e-04  1.671101e-07
    203    217   2   0.50000    -0.1200000    0.0600000   2.494471e-04  1.671101e-07
    213    215   2   0.50000     0.0600000    0.0600000   6.128906e-05  1.496315e-08
    213    216   2   0.50000     0.0600000    0.0600000   6.128906e-05  1.496315e-08
    213    217   2   0.50000     0.0600000    0.0600000   6.128906e-05  1.496315e-08
    214    215   2   0.50000     0.0600000    0.0600000   6.128906e-05  1.496315e-08
    214    216   2   0.50000     0.0600000    0.0600000   6.128906e-05  1.496315e-08
    214    217   2   0.50000     0.0600000    0.0600000   6.128906e-05  1.496315e-08
    201    220   2   0.50000    -0.0600000   -0.1200000   1.015252e-03  1.866303e-06
    201    226   2   0.50000    -0.0600000    0.0600000   2.494471e-04  1.671101e-07
    201    236   2   0.50000    -0.0600000   -0.1200000   1.015252e-03  1.866303e-06
    224    220   2   0.50000     0.0600000   -0.1200000   2.494471e-04  1.671101e-07
    224    226   2   0.50000     0.0600000    0.0600000   6.128906e-05  1.496315e-08
    224    236   2   0.50000     0.0600000   -0.1200000   2.494471e-04  1.671101e-07
    225    220   2   0.50000     0.0600000   -0.1200000   2.494471e-04  1.671101e-07
    225    226   2   0.50000     0.0600000    0.0600000   6.128906e-05  1.496315e-08
    225    236   2   0.50000     0.0600000   -0.1200000   2.494471e-04  1.671101e-07
    218    221   2   0.50000    -0.1200000   -0.1200000   1.015252e-03  1.866303e-06
    218    227   2   0.50000    -0.1200000    0.0600000   2.494471e-04  1.671101e-07
    218    228   2   0.50000    -0.1200000    0.0600000   2.494471e-04  1.671101e-07
    226    221   2   0.50000     0.0600000   -0.1200000   2.494471e-04  1.671101e-07
    226    227   2   0.50000     0.0600000    0.0600000   6.128906e-05  1.496315e-08
    226    228   2   0.50000     0.0600000    0.0600000   6.128906e-05  1.496315e-08
    236    221   2   0.50000    -0.1200000   -0.1200000   1.015252e-03  1.866303e-06
    236    227   2   0.50000    -0.1200000    0.0600000   2.494471e-04  1.671101e-07
    236    228   2   0.50000    -0.1200000    0.0600000   2.494471e-04  1.671101e-07
    218    237   2   0.50000    -0.1200000   -0.0600000   1.015252e-03  1.866303e-06
    218    242   2   0.50000    -0.1200000    0.0600000   2.494471e-04  1.671101e-07
    218    243   2   0.50000    -0.1200000    0.0600000   2.494471e-04  1.671101e-07
    220    237   2   0.50000    -0.1200000   -0.0600000   1.015252e-03  1.866303e-06
    220    242   2   0.50000    -0.1200000    0.0600000   2.494471e-04  1.671101e-07
    220    243   2   0.50000    -0.1200000    0.0600000   2.494471e-04  1.671101e-07
    226    237   2   0.50000     0.0600000   -0.0600000   2.494471e-04  1.671101e-07
    226    242   2   0.50000     0.0600000    0.0600000   6.128906e-05  1.496315e-08
    226    243   2   0.50000     0.0600000    0.0600000   6.128906e-05  1.496315e-08
    219    222   2   0.50000    -0.0600000   -0.1200000   1.015252e-03  1.866303e-06
    219    229   2   0.50000    -0.0600000    0.0600000   2.494471e-04  1.671101e-07
    219    230   2   0.50000    -0.0600000    0.0600000   2.494471e-04  1.671101e-07
    227    222   2   0.50000     0.0600000   -0.1200000   2.494471e-04  1.671101e-07
    227    229   2   0.50000     0.0600000    0.0600000   6.128906e-05  1.496315e-08
    227    230   2   0.50000     0.0600000    0.0600000   6.128906e-05  1.496315e-08
    228    222   2   0.50000     0.0600000   -0.1200000   2.494471e-04  1.671101e-07
    228    229   2   0.50000     0.0600000    0.0600000   6.128906e-05  1.496315e-08
    228    230   2   0.50000     0.0600000    0.0600000   6.128906e-05  1.496315e-08
    220    223   2   0.50000    -0.1200000   -0.1800000   1.015252e-03  1.866303e-06
    220    231   2   0.50000    -0.1200000    0.0600000   2.494471e-04  1.671101e-07
    220    232   2   0.50000    -0.1200000    0.0600000   2.494471e-04  1.671101e-07
    229    223   2   0.50000     0.0600000   -0.1800000   2.494471e-04  1.671101e-07
    229    231   2   0.50000     0.0600000    0.0600000   6.128906e-05  1.496315e-08
    229    232   2   0.50000     0.0600000    0.0600000   6.128906e-05  1.496315e-08
    230    223   2   0.50000     0.0600000   -0.1800000   2.494471e-04  1.671101e-07
    230    231   2   0.50000     0.0600000    0.0600000   6.128906e-05  1.496315e-08
    230    232   2   0.50000     0.0600000    0.0600000   6.128906e-05  1.496315e-08
    221    233   2   0.50000    -0.1200000    0.0600000   2.494471e-04  1.671101e-07
    221    234   2   0.50000    -0.1200000    0.0600000   2.494471e-04  1.671101e-07
    221    235   2   0.50000    -0.1200000    0.0600000   2.494471e-04  1.671101e-07
    231    233   2   0.50000     0.0600000    0.0600000   6.128906e-05  1.496315e-08
    231    234   2   0.50000     0.0600000    0.0600000   6.128906e-05  1.496315e-08
    231    235   2   0.50000     0.0600000    0.0600000   6.128906e-05  1.496315e-08
    232    233   2   0.50000     0.0600000    0.0600000   6.128906e-05  1.496315e-08
    232    234   2   0.50000     0.0600000    0.0600000   6.128906e-05  1.496315e-08
    232    235   2   0.50000     0.0600000    0.0600000   6.128906e-05  1.496315e-08
    219    238   2   0.50000    -0.0600000   -0.1200000   1.015252e-03  1.866303e-06
    219    244   2   0.50000    -0.0600000    0.0600000   2.494471e-04  1.671101e-07
    219    254   2   0.50000    -0.0600000   -0.1200000   1.015252e-03  1.866303e-06
    242    238   2   0.50000     0.0600000   -0.1200000   2.494471e-04  1.671101e-07
    242    244   2   0.50000     0.0600000    0.0600000   6.128906e-05  1.496315e-08
    242    254   2   0.50000     0.0600000   -0.1200000   2.494471e-04  1.671101e-07
    243    238   2   0.50000     0.0600000   -0.1200000   2.494471e-04  1.671101e-07
    243    244   2   0.50000     0.0600000    0.0600000   6.128906e-05  1.496315e-08
    243    254   2   0.50000     0.0600000   -0.1200000   2.494471e-04  1.671101e-07
    236    239   2   0.50000    -0.1200000   -0.1200000   1.015252e-03  1.866303e-06
    236    245   2   0.50000    -0.1200000    0.0600000   2.494471e-04  1.671101e-07
    236    246   2   0.50000    -0.1200000    0.0600000   2.494471e-04  1.671101e-07
    244    239   2   0.50000     0.0600000   -0.1200000   2.494471e-04  1.671101e-07
    244    245   2   0.50000     0.0600000    0.0600000   6.128906e-05  1.496315e-08
    244    246   2   0.50000     0.0600000    0.0600000   6.128906e-05  1.496315e-08
    254    239   2   0.50000    -0.1200000   -0.1200000   1.015252e-03  1.866303e-06
    254    245   2   0.50000    -0.1200000    0.0600000   2.494471e-04  1.671101e-07
    254    246   2   0.50000    -0.1200000    0.0600000   2.494471e-04  1.671101e-07
    236    255   2   0.50000    -0.1200000   -0.0600000   1.015252e-03  1.866303e-06
    236    260   2   0.50000    -0.1200000    0.0600000   2.494471e-04  1.671101e-07
    236    261   2   0.50000    -0.1200000    0.0600000   2.494471e-04  1.671101e-07
    238    255   2   0.50000    -0.1200000   -0.0600000   1.015252e-03  1.866303e-06
    238    260   2   0.50000    -0.1200000    0.0600000   2.494471e-04  1.671101e-07
    238    261   2   0.50000    -0.1200000    0.0600000   2.494471e-04  1.671101e-07
    244    255   2   0.50000     0.0600000   -0.0600000   2.494471e-04  1.671101e-07
    244    260   2   0.50000     0.0600000    0.0600000   6.128906e-05  1.496315e-08
    244    261   2   0.50000     0.0600000    0.0600000   6.128906e-05  1.496315e-08
    237    240   2   0.50000    -0.0600000   -0.1200000   1.015252e-03  1.866303e-06
    237    247   2   0.50000    -0.0600000    0.0600000   2.494471e-04  1.671101e-07
    237    248   2   0.50000    -0.0600000    0.0600000   2.494471e-04  1.671101e-07
    245    240   2   0.50000     0.0600000   -0.1200000   2.494471e-04  1.671101e-07
    245    247   2   0.50000     0.0600000    0.0600000   6.128906e-05  1.496315e-08
    245    248   2   0.50000     0.0600000    0.0600000   6.128906e-05  1.496315e-08
    246    240   2   0.50000     0.0600000   -0.1200000   2.494471e-04  1.671101e-07
    246    247   2   0.50000     0.0600000    0.0600000   6.128906e-05  1.496315e-08
    246    248   2   0.50000     0.0600000    0.0600000   6.128906e-05  1.496315e-08
    238    241   2   0.50000    -0.1200000   -0.1800000   1.015252e-03  1.866303e-06
    238    249   2   0.50000    -0.1200000    0.0600000   2.494471e-04  1.671101e-07
    238    250   2   0.50000    -0.1200000    0.0600000   2.494471e-04  1.671101e-07
    247    241   2   0.50000     0.0600000   -0.1800000   2.494471e-04  1.671101e-07
    247    249   2   0.50000     0.0600000    0.0600000   6.128906e-05  1.496315e-08
    247    250   2   0.50000     0.0600000    0.0600000   6.128906e-05  1.496315e-08
    248    241   2   0.50000     0.0600000   -0.1800000   2.494471e-04  1.671101e-07
    248    249   2   0.50000     0.0600000    0.0600000   6.128906e-05  1.496315e-08
    248    250   2   0.50000     0.0600000    0.0600000   6.128906e-05  1.496315e-08
    239    251   2   0.50000    -0.1200000    0.0600000   2.494471e-04  1.671101e-07
    239    252   2   0.50000    -0.1200000    0.0600000   2.494471e-04  1.671101e-07
    239    253   2   0.50000    -0.1200000    0.0600000   2.494471e-04  1.671101e-07
    249    251   2   0.50000     0.0600000    0.0600000   6.128906e-05  1.496315e-08
    249    252   2   0.50000     0.0600000    0.0600000   6.128906e-05  1.496315e-08
    249    253   2   0.50000     0.0600000    0.0600000   6.128906e-05  1.496315e-08
    250    251   2   0.50000     0.0600000    0.0600000   6.128906e-05  1.496315e-08
    250    252   2   0.50000     0.0600000    0.0600000   6.128906e-05  1.496315e-08
    250    253   2   0.50000     0.0600000    0.0600000   6.128906e-05  1.496315e-08
    237    256   2   0.50000    -0.0600000   -0.1200000   1.015252e-03  1.866303e-06
    237    262   2   0.50000    -0.0600000    0.0600000   2.494471e-04  1.671101e-07
    237    272   2   0.50000    -0.0600000   -0.1200000   1.015252e-03  1.866303e-06
    260    256   2   0.50000     0.0600000   -0.1200000   2.494471e-04  1.671101e-07
    260    262   2   0.50000     0.0600000    0.0600000   6.128906e-05  1.496315e-08
    260    272   2   0.50000     0.0600000   -0.1200000   2.494471e-04  1.671101e-07
    261    256   2   0.50000     0.0600000   -0.1200000   2.494471e-04  1.671101e-07
    261    262   2   0.50000     0.0600000    0.0600000   6.128906e-05  1.496315e-08
    261    272   2   0.50000     0.0600000   -0.1200000   2.494471e-04  1.671101e-07
    254    257   2   0.50000    -0.1200000   -0.1200000   1.015252e-03  1.866303e-06
    254    263   2   0.50000    -0.1200000    0.0600000   2.494471e-04  1.671101e-07
    254    264   2   0.50000    -0.1200000    0.0600000   2.494471e-04  1.671101e-07
    262    257   2   0.50000     0.0600000   -0.1200000   2.494471e-04  1.671101e-07
    262    263   2   0.50000     0.0600000    0.0600000   6.128906e-05  1.496315e-08
    262    264   2   0.50000     0.0600000    0.0600000   6.128906e-05  1.496315e-08
    272    257   2   0.50000    -0.1200000   -0.1200000   1.015252e-03  1.866303e-06
    272    263   2   0.50000    -0.1200000    0.0600000   2.494471e-04  1.671101e-07
    272    264   2   0.50000    -0.1200000    0.0600000   2.494471e-04  1.671101e-07
    254    273   2   0.50000    -0.1200000   -0.0600000   1.015252e-03  1.866303e-06
    254    278   2   0.50000    -0.1200000    0.0600000   2.494471e-04  1.671101e-07
    254    279   2   0.50000    -0.1200000    0.0600000   2.494471e-04  1.671101e-07
    256    273   2   0.50000    -0.1200000   -0.0600000   1.015252e-03  1.866303e-06
    256    278   2   0.50000    -0.1200000    0.0600000   2.494471e-04  1.671101e-07
    256    279   2   0.50000    -0.1200000    0.0600000   2.494471e-04  1.671101e-07
    262    273   2   0.50000     0.0600000   -0.0600000   2.494471e-04  1.671101e-07
    262    278   2   0.50000     0.0600000    0.0600000   6.128906e-05  1.496315e-08
    262    279   2   0.50000     0.0600000    0.0600000   6.128906e-05  1.496315e-08
    255    258   2   0.50000    -0.0600000   -0.1200000   1.015252e-03  1.866303e-06
    255    265   2   0.50000    -0.0600000    0.0600000   2.494471e-04  1.671101e-07
    255    266   2   0.50000    -0.0600000    0.0600000   2.494471e-04  1.671101e-07
    263    258   2   0.50000     0.0600000   -0.1200000   2.494471e-04  1.671101e-07
    263    265   2   0.50000     0.0600000    0.0600000   6.128906e-05  1.496315e-08
    263    266   2   0.50000     0.0600000    0.0600000   6.128906e-05  1.496315e-08
    264    258   2   0.50000     0.0600000   -0.1200000   2.494471e-04  1.671101e-07
    264    265   2   0.50000     0.0600000    0.0600000   6.128906e-05  1.496315e-08
    264    266   2   0.50000     0.0600000    0.0600000   6.128906e-05  1.496315e-08
    256    259   2   0.50000    -0.1200000   -0.1800000   1.015252e-03  1.866303e-06
    256    267   2   0.50000    -0.1200000    0.0600000   2.494471e-04  1.671101e-07
    256    268   2   0.50000    -0.1200000    0.0600000   2.494471e-04  1.671101e-07
    265    259   2   0.50000     0.0600000   -0.1800000   2.494471e-04  1.671101e-07
    265    267   2   0.50000     0.0600000    0.0600000   6.128906e-05  1.496315e-08
    265    268   2   0.50000     0.0600000    0.0600000   6.128906e-05  1.496315e-08
    266    259   2   0.50000     0.0600000   -0.1800000   2.494471e-04  1.671101e-07
    266    267   2   0.50000     0.0600000    0.0600000   6.128906e-05  1.496315e-08
    266    268   2   0.50000     0.0600000    0.0600000   6.128906e-05  1.496315e-08
    257    269   2   0.50000    -0.1200000    0.0600000   2.494471e-04  1.671101e-07
    257    270   2   0.50000    -0.1200000    0.0600000   2.494471e-04  1.671101e-07
    257    271   2   0.50000    -0.1200000    0.0600000   2.494471e-04  1.671101e-07
    267    269   2   0.50000     0.0600000    0.0600000   6.128906e-05  1.496315e-08
    267    270   2   0.50000     0.0600000    0.0600000   6.128906e-05  1.496315e-08
    267    271   2   0.50000     0.0600000    0.0600000   6.128906e-05  1.496315e-08
    268    269   2   0.50000     0.0600000    0.0600000   6.128906e-05  1.496315e-08
    268    270   2   0.50000     0.0600000    0.0600000   6.128906e-05  1.496315e-08
    268    271   2   0.50000     0.0600000    0.0600000   6.128906e-05  1.496315e-08
    255    274   2   0.50000    -0.0600000   -0.1200000   1.015252e-03  1.866303e-06
    255    280   2   0.50000    -0.0600000    0.0600000   2.494471e-04  1.671101e-07
    255    290   2   0.50000    -0.0600000   -0.1200000   1.015252e-03  1.866303e-06
    278    274   2   0.50000     0.0600000   -0.1200000   2.494471e-04  1.671101e-07
    278    280   2   0.50000     0.0600000    0.0600000   6.128906e-05  1.496315e-08
    278    290   2   0.50000     0.0600000   -0.1200000   2.494471e-04  1.671101e-07
    279    274   2   0.50000     0.0600000   -0.1200000   2.494471e-04  1.671101e-07
    279    280   2   0.50000     0.0600000    0.0600000   6.128906e-05  1.496315e-08
    279    290   2   0.50000     0.0600000   -0.1200000   2.494471e-04  1.671101e-07
    272    275   2   0.50000    -0.1200000   -0.1200000   1.015252e-03  1.866303e-06
    272    281   2   0.50000    -0.1200000    0.0600000   2.494471e-04  1.671101e-07
    272    282   2   0.50000    -0.1200000    0.0600000   2.494471e-04  1.671101e-07
    280    275   2   0.50000     0.0600000   -0.1200000   2.494471e-04  1.671101e-07
    280    281   2   0.50000     0.0600000    0.0600000   6.128906e-05  1.496315e-08
    280    282   2   0.50000     0.0600000    0.0600000   6.128906e-05  1.496315e-08
    290    275   2   0.50000    -0.1200000   -0.1200000   1.015252e-03  1.866303e-06
    290    281   2   0.50000    -0.1200000    0.0600000   2.494471e-04  1.671101e-07
    290    282   2   0.50000    -0.1200000    0.0600000   2.494471e-04  1.671101e-07
    272    291   2   0.50000    -0.1200000   -0.0600000   1.015252e-03  1.866303e-06
    272    296   2   0.50000    -0.1200000    0.0600000   2.494471e-04  1.671101e-07
    272    297   2   0.50000    -0.1200000    0.0600000   2.494471e-04  1.671101e-07
    274    291   2   0.50000    -0.1200000   -0.0600000   1.015252e-03  1.866303e-06
    274    296   2   0.50000    -0.1200000    0.0600000   2.494471e-04  1.671101e-07
    274    297   2   0.50000    -0.1200000    0.0600000   2.494471e-04  1.671101e-07
    280    291   2   0.50000     0.0600000   -0.0600000   2.494471e-04  1.671101e-07
    280    296   2   0.50000     0.0600000    0.0600000   6.128906e-05  1.496315e-08
    280    297   2   0.50000     0.0600000    0.0600000   6.128906e-05  1.496315e-08
    273    276   2   0.50000    -0.0600000   -0.1200000   1.015252e-03  1.866303e-06
    273    283   2   0.50000    -0.0600000    0.0600000   2.494471e-04  1.671101e-07
    273    284   2   0.50000    -0.0600000    0.0600000   2.494471e-04  1.671101e-07
    281    276   2   0.50000     0.0600000   -0.1200000   2.494471e-04  1.671101e-07
    281    283   2   0.50000     0.0600000    0.0600000   6.128906e-05  1.496315e-08
    281    284   2   0.50000     0.0600000    0.0600000   6.128906e-05  1.496315e-08
    282    276   2   0.50000     0.0600000   -0.1200000   2.494471e-04  1.671101e-07
    282    283   2   0.50000     0.0600000    0.0600000   6.128906e-05  1.496315e-08
    282    284   2   0.50000     0.0600000    0.0600000   6.128906e-05  1.496315e-08
    274    277   2   0.50000    -0.1200000   -0.1800000   1.015252e-03  1.866303e-06
    274    285   2   0.50000    -0.1200000    0.0600000   2.494471e-04  1.671101e-07
    274    286   2   0.50000    -0.1200000    0.0600000   2.494471e-04  1.671101e-07
    283    277   2   0.50000     0.0600000   -0.1800000   2.494471e-04  1.671101e-07
    283    285   2   0.50000     0.0600000    0.0600000   6.128906e-05  1.496315e-08
    283    286   2   0.50000     0.0600000    0.0600000   6.128906e-05  1.496315e-08
    284    277   2   0.50000     0.0600000   -0.1800000   2.494471e-04  1.671101e-07
    284    285   2   0.50000     0.0600000    0.0600000   6.128906e-05  1.496315e-08
    284    286   2   0.50000     0.0600000    0.0600000   6.128906e-05  1.496315e-08
    275    287   2   0.50000    -0.1200000    0.0600000   2.494471e-04  1.671101e-07
    275    288   2   0.50000    -0.1200000    0.0600000   2.494471e-04  1.671101e-07
    275    289   2   0.50000    -0.1200000    0.0600000   2.494471e-04  1.671101e-07
    285    287   2   0.50000     0.0600000    0.0600000   6.128906e-05  1.496315e-08
    285    288   2   0.50000     0.0600000    0.0600000   6.128906e-05  1.496315e-08
    285    289   2   0.50000     0.0600000    0.0600000   6.128906e-05  1.496315e-08
    286    287   2   0.50000     0.0600000    0.0600000   6.128906e-05  1.496315e-08
    286    288   2   0.50000     0.0600000    0.0600000   6.128906e-05  1.496315e-08
    286    289   2   0.50000     0.0600000    0.0600000   6.128906e-05  1.496315e-08
    273    292   2   0.50000    -0.0600000   -0.1200000   1.015252e-03  1.866303e-06
    273    298   2   0.50000    -0.0600000    0.0600000   2.494471e-04  1.671101e-07
    273    308   2   0.50000    -0.0600000   -0.1200000   1.015252e-03  1.866303e-06
    296    292   2   0.50000     0.0600000   -0.1200000   2.494471e-04  1.671101e-07
    296    298   2   0.50000     0.0600000    0.0600000   6.128906e-05  1.496315e-08
    296    308   2   0.50000     0.0600000   -0.1200000   2.494471e-04  1.671101e-07
    297    292   2   0.50000     0.0600000   -0.1200000   2.494471e-04  1.671101e-07
    297    298   2   0.50000     0.0600000    0.0600000   6.128906e-05  1.496315e-08
    297    308   2   0.50000     0.0600000   -0.1200000   2.494471e-04  1.671101e-07
    290    293   2   0.50000    -0.1200000   -0.1200000   1.015252e-03  1.866303e-06
    290    299   2   0.50000    -0.1200000    0.0600000   2.494471e-04  1.671101e-07
    290    300   2   0.50000    -0.1200000    0.0600000   2.494471e-04  1.671101e-07
    298    293   2   0.50000     0.0600000   -0.1200000   2.494471e-04  1.671101e-07
    298    299   2   0.50000     0.0600000    0.0600000   6.128906e-05  1.496315e-08
    298    300   2   0.50000     0.0600000    0.0600000   6.128906e-05  1.496315e-08
    308    293   2   0.50000    -0.1200000   -0.1200000   1.015252e-03  1.866303e-06
    308    299   2   0.50000    -0.1200000    0.0600000   2.494471e-04  1.671101e-07
    308    300   2   0.50000    -0.1200000    0.0600000   2.494471e-04  1.671101e-07
    290    309   2   0.50000    -0.1200000   -0.0600000   1.015252e-03  1.866303e-06
    290    314   2   0.50000    -0.1200000    0.0600000   2.494471e-04  1.671101e-07
    290    315   2   0.50000    -0.1200000    0.0600000   2.494471e-04  1.671101e-07
    292    309   2   0.50000    -0.1200000   -0.0600000   1.015252e-03  1.866303e-06
    292    314   2   0.50000    -0.1200000    0.0600000   2.494471e-04  1.671101e-07
    292    315   2   0.50000    -0.1200000    0.0600000   2.494471e-04  1.671101e-07
    298    309   2   0.50000     0.0600000   -0.0600000   2.494471e-04  1.671101e-07
    298    314   2   0.50000     0.0600000    0.0600000   6.128906e-05  1.496315e-08
    298    315   2   0.50000     0.0600000    0.0600000   6.128906e-05  1.496315e-08
    291    294   2   0.50000    -0.0600000   -0.1200000   1.015252e-03  1.866303e-06
    291    301   2   0.50000    -0.0600000    0.0600000   2.494471e-04  1.671101e-07
    291    302   2   0.50000    -0.0600000    0.0600000   2.494471e-04  1.671101e-07
    299    294   2   0.50000     0.0600000   -0.1200000   2.494471e-04  1.671101e-07
    299    301   2   0.50000     0.0600000    0.0600000   6.128906e-05  1.496315e-08
    299    302   2   0.50000     0.0600000    0.0600000   6.128906e-05  1.496315e-08
    300    294   2   0.50000     0.0600000   -0.1200000   2.494471e-04  1.671101e-07
    300    301   2   0.50000     0.0600000    0.0600000   6.128906e-05  1.496315e-08
    300    302   2   0.50000     0.0600000    0.0600000   6.128906e-05  1.496315e-08
    292    295   2   0.50000    -0.1200000   -0.1800000   1.015252e-03  1.866303e-06
    292    303   2   0.50000    -0.1200000    0.0600000   2.494471e-04  1.671101e-07
    292    304   2   0.50000    -0.1200000    0.0600000   2.494471e-04  1.671101e-07
    301    295   2   0.50000     0.0600000   -0.1800000   2.494471e-04  1.671101e-07
    301    303   2   0.50000     0.0600000    0.0600000   6.128906e-05  1.496315e-08
    301    304   2   0.50000     0.0600000    0.0600000   6.128906e-05  1.496315e-08
    302    295   2   0.50000     0.0600000   -0.1800000   2.494471e-04  1.671101e-07
    302    303   2   0.50000     0.0600000    0.0600000   6.128906e-05  1.496315e-08
    302    304   2   0.50000     0.0600000    0.0600000   6.128906e-05  1.496315e-08
    293    305   2   0.50000    -0.1200000    0.0600000   2.494471e-04  1.671101e-07
    293    306   2   0.50000    -0.1200000    0.0600000   2.494471e-04  1.671101e-07
    293    307   2   0.50000    -0.1200000    0.0600000   2.494471e-04  1.671101e-07
    303    305   2   0.50000     0.0600000    0.0600000   6.128906e-05  1.496315e-08
    303    306   2   0.50000     0.0600000    0.0600000   6.128906e-05  1.496315e-08
    303    307   2   0.50000     0.0600000    0.0600000   6.128906e-05  1.496315e-08
    304    305   2   0.50000     0.0600000    0.0600000   6.128906e-05  1.496315e-08
    304    306   2   0.50000     0.0600000    0.0600000   6.128906e-05  1.496315e-08
    304    307   2   0.50000     0.0600000    0.0600000   6.128906e-05  1.496315e-08
    291    310   2   0.50000    -0.0600000   -0.1200000   1.015252e-03  1.866303e-06
    291    316   2   0.50000    -0.0600000    0.0600000   2.494471e-04  1.671101e-07
    291    326   2   0.50000    -0.0600000   -0.1200000   1.015252e-03  1.866303e-06
    314    310   2   0.50000     0.0600000   -0.1200000   2.494471e-04  1.671101e-07
    314    316   2   0.50000     0.0600000    0.0600000   6.128906e-05  1.496315e-08
    314    326   2   0.50000     0.0600000   -0.1200000   2.494471e-04  1.671101e-07
    315    310   2   0.50000     0.0600000   -0.1200000   2.494471e-04  1.671101e-07
    315    316   2   0.50000     0.0600000    0.0600000   6.128906e-05  1.496315e-08
    315    326   2   0.50000     0.0600000   -0.1200000   2.494471e-04  1.671101e-07
    308    311   2   0.50000    -0.1200000   -0.1200000   1.015252e-03  1.866303e-06
    308    317   2   0.50000    -0.1200000    0.0600000   2.494471e-04  1.671101e-07
    308    318   2   0.50000    -0.1200000    0.0600000   2.494471e-04  1.671101e-07
    316    311   2   0.50000     0.0600000   -0.1200000   2.494471e-04  1.671101e-07
    316    317   2   0.50000     0.0600000    0.0600000   6.128906e-05  1.496315e-08
    316    318   2   0.50000     0.0600000    0.0600000   6.128906e-05  1.496315e-08
    326    311   2   0.50000    -0.1200000   -0.1200000   1.015252e-03  1.866303e-06
    326    317   2   0.50000    -0.1200000    0.0600000   2.494471e-04  1.671101e-07
    326    318   2   0.50000    -0.1200000    0.0600000   2.494471e-04  1.671101e-07
    308    327   2   0.50000    -0.1200000   -0.0600000   1.015252e-03  1.866303e-06
    308    332   2   0.50000    -0.1200000    0.0600000   2.494471e-04  1.671101e-07
    308    333   2   0.50000    -0.1200000    0.0600000   2.494471e-04  1.671101e-07
    310    327   2   0.50000    -0.1200000   -0.0600000   1.015252e-03  1.866303e-06
    310    332   2   0.50000    -0.1200000    0.0600000   2.494471e-04  1.671101e-07
    310    333   2   0.50000    -0.1200000    0.0600000   2.494471e-04  1.671101e-07
    316    327   2   0.50000     0.0600000   -0.0600000   2.494471e-04  1.671101e-07
    316    332   2   0.50000     0.0600000    0.0600000   6.128906e-05  1.496315e-08
    316    333   2   0.50000     0.0600000    0.0600000   6.128906e-05  1.496315e-08
    309    312   2   0.50000    -0.0600000   -0.1200000   1.015252e-03  1.866303e-06
    309    319   2   0.50000    -0.0600000    0.0600000   2.494471e-04  1.671101e-07
    309    320   2   0.50000    -0.0600000    0.0600000   2.494471e-04  1.671101e-07
    317    312   2   0.50000     0.0600000   -0.1200000   2.494471e-04  1.671101e-07
    317    319   2   0.50000     0.0600000    0.0600000   6.128906e-05  1.496315e-08
    317    320   2   0.50000     0.0600000    0.0600000   6.128906e-05  1.496315e-08
    318    312   2   0.50000     0.0600000   -0.1200000   2.494471e-04  1.671101e-07
    318    319   2   0.50000     0.0600000    0.0600000   6.128906e-05  1.496315e-08
    318    320   2   0.50000     0.0600000    0.0600000   6.128906e-05  1.496315e-08
    310    313   2   0.50000    -0.1200000   -0.1800000   1.015252e-03  1.866303e-06
    310    321   2   0.50000    -0.1200000    0.0600000   2.494471e-04  1.671101e-07
    310    322   2   0.50000    -0.1200000    0.0600000   2.494471e-04  1.671101e-07
    319    313   2   0.50000     0.0600000   -0.1800000   2.494471e-04  1.671101e-07
    319    321   2   0.50000     0.0600000    0.0600000   6.128906e-05  1.496315e-08
    319    322   2   0.50000     0.0600000    0.0600000   6.128906e-05  1.496315e-08
    320    313   2   0.50000     0.0600000   -0.1800000   2.494471e-04  1.671101e-07
    320    321   2   0.50000     0.0600000    0.0600000   6.128906e-05  1.496315e-08
    320    322   2   0.50000     0.0600000    0.0600000   6.128906e-05  1.496315e-08
    311    323   2   0.50000    -0.1200000    0.0600000   2.494471e-04  1.671101e-07
    311    324   2   0.50000    -0.1200000    0.0600000   2.494471e-04  1.671101e-07
    311    325   2   0.50000    -0.1200000    0.0600000   2.494471e-04  1.671101e-07
    321    323   2   0.50000     0.0600000    0.0600000   6.128906e-05  1.496315e-08
    321    324   2   0.50000     0.0600000    0.0600000   6.128906e-05  1.496315e-08
    321    325   2   0.50000     0.0600000    0.0600000   6.128906e-05  1.496315e-08
    322    323   2   0.50000     0.0600000    0.0600000   6.128906e-05  1.496315e-08
    322    324   2   0.50000     0.0600000    0.0600000   6.128906e-05  1.496315e-08
    322    325   2   0.50000     0.0600000    0.0600000   6.128906e-05  1.496315e-08
    309    328   2   0.50000    -0.0600000   -0.1200000   1.015252e-03  1.866303e-06
    309    334   2   0.50000    -0.0600000    0.0600000   2.494471e-04  1.671101e-07
    309    344   2   0.50000    -0.0600000   -0.1200000   1.015252e-03  1.866303e-06
    332    328   2   0.50000     0.0600000   -0.1200000   2.494471e-04  1.671101e-07
    332    334   2   0.50000     0.0600000    0.0600000   6.128906e-05  1.496315e-08
    332    344   2   0.50000     0.0600000   -0.1200000   2.494471e-04  1.671101e-07
    333    328   2   0.50000     0.0600000   -0.1200000   2.494471e-04  1.671101e-07
    333    334   2   0.50000     0.0600000    0.0600000   6.128906e-05  1.496315e-08
    333    344   2   0.50000     0.0600000   -0.1200000   2.494471e-04  1.671101e-07
    326    329   2   0.50000    -0.1200000   -0.1200000   1.015252e-03  1.866303e-06
    326    335   2   0.50000    -0.1200000    0.0600000   2.494471e-04  1.671101e-07
    326    336   2   0.50000    -0.1200000    0.0600000   2.494471e-04  1.671101e-07
    334    329   2   0.50000     0.0600000   -0.1200000   2.494471e-04  1.671101e-07
    334    335   2   0.50000     0.0600000    0.0600000   6.128906e-05  1.496315e-08
    334    336   2   0.50000     0.0600000    0.0600000   6.128906e-05  1.496315e-08
    344    329   2   0.50000    -0.1200000   -0.1200000   1.015252e-03  1.866303e-06
    344    335   2   0.50000    -0.1200000    0.0600000   2.494471e-04  1.671101e-07
    344    336   2   0.50000    -0.1200000    0.0600000   2.494471e-04  1.671101e-07
    326    345   2   0.50000    -0.1200000   -0.1200000   1.015252e-03  1.866303e-06
    326    350   2   0.50000    -0.1200000    0.0600000   2.494471e-04  1.671101e-07
    326    351   2   0.50000    -0.1200000    0.0600000   2.494471e-04  1.671101e-07
    328    345   2   0.50000    -0.1200000   -0.1200000   1.015252e-03  1.866303e-06
    328    350   2   0.50000    -0.1200000    0.0600000   2.494471e-04  1.671101e-07
    328    351   2   0.50000    -0.1200000    0.0600000   2.494471e-04  1.671101e-07
    334    345   2   0.50000     0.0600000   -0.1200000   2.494471e-04  1.671101e-07
    334    350   2   0.50000     0.0600000    0.0600000   6.128906e-05  1.496315e-08
    334    351   2   0.50000     0.0600000    0.0600000   6.128906e-05  1.496315e-08
    327    330   2   0.50000    -0.0600000   -0.1200000   1.015252e-03  1.866303e-06
    327    337   2   0.50000    -0.0600000    0.0600000   2.494471e-04  1.671101e-07
    327    338   2   0.50000    -0.0600000    0.0600000   2.494471e-04  1.671101e-07
    335    330   2   0.50000     0.0600000   -0.1200000   2.494471e-04  1.671101e-07
    335    337   2   0.50000     0.0600000    0.0600000   6.128906e-05  1.496315e-08
    335    338   2   0.50000     0.0600000    0.0600000   6.128906e-05  1.496315e-08
    336    330   2   0.50000     0.0600000   -0.1200000   2.494471e-04  1.671101e-07
    336    337   2   0.50000     0.0600000    0.0600000   6.128906e-05  1.496315e-08
    336    338   2   0.50000     0.0600000    0.0600000   6.128906e-05  1.496315e-08
    328    331   2   0.50000    -0.1200000   -0.1800000   1.015252e-03  1.866303e-06
    328    339   2   0.50000    -0.1200000    0.0600000   2.494471e-04  1.671101e-07
    328    340   2   0.50000    -0.1200000    0.0600000   2.494471e-04  1.671101e-07
    337    331   2   0.50000     0.0600000   -0.1800000   2.494471e-04  1.671101e-07
    337    339   2   0.50000     0.0600000    0.0600000   6.128906e-05  1.496315e-08
    337    340   2   0.50000     0.0600000    0.0600000   6.128906e-05  1.496315e-08
    338    331   2   0.50000     0.0600000   -0.1800000   2.494471e-04  1.671101e-07
    338    339   2   0.50000     0.0600000    0.0600000   6.128906e-05  1.496315e-08
    338    340   2   0.50000     0.0600000    0.0600000   6.128906e-05  1.496315e-08
    329    341   2   0.50000    -0.1200000    0.0600000   2.494471e-04  1.671101e-07
    329    342   2   0.50000    -0.1200000    0.0600000   2.494471e-04  1.671101e-07
    329    343   2   0.50000    -0.1200000    0.0600000   2.494471e-04  1.671101e-07
    339    341   2   0.50000     0.0600000    0.0600000   6.128906e-05  1.496315e-08
    339    342   2   0.50000     0.0600000    0.0600000   6.128906e-05  1.496315e-08
    339    343   2   0.50000     0.0600000    0.0600000   6.128906e-05  1.496315e-08
    340    341   2   0.50000     0.0600000    0.0600000   6.128906e-05  1.496315e-08
    340    342   2   0.50000     0.0600000    0.0600000   6.128906e-05  1.496315e-08
    340    343   2   0.50000     0.0600000    0.0600000   6.128906e-05  1.496315e-08
    327    346   2   0.50000    -0.0600000   -0.1200000   1.015252e-03  1.866303e-06
    327    352   2   0.50000    -0.0600000    0.0600000   2.494471e-04  1.671101e-07
    327    362   2   0.50000    -0.0600000    0.0600000   2.494471e-04  1.671101e-07
    350    346   2   0.50000     0.0600000   -0.1200000   2.494471e-04  1.671101e-07
    350    352   2   0.50000     0.0600000    0.0600000   6.128906e-05  1.496315e-08
    350    362   2   0.50000     0.0600000    0.0600000   6.128906e-05  1.496315e-08
    351    346   2   0.50000     0.0600000   -0.1200000   2.494471e-04  1.671101e-07
    351    352   2   0.50000     0.0600000    0.0600000   6.128906e-05  1.496315e-08
    351    362   2   0.50000     0.0600000    0.0600000   6.128906e-05  1.496315e-08
    344    347   2   0.50000    -0.1200000   -0.1200000   1.015252e-03  1.866303e-06
    344    353   2   0.50000    -0.1200000    0.0600000   2.494471e-04  1.671101e-07
    344    354   2   0.50000    -0.1200000    0.0600000   2.494471e-04  1.671101e-07
    352    347   2   0.50000     0.0600000   -0.1200000   2.494471e-04  1.671101e-07
    352    353   2   0.50000     0.0600000    0.0600000   6.128906e-05  1.496315e-08
    352    354   2   0.50000     0.0600000    0.0600000   6.128906e-05  1.496315e-08
    362    347   2   0.50000     0.0600000   -0.1200000   2.494471e-04  1.671101e-07
    362    353   2   0.50000     0.0600000    0.0600000   6.128906e-05  1.496315e-08
    362    354   2   0.50000     0.0600000    0.0600000   6.128906e-05  1.496315e-08
    345    348   2   0.50000    -0.1200000   -0.1200000   1.015252e-03  1.866303e-06
    345    355   2   0.50000    -0.1200000    0.0600000   2.494471e-04  1.671101e-07
    345    356   2   0.50000    -0.1200000    0.0600000   2.494471e-04  1.671101e-07
    353    348   2   0.50000     0.0600000   -0.1200000   2.494471e-04  1.671101e-07
    353    355   2   0.50000     0.0600000    0.0600000   6.128906e-05  1.496315e-08
    353    356   2   0.50000     0.0600000    0.0600000   6.128906e-05  1.496315e-08
    354    348   2   0.50000     0.0600000   -0.1200000   2.494471e-04  1.671101e-07
    354    355   2   0.50000     0.0600000    0.0600000   6.128906e-05  1.496315e-08
    354    356   2   0.50000     0.0600000    0.0600000   6.128906e-05  1.496315e-08
    346    349   2   0.50000    -0.1200000   -0.1800000   1.015252e-03  1.866303e-06
    346    357   2   0.50000    -0.1200000    0.0600000   2.494471e-04  1.671101e-07
    346    358   2   0.50000    -0.1200000    0.0600000   2.494471e-04  1.671101e-07
    355    349   2   0.50000     0.0600000   -0.1800000   2.494471e-04  1.671101e-07
    355    357   2   0.50000     0.0600000    0.0600000   6.128906e-05  1.496315e-08
    355    358   2   0.50000     0.0600000    0.0600000   6.128906e-05  1.496315e-08
    356    349   2   0.50000     0.0600000   -0.1800000   2.494471e-04  1.671101e-07
    356    357   2   0.50000     0.0600000    0.0600000   6.128906e-05  1.496315e-08
    356    358   2   0.50000     0.0600000    0.0600000   6.128906e-05  1.496315e-08
    347    359   2   0.50000    -0.1200000    0.0600000   2.494471e-04  1.671101e-07
    347    360   2   0.50000    -0.1200000    0.0600000   2.494471e-04  1.671101e-07
    347    361   2   0.50000    -0.1200000    0.0600000   2.494471e-04  1.671101e-07
    357    359   2   0.50000     0.0600000    0.0600000   6.128906e-05  1.496315e-08
    357    360   2   0.50000     0.0600000    0.0600000   6.128906e-05  1.496315e-08
    357    361   2   0.50000     0.0600000    0.0600000   6.128906e-05  1.496315e-08
    358    359   2   0.50000     0.0600000    0.0600000   6.128906e-05  1.496315e-08
    358    360   2   0.50000     0.0600000    0.0600000   6.128906e-05  1.496315e-08
    358    361   2   0.50000     0.0600000    0.0600000   6.128906e-05  1.496315e-08

[ angles ]
; ai  aj  ak
      2      1      7   1    110.7000    313.8000
      2      1      8   1    110.7000    313.8000
      2      1     19   1    110.7000    313.8000
      7      1      8   1    107.8000    276.1440
      7      1     19   1    107.8000    276.1440
      8      1     19   1    107.8000    276.1440
      1      2      3   1    112.7000    488.2728
      1      2      9   1    110.7000    313.8000
      1      2     20   1    112.7000    488.2728
      3      2      9   1    110.7000    313.8000
      3      2     20   1    112.7000    488.2728
      9      2     20   1    110.7000    313.8000
      2      3      4   1    112.7000    488.2728
      2      3     10   1    110.7000    313.8000
      2      3     11   1    110.7000    313.8000
      4      3     10   1    110.7000    313.8000
      4      3     11   1    110.7000    313.8000
     10      3     11   1    107.8000    276.1440
      3      4      5   1    112.7000    488.2728
      3      4     12   1    110.7000    313.8000
      3      4     13   1    110.7000    313.8000
      5      4     12   1    110.7000    313.8000
      5      4     13   1    110.7000    313.8000
     12      4     13   1    107.8000    276.1440
      4      5      6   1    112.7000    488.2728
      4      5     14   1    110.7000    313.8000
      4      5     15   1    110.7000    313.8000
      6      5     14   1    110.7000    313.8000
      6      5     15   1    110.7000    313.8000
     14      5     15   1    107.8000    276.1440
      5      6     16   1    110.7000    313.8000
      5      6     17   1    110.7000    313.8000
      5      6     18   1    110.7000    313.8000
     16      6     17   1    107.8000    276.1440
     16      6     18   1    107.8000    276.1440
     17      6     18   1    107.8000    276.1440
      2     20     21   1    112.7000    488.2728
      2     20     26   1    110.7000    313.8000
      2     20     27   1    110.7000    313.8000
     21     20     26   1    110.7000    313.8000
     21     20     27   1    110.7000    313.8000
     26     20     27   1    107.8000    276.1440
     20     21     22   1    112.7000    488.2728
     20     21     28   1    110.7000    313.8000
     20     21     38   1    112.7000    488.2728
     22     21     28   1    110.7000    313.8000
     22     21     38   1    112.7000    488.2728
     28     21     38   1    110.7000    313.8000
     21     22     23   1    112.7000    488.2728
     21     22     29   1    110.7000    313.8000
     21     22     30   1    110.7000    313.8000
     23     22     29   1    110.7000    313.8000
     23     22     30   1    110.7000    313.8000
     29     22     30   1    107.8000    276.1440
     22     23     24   1    112.7000    488.2728
     22     23     31   1    110.7000    313.8000
     22     23     32   1    110.7000    313.8000
     24     23     31   1    110.7000    313.8000
     24     23     32   1    110.7000    313.8000
     31     23     32   1    107.8000    276.1440
     23     24     25   1    112.7000    488.2728
     23     24     33   1    110.7000    313.8000
     23     24     34   1    110.7000    313.8000
     25     24     33   1    110.7000    313.8000
     25     24     34   1    110.7000    313.8000
     33     24     34   1    107.8000    276.1440
     24     25     35   1    110.7000    313.8000
     24     25     36   1    110.7000    313.8000
     24     25     37   1    110.7000    313.8000
     35     25     36   1    107.8000    276.1440
     35     25     37   1    107.8000    276.1440
     36     25     37   1    107.8000    276.1440
     21     38     39   1    112.7000    488.2728
     21     38     44   1    110.7000    313.8000
     21     38     45   1    110.7000    313.8000
     39     38     44   1    110.7000    313.8000
     39     38     45   1    110.7000    313.8000
     44     38     45   1    107.8000    276.1440
     38     39     40   1    112.7000    488.2728
     38     39     46   1    110.7000    313.8000
     38     39     56   1    112.7000    488.2728
     40     39     46   1    110.7000    313.8000
     40     39     56   1    112.7000    488.2728
     46     39     56   1    110.7000    313.8000
     39     40     41   1    112.7000    488.2728
     39     40     47   1    110.7000    313.8000
     39     40     48   1    110.7000    313.8000
     41     40     47   1    110.7000    313.8000
     41     40     48   1    110.7000    313.8000
     47     40     48   1    107.8000    276.1440
     40     41     42   1    112.7000    488.2728
     40     41     49   1    110.7000    313.8000
     40     41     50   1    110.7000    313.8000
     42     41     49   1    110.7000    313.8000
     42     41     50   1    110.7000    313.8000
     49     41     50   1    107.8000    276.1440
     41     42     43   1    112.7000    488.2728
     41     42     51   1    110.7000    313.8000
     41     42     52   1    110.7000    313.8000
     43     42     51   1    110.7000    313.8000
     43     42     52   1    110.7000    313.8000
     51     42     52   1    107.8000    276.1440
     42     43     53   1    110.7000    313.8000
     42     43     54   1    110.7000    313.8000
     42     43     55   1    110.7000    313.8000
     53     43     54   1    107.8000    276.1440
     53     43     55   1    107.8000    276.1440
     54     43     55   1    107.8000    276.1440
     39     56     57   1    112.7000    488.2728
     39     56     62   1    110.7000    313.8000
     39     56     63   1    110.7000    313.8000
     57     56     62   1    110.7000    313.8000
     57     56     63   1    110.7000    313.8000
     62     56     63   1    107.8000    276.1440
     56     57     58   1    112.7000    488.2728
     56     57     64   1    110.7000    313.8000
     56     57     74   1    112.7000    488.2728
     58     57     64   1    110.7000    313.8000
     58     57     74   1    112.7000    488.2728
     64     57     74   1    110.7000    313.8000
     57     58     59   1    112.7000    488.2728
     57     58     65   1    110.7000    313.8000
     57     58     66   1    110.7000    313.8000
     59     58     65   1    110.7000    313.8000
     59     58     66   1    110.7000    313.8000
     65     58     66   1    107.8000    276.1440
     58     59     60   1    112.7000    488.2728
     58     59     67   1    110.7000    313.8000
     58     59     68   1    110.7000    313.8000
     60     59     67   1    110.7000    313.8000
     60     59     68   1    110.7000    313.8000
     67     59     68   1    107.8000    276.1440
     59     60     61   1    112.7000    488.2728
     59     60     69   1    110.7000    313.8000
     59     60     70   1    110.7000    313.8000
     61     60     69   1    110.7000    313.8000
     61     60     70   1    110.7000    313.8000
     69     60     70   1    107.8000    276.1440
     60     61     71   1    110.7000    313.8000
     60     61     72   1    110.7000    313.8000
     60     61     73   1    110.7000    313.8000
     71     61     72   1    107.8000    276.1440
     71     61     73   1    107.8000    276.1440
     72     61     73   1    107.8000    276.1440
     57     74     75   1    112.7000    488.2728
     57     74     80   1    110.7000    313.8000
     57     74     81   1    110.7000    313.8000
     75     74     80   1    110.7000    313.8000
     75     74     81   1    110.7000    313.8000
     80     74     81   1    107.8000    276.1440
     74     75     76   1    112.7000    488.2728
     74     75     82   1    110.7000    313.8000
     74     75     92   1    112.7000    488.2728
     76     75     82   1    110.7000    313.8000
     76     75     92   1    112.7000    488.2728
     82     75     92   1    110.7000    313.8000
     75     76     77   1    112.7000    488.2728
     75     76     83   1    110.7000    313.8000
     75     76     84   1    110.7000    313.8000
     77     76     83   1    110.7000    313.8000
     77     76     84   1    110.7000    313.8000
     83     76     84   1    107.8000    276.1440
     76     77     78   1    112.7000    488.2728
     76     77     85   1    110.7000    313.8000
     76     77     86   1    110.7000    313.8000
     78     77     85   1    110.7000    313.8000
     78     77     86   1    110.7000    313.8000
     85     77     86   1    107.8000    276.1440
     77     78     79   1    112.7000    488.2728
     77     78     87   1    110.7000    313.8000
     77     78     88   1    110.7000    313.8000
     79     78     87   1    110.7000    313.8000
     79     78     88   1    110.7000    313.8000
     87     78     88   1    107.8000    276.1440
     78     79     89   1    110.7000    313.8000
     78     79     90   1    110.7000    313.8000
     78     79     91   1    110.7000    313.8000
     89     79     90   1    107.8000    276.1440
     89     79     91   1    107.8000    276.1440
     90     79     91   1    107.8000    276.1440
     75     92     93   1    112.7000    488.2728
     75     92     98   1    110.7000    313.8000
     75     92     99   1    110.7000    313.8000
     93     92     98   1    110.7000    313.8000
     93     92     99   1    110.7000    313.8000
     98     92     99   1    107.8000    276.1440
     92     93     94   1    112.7000    488.2728
     92     93    100   1    110.7000    313.8000
     92     93    110   1    112.7000    488.2728
     94     93    100   1    110.7000    313.8000
     94     93    110   1    112.7000    488.2728
    100     93    110   1    110.7000    313.8000
     93     94     95   1    112.7000    488.2728
     93     94    101   1    110.7000    313.8000
     93     94    102   1    110.7000    313.8000
     95     94    101   1    110.7000    313.8000
     95     94    102   1    110.7000    313.8000
    101     94    102   1    107.8000    276.1440
     94     95     96   1    112.7000    488.2728
     94     95    103   1    110.7000    313.8000
     94     95    104   1    110.7000    313.8000
     96     95    103   1    110.7000    313.8000
     96     95    104   1    110.7000    313.8000
    103     95    104   1    107.8000    276.1440
     95     96     97   1    112.7000    488.2728
     95     96    105   1    110.7000    313.8000
     95     96    106   1    110.7000    313.8000
     97     96    105   1    110.7000    313.8000
     97     96    106   1    110.7000    313.8000
    105     96    106   1    107.8000    276.1440
     96     97    107   1    110.7000    313.8000
     96     97    108   1    110.7000    313.8000
     96     97    109   1    110.7000    313.8000
    107     97    108   1    107.8000    276.1440
    107     97    109   1    107.8000    276.1440
    108     97    109   1    107.8000    276.1440
     93    110    111   1    112.7000    488.2728
     93    110    116   1    110.7000    313.8000
     93    110    117   1    110.7000    313.8000
    111    110    116   1    110.7000    313.8000
    111    110    117   1    110.7000    313.8000
    116    110    117   1    107.8000    276.1440
    110    111    112   1    112.7000    488.2728
    110    111    118   1    110.7000    313.8000
    110    111    128   1    112.7000    488.2728
    112    111    118   1    110.7000    313.8000
    112    111    128   1    112.7000    488.2728
    118    111    128   1    110.7000    313.8000
    111    112    113   1    112.7000    488.2728
    111    112    119   1    110.7000    313.8000
    111    112    120   1    110.7000    313.8000
    113    112    119   1    110.7000    313.8000
    113    112    120   1    110.7000    313.8000
    119    112    120   1    107.8000    276.1440
    112    113    114   1    112.7000    488.2728
    112    113    121   1    110.7000    313.8000
    112    113    122   1    110.7000    313.8000
    114    113    121   1    110.7000    313.8000
    114    113    122   1    110.7000    313.8000
    121    113    122   1    107.8000    276.1440
    113    114    115   1    112.7000    488.2728
    113    114    123   1    110.7000    313.8000
    113    114    124   1    110.7000    313.8000
    115    114    123   1    110.7000    313.8000
    115    114    124   1    110.7000    313.8000
    123    114    124   1    107.8000    276.1440
    114    115    125   1    110.7000    313.8000
    114    115    126   1    110.7000    313.8000
    114    115    127   1    110.7000    313.8000
    125    115    126   1    107.8000    276.1440
    125    115    127   1    107.8000    276.1440
    126    115    127   1    107.8000    276.1440
    111    128    129   1    112.7000    488.2728
    111    128    134   1    110.7000    313.8000
    111    128    135   1    110.7000    313.8000
    129    128    134   1    110.7000    313.8000
    129    128    135   1    110.7000    313.8000
    134    128    135   1    107.8000    276.1440
    128    129    130   1    112.7000    488.2728
    128    129    136   1    110.7000    313.8000
    128    129    146   1    112.7000    488.2728
    130    129    136   1    110.7000    313.8000
    130    129    146   1    112.7000    488.2728
    136    129    146   1    110.7000    313.8000
    129    130    131   1    112.7000    488.2728
    129    130    137   1    110.7000    313.8000
    129    130    138   1    110.7000    313.8000
    131    130    137   1    110.7000    313.8000
    131    130    138   1    110.7000    313.8000
    137    130    138   1    107.8000    276.1440
    130    131    132   1    112.7000    488.2728
    130    131    139   1    110.7000    313.8000
    130    131    140   1    110.7000    313.8000
    132    131    139   1    110.7000    313.8000
    132    131    140   1    110.7000    313.8000
    139    131    140   1    107.8000    276.1440
    131    132    133   1    112.7000    488.2728
    131    132    141   1    110.7000    313.8000
    131    132    142   1    110.7000    313.8000
    133    132    141   1    110.7000    313.8000
    133    132    142   1    110.7000    313.8000
    141    132    142   1    107.8000    276.1440
    132    133    143   1    110.7000    313.8000
    132    133    144   1    110.7000    313.8000
    132    133    145   1    110.7000    313.8000
    143    133    144   1    107.8000    276.1440
    143    133    145   1    107.8000    276.1440
    144    133    145   1    107.8000    276.1440
    129    146    147   1    112.7000    488.2728
    129    146    152   1    110.7000    313.8000
    129    146    153   1    110.7000    313.8000
    147    146    152   1    110.7000    313.8000
    147    146    153   1    110.7000    313.8000
    152    146    153   1    107.8000    276.1440
    146    147    148   1    112.7000    488.2728
    146    147    154   1    110.7000    313.8000
    146    147    164   1    112.7000    488.2728
    148    147    154   1    110.7000    313.8000
    148    147    164   1    112.7000    488.2728
    154    147    164   1    110.7000    313.8000
    147    148    149   1    112.7000    488.2728
    147    148    155   1    110.7000    313.8000
    147    148    156   1    110.7000    313.8000
    149    148    155   1    110.7000    313.8000
    149    148    156   1    110.7000    313.8000
    155    148    156   1    107.8000    276.1440
    148    149    150   1    112.7000    488.2728
    148    149    157   1    110.7000    313.8000
    148    149    158   1    110.7000    313.8000
    150    149    157   1    110.7000    313.8000
    150    149    158   1    110.7000    313.8000
    157    149    158   1    107.8000    276.1440
    149    150    151   1    112.7000    488.2728
    149    150    159   1    110.7000    313.8000
    149    150    160   1    110.7000    313.8000
    151    150    159   1    110.7000    313.8000
    151    150    160   1    110.7000    313.8000
    159    150    160   1    107.8000    276.1440
    150    151    161   1    110.7000    313.8000
    150    151    162   1    110.7000    313.8000
    150    151    163   1    110.7000    313.8000
    161    151    162   1    107.8000    276.1440
    161    151    163   1    107.8000    276.1440
    162    151    163   1    107.8000    276.1440
    147    164    165   1    112.7000    488.2728
    147    164    170   1    110.7000    313.8000
    147    164    171   1    110.7000    313.8000
    165    164    170   1    110.7000    313.8000
    165    164    171   1    110.7000    313.8000
    170    164    171   1    107.8000    276.1440
    164    165    166   1    112.7000    488.2728
    164    165    172   1    110.7000    313.8000
    164    165    182   1    112.7000    488.2728
    166    165    172   1    110.7000    313.8000
    166    165    182   1    112.7000    488.2728
    172    165    182   1    110.7000    313.8000
    165    166    167   1    112.7000    488.2728
    165    166    173   1    110.7000    313.8000
    165    166    174   1    110.7000    313.8000
    167    166    173   1    110.7000    313.8000
    167    166    174   1    110.7000    313.8000
    173    166    174   1    107.8000    276.1440
    166    167    168   1    112.7000    488.2728
    166    167    175   1    110.7000    313.8000
    166    167    176   1    110.7000    313.8000
    168    167    175   1    110.7000    313.8000
    168    167    176   1    110.7000    313.8000
    175    167    176   1    107.8000    276.1440
    167    168    169   1    112.7000    488.2728
    167    168    177   1    110.7000    313.8000
    167    168    178   1    110.7000    313.8000
    169    168    177   1    110.7000    313.8000
    169    168    178   1    110.7000    313.8000
    177    168    178   1    107.8000    276.1440
    168    169    179   1    110.7000    313.8000
    168    169    180   1    110.7000    313.8000
    168    169    181   1    110.7000    313.8000
    179    169    180   1    107.8000    276.1440
    179    169    181   1    107.8000    276.1440
    180    169    181   1    107.8000    276.1440
    165    182    183   1    112.7000    488.2728
    165    182    188   1    110.7000    313.8000
    165    182    189   1    110.7000    313.8000
    183    182    188   1    110.7000    313.8000
    183    182    189   1    110.7000    313.8000
    188    182    189   1    107.8000    276.1440
    182    183    184   1    112.7000    488.2728
    182    183    190   1    110.7000    313.8000
    182    183    200   1    112.7000    488.2728
    184    183    190   1    110.7000    313.8000
    184    183    200   1    112.7000    488.2728
    190    183    200   1    110.7000    313.8000
    183    184    185   1    112.7000    488.2728
    183    184    191   1    110.7000    313.8000
    183    184    192   1    110.7000    313.8000
    185    184    191   1    110.7000    313.8000
    185    184    192   1    110.7000    313.8000
    191    184    192   1    107.8000    276.1440
    184    185    186   1    112.7000    488.2728
    184    185    193   1    110.7000    313.8000
    184    185    194   1    110.7000    313.8000
    186    185    193   1    110.7000    313.8000
    186    185    194   1    110.7000    313.8000
    193    185    194   1    107.8000    276.1440
    185    186    187   1    112.7000    488.2728
    185    186    195   1    110.7000    313.8000
    185    186    196   1    110.7000    313.8000
    187    186    195   1    110.7000    313.8000
    187    186    196   1    110.7000    313.8000
    195    186    196   1    107.8000    276.1440
    186    187    197   1    110.7000    313.8000
    186    187    198   1    110.7000    313.8000
    186    187    199   1    110.7000    313.8000
    197    187    198   1    107.8000    276.1440
    197    187    199   1    107.8000    276.1440
    198    187    199   1    107.8000    276.1440
    183    200    201   1    112.7000    488.2728
    183    200    206   1    110.7000    313.8000
    183    200    207   1    110.7000    313.8000
    201    200    206   1    110.7000    313.8000
    201    200    207   1    110.7000    313.8000
    206    200    207   1    107.8000    276.1440
    200    201    202   1    112.7000    488.2728
    200    201    208   1    110.7000    313.8000
    200    201    218   1    112.7000    488.2728
    202    201    208   1    110.7000    313.8000
    202    201    218   1    112.7000    488.2728
    208    201    218   1    110.7000    313.8000
    201    202    203   1    112.7000    488.2728
    201    202    209   1    110.7000    313.8000
    201    202    210   1    110.7000    313.8000
    203    202    209   1    110.7000    313.8000
    203    202    210   1    110.7000    313.8000
    209    202    210   1    107.8000    276.1440
    202    203    204   1    112.7000    488.2728
    202    203    211   1    110.7000    313.8000
    202    203    212   1    110.7000    313.8000
    204    203    211   1    110.7000    313.8000
    204    203    212   1    110.7000    313.8000
    211    203    212   1    107.8000    276.1440
    203    204    205   1    112.7000    488.2728
    203    204    213   1    110.7000    313.8000
    203    204    214   1    110.7000    313.8000
    205    204    213   1    110.7000    313.8000
    205    204    214   1    110.7000    313.8000
    213    204    214   1    107.8000    276.1440
    204    205    215   1    110.7000    313.8000
    204    205    216   1    110.7000    313.8000
    204    205    217   1    110.7000    313.8000
    215    205    216   1    107.8000    276.1440
    215    205    217   1    107.8000    276.1440
    216    205    217   1    107.8000    276.1440
    201    218    219   1    112.7000    488.2728
    201    218    224   1    110.7000    313.8000
    201    218    225   1    110.7000    313.8000
    219    218    224   1    110.7000    313.8000
    219    218    225   1    110.7000    313.8000
    224    218    225   1    107.8000    276.1440
    218    219    220   1    112.7000    488.2728
    218    219    226   1    110.7000    313.8000
    218    219    236   1    112.7000    488.2728
    220    219    226   1    110.7000    313.8000
    220    219    236   1    112.7000    488.2728
    226    219    236   1    110.7000    313.8000
    219    220    221   1    112.7000    488.2728
    219    220    227   1    110.7000    313.8000
    219    220    228   1    110.7000    313.8000
    221    220    227   1    110.7000    313.8000
    221    220    228   1    110.7000    313.8000
    227    220    228   1    107.8000    276.1440
    220    221    222   1    112.7000    488.2728
    220    221    229   1    110.7000    313.8000
    220    221    230   1    110.7000    313.8000
    222    221    229   1    110.7000    313.8000
    222    221    230   1    110.7000    313.8000
    229    221    230   1    107.8000    276.1440
    221    222    223   1    112.7000    488.2728
    221    222    231   1    110.7000    313.8000
    221    222    232   1    110.7000    313.8000
    223    222    231   1    110.7000    313.8000
    223    222    232   1    110.7000    313.8000
    231    222    232   1    107.8000    276.1440
    222    223    233   1    110.7000    313.8000
    222    223    234   1    110.7000    313.8000
    222    223    235   1    110.7000    313.8000
    233    223    234   1    107.8000    276.1440
    233    223    235   1    107.8000    276.1440
    234    223    235   1    107.8000    276.1440
    219    236    237   1    112.7000    488.2728
    219    236    242   1    110.7000    313.8000
    219    236    243   1    110.7000    313.8000
    237    236    242   1    110.7000    313.8000
    237    236    243   1    110.7000    313.8000
    242    236    243   1    107.8000    276.1440
    236    237    238   1    112.7000    488.2728
    236    237    244   1    110.7000    313.8000
    236    237    254   1    112.7000    488.2728
    238    237    244   1    110.7000    313.8000
    238    237    254   1    112.7000    488.2728
    244    237    254   1    110.7000    313.8000
    237    238    239   1    112.7000    488.2728
    237    238    245   1    110.7000    313.8000
    237    238    246   1    110.7000    313.8000
    239    238    245   1    110.7000    313.8000
    239    238    246   1    110.7000    313.8000
    245    238    246   1    107.8000    276.1440
    238    239    240   1    112.7000    488.2728
    238    239    247   1    110.7000    313.8000
    238    239    248   1    110.7000    313.8000
    240    239    247   1    110.7000    313.8000
    240    239    248   1    110.7000    313.8000
    247    239    248   1    107.8000    276.1440
    239    240    241   1    112.7000    488.2728
    239    240    249   1    110.7000    313.8000
    239    240    250   1    110.7000    313.8000
    241    240    249   1    110.7000    313.8000
    241    240    250   1    110.7000    313.8000
    249    240    250   1    107.8000    276.1440
    240    241    251   1    110.7000    313.8000
    240    241    252   1    110.7000    313.8000
    240    241    253   1    110.7000    313.8000
    251    241    252   1    107.8000    276.1440
    251    241    253   1    107.8000    276.1440
    252    241    253   1    107.8000    276.1440
    237    254    255   1    112.7000    488.2728
    237    254    260   1    110.7000    313.8000
    237    254    261   1    110.7000    313.8000
    255    254    260   1    110.7000    313.8000
    255    254    261   1    110.7000    313.8000
    260    254    261   1    107.8000    276.1440
    254    255    256   1    112.7000    488.2728
    254    255    262   1    110.7000    313.8000
    254    255    272   1    112.7000    488.2728
    256    255    262   1    110.7000    313.8000
    256    255    272   1    112.7000    488.2728
    262    255    272   1    110.7000    313.8000
    255    256    257   1    112.7000    488.2728
    255    256    263   1    110.7000    313.8000
    255    256    264   1    110.7000    313.8000
    257    256    263   1    110.7000    313.8000
    257    256    264   1    110.7000    313.8000
    263    256    264   1    107.8000    276.1440
    256    257    258   1    112.7000    488.2728
    256    257    265   1    110.7000    313.8000
    256    257    266   1    110.7000    313.8000
    258    257    265   1    110.7000    313.8000
    258    257    266   1    110.7000    313.8000
    265    257    266   1    107.8000    276.1440
    257    258    259   1    112.7000    488.2728
    257    258    267   1    110.7000    313.8000
    257    258    268   1    110.7000    313.8000
    259    258    267   1    110.7000    313.8000
    259    258    268   1    110.7000    313.8000
    267    258    268   1    107.8000    276.1440
    258    259    269   1    110.7000    313.8000
    258    259    270   1    110.7000    313.8000
    258    259    271   1    110.7000    313.8000
    269    259    270   1    107.8000    276.1440
    269    259    271   1    107.8000    276.1440
    270    259    271   1    107.8000    276.1440
    255    272    273   1    112.7000    488.2728
    255    272    278   1    110.7000    313.8000
    255    272    279   1    110.7000    313.8000
    273    272    278   1    110.7000    313.8000
    273    272    279   1    110.7000    313.8000
    278    272    279   1    107.8000    276.1440
    272    273    274   1    112.7000    488.2728
    272    273    280   1    110.7000    313.8000
    272    273    290   1    112.7000    488.2728
    274    273    280   1    110.7000    313.8000
    274    273    290   1    112.7000    488.2728
    280    273    290   1    110.7000    313.8000
    273    274    275   1    112.7000    488.2728
    273    274    281   1    110.7000    313.8000
    273    274    282   1    110.7000    313.8000
    275    274    281   1    110.7000    313.8000
    275    274    282   1    110.7000    313.8000
    281    274    282   1    107.8000    276.1440
    274    275    276   1    112.7000    488.2728
    274    275    283   1    110.7000    313.8000
    274    275    284   1    110.7000    313.8000
    276    275    283   1    110.7000    313.8000
    276    275    284   1    110.7000    313.8000
    283    275    284   1    107.8000    276.1440
    275    276    277   1    112.7000    488.2728
    275    276    285   1    110.7000    313.8000
    275    276    286   1    110.7000    313.8000
    277    276    285   1    110.7000    313.8000
    277    276    286   1    110.7000    313.8000
    285    276    286   1    107.8000    276.1440
    276    277    287   1    110.7000    313.8000
    276    277    288   1    110.7000    313.8000
    276    277    289   1    110.7000    313.8000
    287    277    288   1    107.8000    276.1440
    287    277    289   1    107.8000    276.1440
    288    277    289   1    107.8000    276.1440
    273    290    291   1    112.7000    488.2728
    273    290    296   1    110.7000    313.8000
    273    290    297   1    110.7000    313.8000
    291    290    296   1    110.7000    313.8000
    291    290    297   1    110.7000    313.8000
    296    290    297   1    107.8000    276.1440
    290    291    292   1    112.7000    488.2728
    290    291    298   1    110.7000    313.8000
    290    291    308   1    112.7000    488.2728
    292    291    298   1    110.7000    313.8000
    292    291    308   1    112.7000    488.2728
    298    291    308   1    110.7000    313.8000
    291    292    293   1    112.7000    488.2728
    291    292    299   1    110.7000    313.8000
    291    292    300   1    110.7000    313.8000
    293    292    299   1    110.7000    313.8000
    293    292    300   1    110.7000    313.8000
    299    292    300   1    107.8000    276.1440
    292    293    294   1    112.7000    488.2728
    292    293    301   1    110.7000    313.8000
    292    293    302   1    110.7000    313.8000
    294    293    301   1    110.7000    313.8000
    294    293    302   1    110.7000    313.8000
    301    293    302   1    107.8000    276.1440
    293    294    295   1    112.7000    488.2728
    293    294    303   1    110.7000    313.8000
    293    294    304   1    110.7000    313.8000
    295    294    303   1    110.7000    313.8000
    295    294    304   1    110.7000    313.8000
    303    294    304   1    107.8000    276.1440
    294    295    305   1    110.7000    313.8000
    294    295    306   1    110.7000    313.8000
    294    295    307   1    110.7000    313.8000
    305    295    306   1    107.8000    276.1440
    305    295    307   1    107.8000    276.1440
    306    295    307   1    107.8000    276.1440
    291    308    309   1    112.7000    488.2728
    291    308    314   1    110.7000    313.8000
    291    308    315   1    110.7000    313.8000
    309    308    314   1    110.7000    313.8000
    309    308    315   1    110.7000    313.8000
    314    308    315   1    107.8000    276.1440
    308    309    310   1    112.7000    488.2728
    308    309    316   1    110.7000    313.8000
    308    309    326   1    112.7000    488.2728
    310    309    316   1    110.7000    313.8000
    310    309    326   1    112.7000    488.2728
    316    309    326   1    110.7000    313.8000
    309    310    311   1    112.7000    488.2728
    309    310    317   1    110.7000    313.8000
    309    310    318   1    110.7000    313.8000
    311    310    317   1    110.7000    313.8000
    311    310    318   1    110.7000    313.8000
    317    310    318   1    107.8000    276.1440
    310    311    312   1    112.7000    488.2728
    310    311    319   1    110.7000    313.8000
    310    311    320   1    110.7000    313.8000
    312    311    319   1    110.7000    313.8000
    312    311    320   1    110.7000    313.8000
    319    311    320   1    107.8000    276.1440
    311    312    313   1    112.7000    488.2728
    311    312    321   1    110.7000    313.8000
    311    312    322   1    110.7000    313.8000
    313    312    321   1    110.7000    313.8000
    313    312    322   1    110.7000    313.8000
    321    312    322   1    107.8000    276.1440
    312    313    323   1    110.7000    313.8000
    312    313    324   1    110.7000    313.8000
    312    313    325   1    110.7000    313.8000
    323    313    324   1    107.8000    276.1440
    323    313    325   1    107.8000    276.1440
    324    313    325   1    107.8000    276.1440
    309    326    327   1    112.7000    488.2728
    309    326    332   1    110.7000    313.8000
    309    326    333   1    110.7000    313.8000
    327    326    332   1    110.7000    313.8000
    327    326    333   1    110.7000    313.8000
    332    326    333   1    107.8000    276.1440
    326    327    328   1    112.7000    488.2728
    326    327    334   1    110.7000    313.8000
    326    327    344   1    112.7000    488.2728
    328    327    334   1    110.7000    313.8000
    328    327    344   1    112.7000    488.2728
    334    327    344   1    110.7000    313.8000
    327    328    329   1    112.7000    488.2728
    327    328    335   1    110.7000    313.8000
    327    328    336   1    110.7000    313.8000
    329    328    335   1    110.7000    313.8000
    329    328    336   1    110.7000    313.8000
    335    328    336   1    107.8000    276.1440
    328    329    330   1    112.7000    488.2728
    328    329    337   1    110.7000    313.8000
    328    329    338   1    110.7000    313.8000
    330    329    337   1    110.7000    313.8000
    330    329    338   1    110.7000    313.8000
    337    329    338   1    107.8000    276.1440
    329    330    331   1    112.7000    488.2728
    329    330    339   1    110.7000    313.8000
    329    330    340   1    110.7000    313.8000
    331    330    339   1    110.7000    313.8000
    331    330    340   1    110.7000    313.8000
    339    330    340   1    107.8000    276.1440
    330    331    341   1    110.7000    313.8000
    330    331    342   1    110.7000    313.8000
    330    331    343   1    110.7000    313.8000
    341    331    342   1    107.8000    276.1440
    341    331    343   1    107.8000    276.1440
    342    331    343   1    107.8000    276.1440
    327    344    345   1    112.7000    488.2728
    327    344    350   1    110.7000    313.8000
    327    344    351   1    110.7000    313.8000
    345    344    350   1    110.7000    313.8000
    345    344    351   1    110.7000    313.8000
    350    344    351   1    107.8000    276.1440
    344    345    346   1    112.7000    488.2728
    344    345    352   1    110.7000    313.8000
    344    345    362   1    110.7000    313.8000
    346    345    352   1    110.7000    313.8000
    346    345    362   1    110.7000    313.8000
    352    345    362   1    107.8000    276.1440
    345    346    347   1    112.7000    488.2728
    345    346    353   1    110.7000    313.8000
    345    346    354   1    110.7000    313.8000
    347    346    353   1    110.7000    313.8000
    347    346    354   1    110.7000    313.8000
    353    346    354   1    107.8000    276.1440
    346    347    348   1    112.7000    488.2728
    346    347    355   1    110.7000    313.8000
    346    347    356   1    110.7000    313.8000
    348    347    355   1    110.7000    313.8000
    348    347    356   1    110.7000    313.8000
    355    347    356   1    107.8000    276.1440
    347    348    349   1    112.7000    488.2728
    347    348    357   1    110.7000    313.8000
    347    348    358   1    110.7000    313.8000
    349    348    357   1    110.7000    313.8000
    349    348    358   1    110.7000    313.8000
    357    348    358   1    107.8000    276.1440
    348    349    359   1    110.7000    313.8000
    348    349    360   1    110.7000    313.8000
    348    349    361   1    110.7000    313.8000
    359    349    360   1    107.8000    276.1440
    359    349    361   1    107.8000    276.1440
    360    349    361   1    107.8000    276.1440

[ dihedrals ]
; Proper dihedrals
      7      1      2      3   5     0.00000     0.00000     1.25520  0.0
      7      1      2      9   5     0.00000     0.00000     1.25520  0.0
      7      1      2     20   5     0.00000     0.00000     1.25520  0.0
      8      1      2      3   5     0.00000     0.00000     1.25520  0.0
      8      1      2      9   5     0.00000     0.00000     1.25520  0.0
      8      1      2     20   5     0.00000     0.00000     1.25520  0.0
     19      1      2      3   5     0.00000     0.00000     1.25520  0.0
     19      1      2      9   5     0.00000     0.00000     1.25520  0.0
     19      1      2     20   5     0.00000     0.00000     1.25520  0.0
      1      2      3      4   5     4.74884    -0.63178     1.67360  0.0
      1      2      3     10   5     0.00000     0.00000     1.25520  0.0
      1      2      3     11   5     0.00000     0.00000     1.25520  0.0
      9      2      3      4   5     0.00000     0.00000     1.25520  0.0
      9      2      3     10   5     0.00000     0.00000     1.25520  0.0
      9      2      3     11   5     0.00000     0.00000     1.25520  0.0
     20      2      3      4   5     4.74884    -0.63178     1.67360  0.0
     20      2      3     10   5     0.00000     0.00000     1.25520  0.0
     20      2      3     11   5     0.00000     0.00000     1.25520  0.0
      1      2     20     21   5     4.74884    -0.63178     1.67360  0.0
      1      2     20     26   5     0.00000     0.00000     1.25520  0.0
      1      2     20     27   5     0.00000     0.00000     1.25520  0.0
      3      2     20     21   5     4.74884    -0.63178     1.67360  0.0
      3      2     20     26   5     0.00000     0.00000     1.25520  0.0
      3      2     20     27   5     0.00000     0.00000     1.25520  0.0
      9      2     20     21   5     0.00000     0.00000     1.25520  0.0
      9      2     20     26   5     0.00000     0.00000     1.25520  0.0
      9      2     20     27   5     0.00000     0.00000     1.25520  0.0
      2      3      4      5   5     4.74884    -0.63178     1.67360  0.0
      2      3      4     12   5     0.00000     0.00000     1.25520  0.0
      2      3      4     13   5     0.00000     0.00000     1.25520  0.0
     10      3      4      5   5     0.00000     0.00000     1.25520  0.0
     10      3      4     12   5     0.00000     0.00000     1.25520  0.0
     10      3      4     13   5     0.00000     0.00000     1.25520  0.0
     11      3      4      5   5     0.00000     0.00000     1.25520  0.0
     11      3      4     12   5     0.00000     0.00000     1.25520  0.0
     11      3      4     13   5     0.00000     0.00000     1.25520  0.0
      3      4      5      6   5     4.74884    -0.63178     1.67360  0.0
      3      4      5     14   5     0.00000     0.00000     1.25520  0.0
      3      4      5     15   5     0.00000     0.00000     1.25520  0.0
     12      4      5      6   5     0.00000     0.00000     1.25520  0.0
     12      4      5     14   5     0.00000     0.00000     1.25520  0.0
     12      4      5     15   5     0.00000     0.00000     1.25520  0.0
     13      4      5      6   5     0.00000     0.00000     1.25520  0.0
     13      4      5     14   5     0.00000     0.00000     1.25520  0.0
     13      4      5     15   5     0.00000     0.00000     1.25520  0.0
      4      5      6     16   5     0.00000     0.00000     1.25520  0.0
      4      5      6     17   5     0.00000     0.00000     1.25520  0.0
      4      5      6     18   5     0.00000     0.00000     1.25520  0.0
     14      5      6     16   5     0.00000     0.00000     1.25520  0.0
     14      5      6     17   5     0.00000     0.00000     1.25520  0.0
     14      5      6     18   5     0.00000     0.00000     1.25520  0.0
     15      5      6     16   5     0.00000     0.00000     1.25520  0.0
     15      5      6     17   5     0.00000     0.00000     1.25520  0.0
     15      5      6     18   5     0.00000     0.00000     1.25520  0.0
      2     20     21     22   5     4.74884    -0.63178     1.67360  0.0
      2     20     21     28   5     0.00000     0.00000     1.25520  0.0
      2     20     21     38   5     4.74884    -0.63178     1.67360  0.0
     26     20     21     22   5     0.00000     0.00000     1.25520  0.0
     26     20     21     28   5     0.00000     0.00000     1.25520  0.0
     26     20     21     38   5     0.00000     0.00000     1.25520  0.0
     27     20     21     22   5     0.00000     0.00000     1.25520  0.0
     27     20     21     28   5     0.00000     0.00000     1.25520  0.0
     27     20     21     38   5     0.00000     0.00000     1.25520  0.0
     20     21     22     23   5     4.74884    -0.63178     1.67360  0.0
     20     21     22     29   5     0.00000     0.00000     1.25520  0.0
     20     21     22     30   5     0.00000     0.00000     1.25520  0.0
     28     21     22     23   5     0.00000     0.00000     1.25520  0.0
     28     21     22     29   5     0.00000     0.00000     1.25520  0.0
     28     21     22     30   5     0.00000     0.00000     1.25520  0.0
     38     21     22     23   5     4.74884    -0.63178     1.67360  0.0
     38     21     22     29   5     0.00000     0.00000     1.25520  0.0
     38     21     22     30   5     0.00000     0.00000     1.25520  0.0
     20     21     38     39   5     4.74884    -0.63178     1.67360  0.0
     20     21     38     44   5     0.00000     0.00000     1.25520  0.0
     20     21     38     45   5     0.00000     0.00000     1.25520  0.0
     22     21     38     39   5     4.74884    -0.63178     1.67360  0.0
     22     21     38     44   5     0.00000     0.00000     1.25520  0.0
     22     21     38     45   5     0.00000     0.00000     1.25520  0.0
     28     21     38     39   5     0.00000     0.00000     1.25520  0.0
     28     21     38     44   5     0.00000     0.00000     1.25520  0.0
     28     21     38     45   5     0.00000     0.00000     1.25520  0.0
     21     22     23     24   5     4.74884    -0.63178     1.67360  0.0
     21     22     23     31   5     0.00000     0.00000     1.25520  0.0
     21     22     23     32   5     0.00000     0.00000     1.25520  0.0
     29     22     23     24   5     0.00000     0.00000     1.25520  0.0
     29     22     23     31   5     0.00000     0.00000     1.25520  0.0
     29     22     23     32   5     0.00000     0.00000     1.25520  0.0
     30     22     23     24   5     0.00000     0.00000     1.25520  0.0
     30     22     23     31   5     0.00000     0.00000     1.25520  0.0
     30     22     23     32   5     0.00000     0.00000     1.25520  0.0
     22     23     24     25   5     4.74884    -0.63178     1.67360  0.0
     22     23     24     33   5     0.00000     0.00000     1.25520  0.0
     22     23     24     34   5     0.00000     0.00000     1.25520  0.0
     31     23     24     25   5     0.00000     0.00000     1.25520  0.0
     31     23     24     33   5     0.00000     0.00000     1.25520  0.0
     31     23     24     34   5     0.00000     0.00000     1.25520  0.0
     32     23     24     25   5     0.00000     0.00000     1.25520  0.0
     32     23     24     33   5     0.00000     0.00000     1.25520  0.0
     32     23     24     34   5     0.00000     0.00000     1.25520  0.0
     23     24     25     35   5     0.00000     0.00000     1.25520  0.0
     23     24     25     36   5     0.00000     0.00000     1.25520  0.0
     23     24     25     37   5     0.00000     0.00000     1.25520  0.0
     33     24     25     35   5     0.00000     0.00000     1.25520  0.0
     33     24     25     36   5     0.00000     0.00000     1.25520  0.0
     33     24     25     37   5     0.00000     0.00000     1.25520  0.0
     34     24     25     35   5     0.00000     0.00000     1.25520  0.0
     34     24     25     36   5     0.00000     0.00000     1.25520  0.0
     34     24     25     37   5     0.00000     0.00000     1.25520  0.0
     21     38     39     40   5     4.74884    -0.63178     1.67360  0.0
     21     38     39     46   5     0.00000     0.00000     1.25520  0.0
     21     38     39     56   5     4.74884    -0.63178     1.67360  0.0
     44     38     39     40   5     0.00000     0.00000     1.25520  0.0
     44     38     39     46   5     0.00000     0.00000     1.25520  0.0
     44     38     39     56   5     0.00000     0.00000     1.25520  0.0
     45     38     39     40   5     0.00000     0.00000     1.25520  0.0
     45     38     39     46   5     0.00000     0.00000     1.25520  0.0
     45     38     39     56   5     0.00000     0.00000     1.25520  0.0
     38     39     40     41   5     4.74884    -0.63178     1.67360  0.0
     38     39     40     47   5     0.00000     0.00000     1.25520  0.0
     38     39     40     48   5     0.00000     0.00000     1.25520  0.0
     46     39     40     41   5     0.00000     0.00000     1.25520  0.0
     46     39     40     47   5     0.00000     0.00000     1.25520  0.0
     46     39     40     48   5     0.00000     0.00000     1.25520  0.0
     56     39     40     41   5     4.74884    -0.63178     1.67360  0.0
     56     39     40     47   5     0.00000     0.00000     1.25520  0.0
     56     39     40     48   5     0.00000     0.00000     1.25520  0.0
     38     39     56     57   5     4.74884    -0.63178     1.67360  0.0
     38     39     56     62   5     0.00000     0.00000     1.25520  0.0
     38     39     56     63   5     0.00000     0.00000     1.25520  0.0
     40     39     56     57   5     4.74884    -0.63178     1.67360  0.0
     40     39     56     62   5     0.00000     0.00000     1.25520  0.0
     40     39     56     63   5     0.00000     0.00000     1.25520  0.0
     46     39     56     57   5     0.00000     0.00000     1.25520  0.0
     46     39     56     62   5     0.00000     0.00000     1.25520  0.0
     46     39     56     63   5     0.00000     0.00000     1.25520  0.0
     39     40     41     42   5     4.74884    -0.63178     1.67360  0.0
     39     40     41     49   5     0.00000     0.00000     1.25520  0.0
     39     40     41     50   5     0.00000     0.00000     1.25520  0.0
     47     40     41     42   5     0.00000     0.00000     1.25520  0.0
     47     40     41     49   5     0.00000     0.00000     1.25520  0.0
     47     40     41     50   5     0.00000     0.00000     1.25520  0.0
     48     40     41     42   5     0.00000     0.00000     1.25520  0.0
     48     40     41     49   5     0.00000     0.00000     1.25520  0.0
     48     40     41     50   5     0.00000     0.00000     1.25520  0.0
     40     41     42     43   5     4.74884    -0.63178     1.67360  0.0
     40     41     42     51   5     0.00000     0.00000     1.25520  0.0
     40     41     42     52   5     0.00000     0.00000     1.25520  0.0
     49     41     42     43   5     0.00000     0.00000     1.25520  0.0
     49     41     42     51   5     0.00000     0.00000     1.25520  0.0
     49     41     42     52   5     0.00000     0.00000     1.25520  0.0
     50     41     42     43   5     0.00000     0.00000     1.25520  0.0
     50     41     42     51   5     0.00000     0.00000     1.25520  0.0
     50     41     42     52   5     0.00000     0.00000     1.25520  0.0
     41     42     43     53   5     0.00000     0.00000     1.25520  0.0
     41     42     43     54   5     0.00000     0.00000     1.25520  0.0
     41     42     43     55   5     0.00000     0.00000     1.25520  0.0
     51     42     43     53   5     0.00000     0.00000     1.25520  0.0
     51     42     43     54   5     0.00000     0.00000     1.25520  0.0
     51     42     43     55   5     0.00000     0.00000     1.25520  0.0
     52     42     43     53   5     0.00000     0.00000     1.25520  0.0
     52     42     43     54   5     0.00000     0.00000     1.25520  0.0
     52     42     43     55   5     0.00000     0.00000     1.25520  0.0
     39     56     57     58   5     4.74884    -0.63178     1.67360  0.0
     39     56     57     64   5     0.00000     0.00000     1.25520  0.0
     39     56     57     74   5     4.74884    -0.63178     1.67360  0.0
     62     56     57     58   5     0.00000     0.00000     1.25520  0.0
     62     56     57     64   5     0.00000     0.00000     1.25520  0.0
     62     56     57     74   5     0.00000     0.00000     1.25520  0.0
     63     56     57     58   5     0.00000     0.00000     1.25520  0.0
     63     56     57     64   5     0.00000     0.00000     1.25520  0.0
     63     56     57     74   5     0.00000     0.00000     1.25520  0.0
     56     57     58     59   5     4.74884    -0.63178     1.67360  0.0
     56     57     58     65   5     0.00000     0.00000     1.25520  0.0
     56     57     58     66   5     0.00000     0.00000     1.25520  0.0
     64     57     58     59   5     0.00000     0.00000     1.25520  0.0
     64     57     58     65   5     0.00000     0.00000     1.25520  0.0
     64     57     58     66   5     0.00000     0.00000     1.25520  0.0
     74     57     58     59   5     4.74884    -0.63178     1.67360  0.0
     74     57     58     65   5     0.00000     0.00000     1.25520  0.0
     74     57     58     66   5     0.00000     0.00000     1.25520  0.0
     56     57     74     75   5     4.74884    -0.63178     1.67360  0.0
     56     57     74     80   5     0.00000     0.00000     1.25520  0.0
     56     57     74     81   5     0.00000     0.00000     1.25520  0.0
     58     57     74     75   5     4.74884    -0.63178     1.67360  0.0
     58     57     74     80   5     0.00000     0.00000     1.25520  0.0
     58     57     74     81   5     0.00000     0.00000     1.25520  0.0
     64     57     74     75   5     0.00000     0.00000     1.25520  0.0
     64     57     74     80   5     0.00000     0.00000     1.25520  0.0
     64     57     74     81   5     0.00000     0.00000     1.25520  0.0
     57     58     59     60   5     4.74884    -0.63178     1.67360  0.0
     57     58     59     67   5     0.00000     0.00000     1.25520  0.0
     57     58     59     68   5     0.00000     0.00000     1.25520  0.0
     65     58     59     60   5     0.00000     0.00000     1.25520  0.0
     65     58     59     67   5     0.00000     0.00000     1.25520  0.0
     65     58     59     68   5     0.00000     0.00000     1.25520  0.0
     66     58     59     60   5     0.00000     0.00000     1.25520  0.0
     66     58     59     67   5     0.00000     0.00000     1.25520  0.0
     66     58     59     68   5     0.00000     0.00000     1.25520  0.0
     58     59     60     61   5     4.74884    -0.63178     1.67360  0.0
     58     59     60     69   5     0.00000     0.00000     1.25520  0.0
     58     59     60     70   5     0.00000     0.00000     1.25520  0.0
     67     59     60     61   5     0.00000     0.00000     1.25520  0.0
     67     59     60     69   5     0.00000     0.00000     1.25520  0.0
     67     59     60     70   5     0.00000     0.00000     1.25520  0.0
     68     59     60     61   5     0.00000     0.00000     1.25520  0.0
     68     59     60     69   5     0.00000     0.00000     1.25520  0.0
     68     59     60     70   5     0.00000     0.00000     1.25520  0.0
     59     60     61     71   5     0.00000     0.00000     1.25520  0.0
     59     60     61     72   5     0.00000     0.00000     1.25520  0.0
     59     60     61     73   5     0.00000     0.00000     1.25520  0.0
     69     60     61     71   5     0.00000     0.00000     1.25520  0.0
     69     60     61     72   5     0.00000     0.00000     1.25520  0.0
     69     60     61     73   5     0.00000     0.00000     1.25520  0.0
     70     60     61     71   5     0.00000     0.00000     1.25520  0.0
     70     60     61     72   5     0.00000     0.00000     1.25520  0.0
     70     60     61     73   5     0.00000     0.00000     1.25520  0.0
     57     74     75     76   5     4.74884    -0.63178     1.67360  0.0
     57     74     75     82   5     0.00000     0.00000     1.25520  0.0
     57     74     75     92   5     4.74884    -0.63178     1.67360  0.0
     80     74     75     76   5     0.00000     0.00000     1.25520  0.0
     80     74     75     82   5     0.00000     0.00000     1.25520  0.0
     80     74     75     92   5     0.00000     0.00000     1.25520  0.0
     81     74     75     76   5     0.00000     0.00000     1.25520  0.0
     81     74     75     82   5     0.00000     0.00000     1.25520  0.0
     81     74     75     92   5     0.00000     0.00000     1.25520  0.0
     74     75     76     77   5     4.74884    -0.63178     1.67360  0.0
     74     75     76     83   5     0.00000     0.00000     1.25520  0.0
     74     75     76     84   5     0.00000     0.00000     1.25520  0.0
     82     75     76     77   5     0.00000     0.00000     1.25520  0.0
     82     75     76     83   5     0.00000     0.00000     1.25520  0.0
     82     75     76     84   5     0.00000     0.00000     1.25520  0.0
     92     75     76     77   5     4.74884    -0.63178     1.67360  0.0
     92     75     76     83   5     0.00000     0.00000     1.25520  0.0
     92     75     76     84   5     0.00000     0.00000     1.25520  0.0
     74     75     92     93   5     4.74884    -0.63178     1.67360  0.0
     74     75     92     98   5     0.00000     0.00000     1.25520  0.0
     74     75     92     99   5     0.00000     0.00000     1.25520  0.0
     76     75     92     93   5     4.74884    -0.63178     1.67360  0.0
     76     75     92     98   5     0.00000     0.00000     1.25520  0.0
     76     75     92     99   5     0.00000     0.00000     1.25520  0.0
     82     75     92     93   5     0.00000     0.00000     1.25520  0.0
     82     75     92     98   5     0.00000     0.00000     1.25520  0.0
     82     75     92     99   5     0.00000     0.00000     1.25520  0.0
     75     76     77     78   5     4.74884    -0.63178     1.67360  0.0
     75     76     77     85   5     0.00000     0.00000     1.25520  0.0
     75     76     77     86   5     0.00000     0.00000     1.25520  0.0
     83     76     77     78   5     0.00000     0.00000     1.25520  0.0
     83     76     77     85   5     0.00000     0.00000     1.25520  0.0
     83     76     77     86   5     0.00000     0.00000     1.25520  0.0
     84     76     77     78   5     0.00000     0.00000     1.25520  0.0
     84     76     77     85   5     0.00000     0.00000     1.25520  0.0
     84     76     77     86   5     0.00000     0.00000     1.25520  0.0
     76     77     78     79   5     4.74884    -0.63178     1.67360  0.0
     76     77     78     87   5     0.00000     0.00000     1.25520  0.0
     76     77     78     88   5     0.00000     0.00000     1.25520  0.0
     85     77     78     79   5     0.00000     0.00000     1.25520  0.0
     85     77     78     87   5     0.00000     0.00000     1.25520  0.0
     85     77     78     88   5     0.00000     0.00000     1.25520  0.0
     86     77     78     79   5     0.00000     0.00000     1.25520  0.0
     86     77     78     87   5     0.00000     0.00000     1.25520  0.0
     86     77     78     88   5     0.00000     0.00000     1.25520  0.0
     77     78     79     89   5     0.00000     0.00000     1.25520  0.0
     77     78     79     90   5     0.00000     0.00000     1.25520  0.0
     77     78     79     91   5     0.00000     0.00000     1.25520  0.0
     87     78     79     89   5     0.00000     0.00000     1.25520  0.0
     87     78     79     90   5     0.00000     0.00000     1.25520  0.0
     87     78     79     91   5     0.00000     0.00000     1.25520  0.0
     88     78     79     89   5     0.00000     0.00000     1.25520  0.0
     88     78     79     90   5     0.00000     0.00000     1.25520  0.0
     88     78     79     91   5     0.00000     0.00000     1.25520  0.0
     75     92     93     94   5     4.74884    -0.63178     1.67360  0.0
     75     92     93    100   5     0.00000     0.00000     1.25520  0.0
     75     92     93    110   5     4.74884    -0.63178     1.67360  0.0
     98     92     93     94   5     0.00000     0.00000     1.25520  0.0
     98     92     93    100   5     0.00000     0.00000     1.25520  0.0
     98     92     93    110   5     0.00000     0.00000     1.25520  0.0
     99     92     93     94   5     0.00000     0.00000     1.25520  0.0
     99     92     93    100   5     0.00000     0.00000     1.25520  0.0
     99     92     93    110   5     0.00000     0.00000     1.25520  0.0
     92     93     94     95   5     4.74884    -0.63178     1.67360  0.0
     92     93     94    101   5     0.00000     0.00000     1.25520  0.0
     92     93     94    102   5     0.00000     0.00000     1.25520  0.0
    100     93     94     95   5     0.00000     0.00000     1.25520  0.0
    100     93     94    101   5     0.00000     0.00000     1.25520  0.0
    100     93     94    102   5     0.00000     0.00000     1.25520  0.0
    110     93     94     95   5     4.74884    -0.63178     1.67360  0.0
    110     93     94    101   5     0.00000     0.00000     1.25520  0.0
    110     93     94    102   5     0.00000     0.00000     1.25520  0.0
     92     93    110    111   5     4.74884    -0.63178     1.67360  0.0
     92     93    110    116   5     0.00000     0.00000     1.25520  0.0
     92     93    110    117   5     0.00000     0.00000     1.25520  0.0
     94     93    110    111   5     4.74884    -0.63178     1.67360  0.0
     94     93    110    116   5     0.00000     0.00000     1.25520  0.0
     94     93    110    117   5     0.00000     0.00000     1.25520  0.0
    100     93    110    111   5     0.00000     0.00000     1.25520  0.0
    100     93    110    116   5     0.00000     0.00000     1.25520  0.0
    100     93    110    117   5     0.00000     0.00000     1.25520  0.0
     93     94     95     96   5     4.74884    -0.63178     1.67360  0.0
     93     94     95    103   5     0.00000     0.00000     1.25520  0.0
     93     94     95    104   5     0.00000     0.00000     1.25520  0.0
    101     94     95     96   5     0.00000     0.00000     1.25520  0.0
    101     94     95    103   5     0.00000     0.00000     1.25520  0.0
    101     94     95    104   5     0.00000     0.00000     1.25520  0.0
    102     94     95     96   5     0.00000     0.00000     1.25520  0.0
    102     94     95    103   5     0.00000     0.00000     1.25520  0.0
    102     94     95    104   5     0.00000     0.00000     1.25520  0.0
     94     95     96     97   5     4.74884    -0.63178     1.67360  0.0
     94     95     96    105   5     0.00000     0.00000     1.25520  0.0
     94     95     96    106   5     0.00000     0.00000     1.25520  0.0
    103     95     96     97   5     0.00000     0.00000     1.25520  0.0
    103     95     96    105   5     0.00000     0.00000     1.25520  0.0
    103     95     96    106   5     0.00000     0.00000     1.25520  0.0
    104     95     96     97   5     0.00000     0.00000     1.25520  0.0
    104     95     96    105   5     0.00000     0.00000     1.25520  0.0
    104     95     96    106   5     0.00000     0.00000     1.25520  0.0
     95     96     97    107   5     0.00000     0.00000     1.25520  0.0
     95     96     97    108   5     0.00000     0.00000     1.25520  0.0
     95     96     97    109   5     0.00000     0.00000     1.25520  0.0
    105     96     97    107   5     0.00000     0.00000     1.25520  0.0
    105     96     97    108   5     0.00000     0.00000     1.25520  0.0
    105     96     97    109   5     0.00000     0.00000     1.25520  0.0
    106     96     97    107   5     0.00000     0.00000     1.25520  0.0
    106     96     97    108   5     0.00000     0.00000     1.25520  0.0
    106     96     97    109   5     0.00000     0.00000     1.25520  0.0
     93    110    111    112   5     4.74884    -0.63178     1.67360  0.0
     93    110    111    118   5     0.00000     0.00000     1.25520  0.0
     93    110    111    128   5     4.74884    -0.63178     1.67360  0.0
    116    110    111    112   5     0.00000     0.00000     1.25520  0.0
    116    110    111    118   5     0.00000     0.00000     1.25520  0.0
    116    110    111    128   5     0.00000     0.00000     1.25520  0.0
    117    110    111    112   5     0.00000     0.00000     1.25520  0.0
    117    110    111    118   5     0.00000     0.00000     1.25520  0.0
    117    110    111    128   5     0.00000     0.00000     1.25520  0.0
    110    111    112    113   5     4.74884    -0.63178     1.67360  0.0
    110    111    112    119   5     0.00000     0.00000     1.25520  0.0
    110    111    112    120   5     0.00000     0.00000     1.25520  0.0
    118    111    112    113   5     0.00000     0.00000     1.25520  0.0
    118    111    112    119   5     0.00000     0.00000     1.25520  0.0
    118    111    112    120   5     0.00000     0.00000     1.25520  0.0
    128    111    112    113   5     4.74884    -0.63178     1.67360  0.0
    128    111    112    119   5     0.00000     0.00000     1.25520  0.0
    128    111    112    120   5     0.00000     0.00000     1.25520  0.0
    110    111    128    129   5     4.74884    -0.63178     1.67360  0.0
    110    111    128    134   5     0.00000     0.00000     1.25520  0.0
    110    111    128    135   5     0.00000     0.00000     1.25520  0.0
    112    111    128    129   5     4.74884    -0.63178     1.67360  0.0
    112    111    128    134   5     0.00000     0.00000     1.25520  0.0
    112    111    128    135   5     0.00000     0.00000     1.25520  0.0
    118    111    128    129   5     0.00000     0.00000     1.25520  0.0
    118    111    128    134   5     0.00000     0.00000     1.25520  0.0
    118    111    128    135   5     0.00000     0.00000     1.25520  0.0
    111    112    113    114   5     4.74884    -0.63178     1.67360  0.0
    111    112    113    121   5     0.00000     0.00000     1.25520  0.0
    111    112    113    122   5     0.00000     0.00000     1.25520  0.0
    119    112    113    114   5     0.00000     0.00000     1.25520  0.0
    119    112    113    121   5     0.00000     0.00000     1.25520  0.0
    119    112    113    122   5     0.00000     0.00000     1.25520  0.0
    120    112    113    114   5     0.00000     0.00000     1.25520  0.0
    120    112    113    121   5     0.00000     0.00000     1.25520  0.0
    120    112    113    122   5     0.00000     0.00000     1.25520  0.0
    112    113    114    115   5     4.74884    -0.63178     1.67360  0.0
    112    113    114    123   5     0.00000     0.00000     1.25520  0.0
    112    113    114    124   5     0.00000     0.00000     1.25520  0.0
    121    113    114    115   5     0.00000     0.00000     1.25520  0.0
    121    113    114    123   5     0.00000     0.00000     1.25520  0.0
    121    113    114    124   5     0.00000     0.00000     1.25520  0.0
    122    113    114    115   5     0.00000     0.00000     1.25520  0.0
    122    113    114    123   5     0.00000     0.00000     1.25520  0.0
    122    113    114    124   5     0.00000     0.00000     1.25520  0.0
    113    114    115    125   5     0.00000     0.00000     1.25520  0.0
    113    114    115    126   5     0.00000     0.00000     1.25520  0.0
    113    114    115    127   5     0.00000     0.00000     1.25520  0.0
    123    114    115    125   5     0.00000     0.00000     1.25520  0.0
    123    114    115    126   5     0.00000     0.00000     1.25520  0.0
    123    114    115    127   5     0.00000     0.00000     1.25520  0.0
    124    114    115    125   5     0.00000     0.00000     1.25520  0.0
    124    114    115    126   5     0.00000     0.00000     1.25520  0.0
    124    114    115    127   5     0.00000     0.00000     1.25520  0.0
    111    128    129    130   5     4.74884    -0.63178     1.67360  0.0
    111    128    129    136   5     0.00000     0.00000     1.25520  0.0
    111    128    129    146   5     4.74884    -0.63178     1.67360  0.0
    134    128    129    130   5     0.00000     0.00000     1.25520  0.0
    134    128    129    136   5     0.00000     0.00000     1.25520  0.0
    134    128    129    146   5     0.00000     0.00000     1.25520  0.0
    135    128    129    130   5     0.00000     0.00000     1.25520  0.0
    135    128    129    136   5     0.00000     0.00000     1.25520  0.0
    135    128    129    146   5     0.00000     0.00000     1.25520  0.0
    128    129    130    131   5     4.74884    -0.63178     1.67360  0.0
    128    129    130    137   5     0.00000     0.00000     1.25520  0.0
    128    129    130    138   5     0.00000     0.00000     1.25520  0.0
    136    129    130    131   5     0.00000     0.00000     1.25520  0.0
    136    129    130    137   5     0.00000     0.00000     1.25520  0.0
    136    129    130    138   5     0.00000     0.00000     1.25520  0.0
    146    129    130    131   5     4.74884    -0.63178     1.67360  0.0
    146    129    130    137   5     0.00000     0.00000     1.25520  0.0
    146    129    130    138   5     0.00000     0.00000     1.25520  0.0
    128    129    146    147   5     4.74884    -0.63178     1.67360  0.0
    128    129    146    152   5     0.00000     0.00000     1.25520  0.0
    128    129    146    153   5     0.00000     0.00000     1.25520  0.0
    130    129    146    147   5     4.74884    -0.63178     1.67360  0.0
    130    129    146    152   5     0.00000     0.00000     1.25520  0.0
    130    129    146    153   5     0.00000     0.00000     1.25520  0.0
    136    129    146    147   5     0.00000     0.00000     1.25520  0.0
    136    129    146    152   5     0.00000     0.00000     1.25520  0.0
    136    129    146    153   5     0.00000     0.00000     1.25520  0.0
    129    130    131    132   5     4.74884    -0.63178     1.67360  0.0
    129    130    131    139   5     0.00000     0.00000     1.25520  0.0
    129    130    131    140   5     0.00000     0.00000     1.25520  0.0
    137    130    131    132   5     0.00000     0.00000     1.25520  0.0
    137    130    131    139   5     0.00000     0.00000     1.25520  0.0
    137    130    131    140   5     0.00000     0.00000     1.25520  0.0
    138    130    131    132   5     0.00000     0.00000     1.25520  0.0
    138    130    131    139   5     0.00000     0.00000     1.25520  0.0
    138    130    131    140   5     0.00000     0.00000     1.25520  0.0
    130    131    132    133   5     4.74884    -0.63178     1.67360  0.0
    130    131    132    141   5     0.00000     0.00000     1.25520  0.0
    130    131    132    142   5     0.00000     0.00000     1.25520  0.0
    139    131    132    133   5     0.00000     0.00000     1.25520  0.0
    139    131    132    141   5     0.00000     0.00000     1.25520  0.0
    139    131    132    142   5     0.00000     0.00000     1.25520  0.0
    140    131    132    133   5     0.00000     0.00000     1.25520  0.0
    140    131    132    141   5     0.00000     0.00000     1.25520  0.0
    140    131    132    142   5     0.00000     0.00000     1.25520  0.0
    131    132    133    143   5     0.00000     0.00000     1.25520  0.0
    131    132    133    144   5     0.00000     0.00000     1.25520  0.0
    131    132    133    145   5     0.00000     0.00000     1.25520  0.0
    141    132    133    143   5     0.00000     0.00000     1.25520  0.0
    141    132    133    144   5     0.00000     0.00000     1.25520  0.0
    141    132    133    145   5     0.00000     0.00000     1.25520  0.0
    142    132    133    143   5     0.00000     0.00000     1.25520  0.0
    142    132    133    144   5     0.00000     0.00000     1.25520  0.0
    142    132    133    145   5     0.00000     0.00000     1.25520  0.0
    129    146    147    148   5     4.74884    -0.63178     1.67360  0.0
    129    146    147    154   5     0.00000     0.00000     1.25520  0.0
    129    146    147    164   5     4.74884    -0.63178     1.67360  0.0
    152    146    147    148   5     0.00000     0.00000     1.25520  0.0
    152    146    147    154   5     0.00000     0.00000     1.25520  0.0
    152    146    147    164   5     0.00000     0.00000     1.25520  0.0
    153    146    147    148   5     0.00000     0.00000     1.25520  0.0
    153    146    147    154   5     0.00000     0.00000     1.25520  0.0
    153    146    147    164   5     0.00000     0.00000     1.25520  0.0
    146    147    148    149   5     4.74884    -0.63178     1.67360  0.0
    146    147    148    155   5     0.00000     0.00000     1.25520  0.0
    146    147    148    156   5     0.00000     0.00000     1.25520  0.0
    154    147    148    149   5     0.00000     0.00000     1.25520  0.0
    154    147    148    155   5     0.00000     0.00000     1.25520  0.0
    154    147    148    156   5     0.00000     0.00000     1.25520  0.0
    164    147    148    149   5     4.74884    -0.63178     1.67360  0.0
    164    147    148    155   5     0.00000     0.00000     1.25520  0.0
    164    147    148    156   5     0.00000     0.00000     1.25520  0.0
    146    147    164    165   5     4.74884    -0.63178     1.67360  0.0
    146    147    164    170   5     0.00000     0.00000     1.25520  0.0
    146    147    164    171   5     0.00000     0.00000     1.25520  0.0
    148    147    164    165   5     4.74884    -0.63178     1.67360  0.0
    148    147    164    170   5     0.00000     0.00000     1.25520  0.0
    148    147    164    171   5     0.00000     0.00000     1.25520  0.0
    154    147    164    165   5     0.00000     0.00000     1.25520  0.0
    154    147    164    170   5     0.00000     0.00000     1.25520  0.0
    154    147    164    171   5     0.00000     0.00000     1.25520  0.0
    147    148    149    150   5     4.74884    -0.63178     1.67360  0.0
    147    148    149    157   5     0.00000     0.00000     1.25520  0.0
    147    148    149    158   5     0.00000     0.00000     1.25520  0.0
    155    148    149    150   5     0.00000     0.00000     1.25520  0.0
    155    148    149    157   5     0.00000     0.00000     1.25520  0.0
    155    148    149    158   5     0.00000     0.00000     1.25520  0.0
    156    148    149    150   5     0.00000     0.00000     1.25520  0.0
    156    148    149    157   5     0.00000     0.00000     1.25520  0.0
    156    148    149    158   5     0.00000     0.00000     1.25520  0.0
    148    149    150    151   5     4.74884    -0.63178     1.67360  0.0
    148    149    150    159   5     0.00000     0.00000     1.25520  0.0
    148    149    150    160   5     0.00000     0.00000     1.25520  0.0
    157    149    150    151   5     0.00000     0.00000     1.25520  0.0
    157    149    150    159   5     0.00000     0.00000     1.25520  0.0
    157    149    150    160   5     0.00000     0.00000     1.25520  0.0
    158    149    150    151   5     0.00000     0.00000     1.25520  0.0
    158    149    150    159   5     0.00000     0.00000     1.25520  0.0
    158    149    150    160   5     0.00000     0.00000     1.25520  0.0
    149    150    151    161   5     0.00000     0.00000     1.25520  0.0
    149    150    151    162   5     0.00000     0.00000     1.25520  0.0
    149    150    151    163   5     0.00000     0.00000     1.25520  0.0
    159    150    151    161   5     0.00000     0.00000     1.25520  0.0
    159    150    151    162   5     0.00000     0.00000     1.25520  0.0
    159    150    151    163   5     0.00000     0.00000     1.25520  0.0
    160    150    151    161   5     0.00000     0.00000     1.25520  0.0
    160    150    151    162   5     0.00000     0.00000     1.25520  0.0
    160    150    151    163   5     0.00000     0.00000     1.25520  0.0
    147    164    165    166   5     4.74884    -0.63178     1.67360  0.0
    147    164    165    172   5     0.00000     0.00000     1.25520  0.0
    147    164    165    182   5     4.74884    -0.63178     1.67360  0.0
    170    164    165    166   5     0.00000     0.00000     1.25520  0.0
    170    164    165    172   5     0.00000     0.00000     1.25520  0.0
    170    164    165    182   5     0.00000     0.00000     1.25520  0.0
    171    164    165    166   5     0.00000     0.00000     1.25520  0.0
    171    164    165    172   5     0.00000     0.00000     1.25520  0.0
    171    164    165    182   5     0.00000     0.00000     1.25520  0.0
    164    165    166    167   5     4.74884    -0.63178     1.67360  0.0
    164    165    166    173   5     0.00000     0.00000     1.25520  0.0
    164    165    166    174   5     0.00000     0.00000     1.25520  0.0
    172    165    166    167   5     0.00000     0.00000     1.25520  0.0
    172    165    166    173   5     0.00000     0.00000     1.25520  0.0
    172    165    166    174   5     0.00000     0.00000     1.25520  0.0
    182    165    166    167   5     4.74884    -0.63178     1.67360  0.0
    182    165    166    173   5     0.00000     0.00000     1.25520  0.0
    182    165    166    174   5     0.00000     0.00000     1.25520  0.0
    164    165    182    183   5     4.74884    -0.63178     1.67360  0.0
    164    165    182    188   5     0.00000     0.00000     1.25520  0.0
    164    165    182    189   5     0.00000     0.00000     1.25520  0.0
    166    165    182    183   5     4.74884    -0.63178     1.67360  0.0
    166    165    182    188   5     0.00000     0.00000     1.25520  0.0
    166    165    182    189   5     0.00000     0.00000     1.25520  0.0
    172    165    182    183   5     0.00000     0.00000     1.25520  0.0
    172    165    182    188   5     0.00000     0.00000     1.25520  0.0
    172    165    182    189   5     0.00000     0.00000     1.25520  0.0
    165    166    167    168   5     4.74884    -0.63178     1.67360  0.0
    165    166    167    175   5     0.00000     0.00000     1.25520  0.0
    165    166    167    176   5     0.00000     0.00000     1.25520  0.0
    173    166    167    168   5     0.00000     0.00000     1.25520  0.0
    173    166    167    175   5     0.00000     0.00000     1.25520  0.0
    173    166    167    176   5     0.00000     0.00000     1.25520  0.0
    174    166    167    168   5     0.00000     0.00000     1.25520  0.0
    174    166    167    175   5     0.00000     0.00000     1.25520  0.0
    174    166    167    176   5     0.00000     0.00000     1.25520  0.0
    166    167    168    169   5     4.74884    -0.63178     1.67360  0.0
    166    167    168    177   5     0.00000     0.00000     1.25520  0.0
    166    167    168    178   5     0.00000     0.00000     1.25520  0.0
    175    167    168    169   5     0.00000     0.00000     1.25520  0.0
    175    167    168    177   5     0.00000     0.00000     1.25520  0.0
    175    167    168    178   5     0.00000     0.00000     1.25520  0.0
    176    167    168    169   5     0.00000     0.00000     1.25520  0.0
    176    167    168    177   5     0.00000     0.00000     1.25520  0.0
    176    167    168    178   5     0.00000     0.00000     1.25520  0.0
    167    168    169    179   5     0.00000     0.00000     1.25520  0.0
    167    168    169    180   5     0.00000     0.00000     1.25520  0.0
    167    168    169    181   5     0.00000     0.00000     1.25520  0.0
    177    168    169    179   5     0.00000     0.00000     1.25520  0.0
    177    168    169    180   5     0.00000     0.00000     1.25520  0.0
    177    168    169    181   5     0.00000     0.00000     1.25520  0.0
    178    168    169    179   5     0.00000     0.00000     1.25520  0.0
    178    168    169    180   5     0.00000     0.00000     1.25520  0.0
    178    168    169    181   5     0.00000     0.00000     1.25520  0.0
    165    182    183    184   5     4.74884    -0.63178     1.67360  0.0
    165    182    183    190   5     0.00000     0.00000     1.25520  0.0
    165    182    183    200   5     4.74884    -0.63178     1.67360  0.0
    188    182    183    184   5     0.00000     0.00000     1.25520  0.0
    188    182    183    190   5     0.00000     0.00000     1.25520  0.0
    188    182    183    200   5     0.00000     0.00000     1.25520  0.0
    189    182    183    184   5     0.00000     0.00000     1.25520  0.0
    189    182    183    190   5     0.00000     0.00000     1.25520  0.0
    189    182    183    200   5     0.00000     0.00000     1.25520  0.0
    182    183    184    185   5     4.74884    -0.63178     1.67360  0.0
    182    183    184    191   5     0.00000     0.00000     1.25520  0.0
    182    183    184    192   5     0.00000     0.00000     1.25520  0.0
    190    183    184    185   5     0.00000     0.00000     1.25520  0.0
    190    183    184    191   5     0.00000     0.00000     1.25520  0.0
    190    183    184    192   5     0.00000     0.00000     1.25520  0.0
    200    183    184    185   5     4.74884    -0.63178     1.67360  0.0
    200    183    184    191   5     0.00000     0.00000     1.25520  0.0
    200    183    184    192   5     0.00000     0.00000     1.25520  0.0
    182    183    200    201   5     4.74884    -0.63178     1.67360  0.0
    182    183    200    206   5     0.00000     0.00000     1.25520  0.0
    182    183    200    207   5     0.00000     0.00000     1.25520  0.0
    184    183    200    201   5     4.74884    -0.63178     1.67360  0.0
    184    183    200    206   5     0.00000     0.00000     1.25520  0.0
    184    183    200    207   5     0.00000     0.00000     1.25520  0.0
    190    183    200    201   5     0.00000     0.00000     1.25520  0.0
    190    183    200    206   5     0.00000     0.00000     1.25520  0.0
    190    183    200    207   5     0.00000     0.00000     1.25520  0.0
    183    184    185    186   5     4.74884    -0.63178     1.67360  0.0
    183    184    185    193   5     0.00000     0.00000     1.25520  0.0
    183    184    185    194   5     0.00000     0.00000     1.25520  0.0
    191    184    185    186   5     0.00000     0.00000     1.25520  0.0
    191    184    185    193   5     0.00000     0.00000     1.25520  0.0
    191    184    185    194   5     0.00000     0.00000     1.25520  0.0
    192    184    185    186   5     0.00000     0.00000     1.25520  0.0
    192    184    185    193   5     0.00000     0.00000     1.25520  0.0
    192    184    185    194   5     0.00000     0.00000     1.25520  0.0
    184    185    186    187   5     4.74884    -0.63178     1.67360  0.0
    184    185    186    195   5     0.00000     0.00000     1.25520  0.0
    184    185    186    196   5     0.00000     0.00000     1.25520  0.0
    193    185    186    187   5     0.00000     0.00000     1.25520  0.0
    193    185    186    195   5     0.00000     0.00000     1.25520  0.0
    193    185    186    196   5     0.00000     0.00000     1.25520  0.0
    194    185    186    187   5     0.00000     0.00000     1.25520  0.0
    194    185    186    195   5     0.00000     0.00000     1.25520  0.0
    194    185    186    196   5     0.00000     0.00000     1.25520  0.0
    185    186    187    197   5     0.00000     0.00000     1.25520  0.0
    185    186    187    198   5     0.00000     0.00000     1.25520  0.0
    185    186    187    199   5     0.00000     0.00000     1.25520  0.0
    195    186    187    197   5     0.00000     0.00000     1.25520  0.0
    195    186    187    198   5     0.00000     0.00000     1.25520  0.0
    195    186    187    199   5     0.00000     0.00000     1.25520  0.0
    196    186    187    197   5     0.00000     0.00000     1.25520  0.0
    196    186    187    198   5     0.00000     0.00000     1.25520  0.0
    196    186    187    199   5     0.00000     0.00000     1.25520  0.0
    183    200    201    202   5     4.74884    -0.63178     1.67360  0.0
    183    200    201    208   5     0.00000     0.00000     1.25520  0.0
    183    200    201    218   5     4.74884    -0.63178     1.67360  0.0
    206    200    201    202   5     0.00000     0.00000     1.25520  0.0
    206    200    201    208   5     0.00000     0.00000     1.25520  0.0
    206    200    201    218   5     0.00000     0.00000     1.25520  0.0
    207    200    201    202   5     0.00000     0.00000     1.25520  0.0
    207    200    201    208   5     0.00000     0.00000     1.25520  0.0
    207    200    201    218   5     0.00000     0.00000     1.25520  0.0
    200    201    202    203   5     4.74884    -0.63178     1.67360  0.0
    200    201    202    209   5     0.00000     0.00000     1.25520  0.0
    200    201    202    210   5     0.00000     0.00000     1.25520  0.0
    208    201    202    203   5     0.00000     0.00000     1.25520  0.0
    208    201    202    209   5     0.00000     0.00000     1.25520  0.0
    208    201    202    210   5     0.00000     0.00000     1.25520  0.0
    218    201    202    203   5     4.74884    -0.63178     1.67360  0.0
    218    201    202    209   5     0.00000     0.00000     1.25520  0.0
    218    201    202    210   5     0.00000     0.00000     1.25520  0.0
    200    201    218    219   5     4.74884    -0.63178     1.67360  0.0
    200    201    218    224   5     0.00000     0.00000     1.25520  0.0
    200    201    218    225   5     0.00000     0.00000     1.25520  0.0
    202    201    218    219   5     4.74884    -0.63178     1.67360  0.0
    202    201    218    224   5     0.00000     0.00000     1.25520  0.0
    202    201    218    225   5     0.00000     0.00000     1.25520  0.0
    208    201    218    219   5     0.00000     0.00000     1.25520  0.0
    208    201    218    224   5     0.00000     0.00000     1.25520  0.0
    208    201    218    225   5     0.00000     0.00000     1.25520  0.0
    201    202    203    204   5     4.74884    -0.63178     1.67360  0.0
    201    202    203    211   5     0.00000     0.00000     1.25520  0.0
    201    202    203    212   5     0.00000     0.00000     1.25520  0.0
    209    202    203    204   5     0.00000     0.00000     1.25520  0.0
    209    202    203    211   5     0.00000     0.00000     1.25520  0.0
    209    202    203    212   5     0.00000     0.00000     1.25520  0.0
    210    202    203    204   5     0.00000     0.00000     1.25520  0.0
    210    202    203    211   5     0.00000     0.00000     1.25520  0.0
    210    202    203    212   5     0.00000     0.00000     1.25520  0.0
    202    203    204    205   5     4.74884    -0.63178     1.67360  0.0
    202    203    204    213   5     0.00000     0.00000     1.25520  0.0
    202    203    204    214   5     0.00000     0.00000     1.25520  0.0
    211    203    204    205   5     0.00000     0.00000     1.25520  0.0
    211    203    204    213   5     0.00000     0.00000     1.25520  0.0
    211    203    204    214   5     0.00000     0.00000     1.25520  0.0
    212    203    204    205   5     0.00000     0.00000     1.25520  0.0
    212    203    204    213   5     0.00000     0.00000     1.25520  0.0
    212    203    204    214   5     0.00000     0.00000     1.25520  0.0
    203    204    205    215   5     0.00000     0.00000     1.25520  0.0
    203    204    205    216   5     0.00000     0.00000     1.25520  0.0
    203    204    205    217   5     0.00000     0.00000     1.25520  0.0
    213    204    205    215   5     0.00000     0.00000     1.25520  0.0
    213    204    205    216   5     0.00000     0.00000     1.25520  0.0
    213    204    205    217   5     0.00000     0.00000     1.25520  0.0
    214    204    205    215   5     0.00000     0.00000     1.25520  0.0
    214    204    205    216   5     0.00000     0.00000     1.25520  0.0
    214    204    205    217   5     0.00000     0.00000     1.25520  0.0
    201    218    219    220   5     4.74884    -0.63178     1.67360  0.0
    201    218    219    226   5     0.00000     0.00000     1.25520  0.0
    201    218    219    236   5     4.74884    -0.63178     1.67360  0.0
    224    218    219    220   5     0.00000     0.00000     1.25520  0.0
    224    218    219    226   5     0.00000     0.00000     1.25520  0.0
    224    218    219    236   5     0.00000     0.00000     1.25520  0.0
    225    218    219    220   5     0.00000     0.00000     1.25520  0.0
    225    218    219    226   5     0.00000     0.00000     1.25520  0.0
    225    218    219    236   5     0.00000     0.00000     1.25520  0.0
    218    219    220    221   5     4.74884    -0.63178     1.67360  0.0
    218    219    220    227   5     0.00000     0.00000     1.25520  0.0
    218    219    220    228   5     0.00000     0.00000     1.25520  0.0
    226    219    220    221   5     0.00000     0.00000     1.25520  0.0
    226    219    220    227   5     0.00000     0.00000     1.25520  0.0
    226    219    220    228   5     0.00000     0.00000     1.25520  0.0
    236    219    220    221   5     4.74884    -0.63178     1.67360  0.0
    236    219    220    227   5     0.00000     0.00000     1.25520  0.0
    236    219    220    228   5     0.00000     0.00000     1.25520  0.0
    218    219    236    237   5     4.74884    -0.63178     1.67360  0.0
    218    219    236    242   5     0.00000     0.00000     1.25520  0.0
    218    219    236    243   5     0.00000     0.00000     1.25520  0.0
    220    219    236    237   5     4.74884    -0.63178     1.67360  0.0
    220    219    236    242   5     0.00000     0.00000     1.25520  0.0
    220    219    236    243   5     0.00000     0.00000     1.25520  0.0
    226    219    236    237   5     0.00000     0.00000     1.25520  0.0
    226    219    236    242   5     0.00000     0.00000     1.25520  0.0
    226    219    236    243   5     0.00000     0.00000     1.25520  0.0
    219    220    221    222   5     4.74884    -0.63178     1.67360  0.0
    219    220    221    229   5     0.00000     0.00000     1.25520  0.0
    219    220    221    230   5     0.00000     0.00000     1.25520  0.0
    227    220    221    222   5     0.00000     0.00000     1.25520  0.0
    227    220    221    229   5     0.00000     0.00000     1.25520  0.0
    227    220    221    230   5     0.00000     0.00000     1.25520  0.0
    228    220    221    222   5     0.00000     0.00000     1.25520  0.0
    228    220    221    229   5     0.00000     0.00000     1.25520  0.0
    228    220    221    230   5     0.00000     0.00000     1.25520  0.0
    220    221    222    223   5     4.74884    -0.63178     1.67360  0.0
    220    221    222    231   5     0.00000     0.00000     1.25520  0.0
    220    221    222    232   5     0.00000     0.00000     1.25520  0.0
    229    221    222    223   5     0.00000     0.00000     1.25520  0.0
    229    221    222    231   5     0.00000     0.00000     1.25520  0.0
    229    221    222    232   5     0.00000     0.00000     1.25520  0.0
    230    221    222    223   5     0.00000     0.00000     1.25520  0.0
    230    221    222    231   5     0.00000     0.00000     1.25520  0.0
    230    221    222    232   5     0.00000     0.00000     1.25520  0.0
    221    222    223    233   5     0.00000     0.00000     1.25520  0.0
    221    222    223    234   5     0.00000     0.00000     1.25520  0.0
    221    222    223    235   5     0.00000     0.00000     1.25520  0.0
    231    222    223    233   5     0.00000     0.00000     1.25520  0.0
    231    222    223    234   5     0.00000     0.00000     1.25520  0.0
    231    222    223    235   5     0.00000     0.00000     1.25520  0.0
    232    222    223    233   5     0.00000     0.00000     1.25520  0.0
    232    222    223    234   5     0.00000     0.00000     1.25520  0.0
    232    222    223    235   5     0.00000     0.00000     1.25520  0.0
    219    236    237    238   5     4.74884    -0.63178     1.67360  0.0
    219    236    237    244   5     0.00000     0.00000     1.25520  0.0
    219    236    237    254   5     4.74884    -0.63178     1.67360  0.0
    242    236    237    238   5     0.00000     0.00000     1.25520  0.0
    242    236    237    244   5     0.00000     0.00000     1.25520  0.0
    242    236    237    254   5     0.00000     0.00000     1.25520  0.0
    243    236    237    238   5     0.00000     0.00000     1.25520  0.0
    243    236    237    244   5     0.00000     0.00000     1.25520  0.0
    243    236    237    254   5     0.00000     0.00000     1.25520  0.0
    236    237    238    239   5     4.74884    -0.63178     1.67360  0.0
    236    237    238    245   5     0.00000     0.00000     1.25520  0.0
    236    237    238    246   5     0.00000     0.00000     1.25520  0.0
    244    237    238    239   5     0.00000     0.00000     1.25520  0.0
    244    237    238    245   5     0.00000     0.00000     1.25520  0.0
    244    237    238    246   5     0.00000     0.00000     1.25520  0.0
    254    237    238    239   5     4.74884    -0.63178     1.67360  0.0
    254    237    238    245   5     0.00000     0.00000     1.25520  0.0
    254    237    238    246   5     0.00000     0.00000     1.25520  0.0
    236    237    254    255   5     4.74884    -0.63178     1.67360  0.0
    236    237    254    260   5     0.00000     0.00000     1.25520  0.0
    236    237    254    261   5     0.00000     0.00000     1.25520  0.0
    238    237    254    255   5     4.74884    -0.63178     1.67360  0.0
    238    237    254    260   5     0.00000     0.00000     1.25520  0.0
    238    237    254    261   5     0.00000     0.00000     1.25520  0.0
    244    237    254    255   5     0.00000     0.00000     1.25520  0.0
    244    237    254    260   5     0.00000     0.00000     1.25520  0.0
    244    237    254    261   5     0.00000     0.00000     1.25520  0.0
    237    238    239    240   5     4.74884    -0.63178     1.67360  0.0
    237    238    239    247   5     0.00000     0.00000     1.25520  0.0
    237    238    239    248   5     0.00000     0.00000     1.25520  0.0
    245    238    239    240   5     0.00000     0.00000     1.25520  0.0
    245    238    239    247   5     0.00000     0.00000     1.25520  0.0
    245    238    239    248   5     0.00000     0.00000     1.25520  0.0
    246    238    239    240   5     0.00000     0.00000     1.25520  0.0
    246    238    239    247   5     0.00000     0.00000     1.25520  0.0
    246    238    239    248   5     0.00000     0.00000     1.25520  0.0
    238    239    240    241   5     4.74884    -0.63178     1.67360  0.0
    238    239    240    249   5     0.00000     0.00000     1.25520  0.0
    238    239    240    250   5     0.00000     0.00000     1.25520  0.0
    247    239    240    241   5     0.00000     0.00000     1.25520  0.0
    247    239    240    249   5     0.00000     0.00000     1.25520  0.0
    247    239    240    250   5     0.00000     0.00000     1.25520  0.0
    248    239    240    241   5     0.00000     0.00000     1.25520  0.0
    248    239    240    249   5     0.00000     0.00000     1.25520  0.0
    248    239    240    250   5     0.00000     0.00000     1.25520  0.0
    239    240    241    251   5     0.00000     0.00000     1.25520  0.0
    239    240    241    252   5     0.00000     0.00000     1.25520  0.0
    239    240    241    253   5     0.00000     0.00000     1.25520  0.0
    249    240    241    251   5     0.00000     0.00000     1.25520  0.0
    249    240    241    252   5     0.00000     0.00000     1.25520  0.0
    249    240    241    253   5     0.00000     0.00000     1.25520  0.0
    250    240    241    251   5     0.00000     0.00000     1.25520  0.0
    250    240    241    252   5     0.00000     0.00000     1.25520  0.0
    250    240    241    253   5     0.00000     0.00000     1.25520  0.0
    237    254    255    256   5     4.74884    -0.63178     1.67360  0.0
    237    254    255    262   5     0.00000     0.00000     1.25520  0.0
    237    254    255    272   5     4.74884    -0.63178     1.67360  0.0
    260    254    255    256   5     0.00000     0.00000     1.25520  0.0
    260    254    255    262   5     0.00000     0.00000     1.25520  0.0
    260    254    255    272   5     0.00000     0.00000     1.25520  0.0
    261    254    255    256   5     0.00000     0.00000     1.25520  0.0
    261    254    255    262   5     0.00000     0.00000     1.25520  0.0
    261    254    255    272   5     0.00000     0.00000     1.25520  0.0
    254    255    256    257   5     4.74884    -0.63178     1.67360  0.0
    254    255    256    263   5     0.00000     0.00000     1.25520  0.0
    254    255    256    264   5     0.00000     0.00000     1.25520  0.0
    262    255    256    257   5     0.00000     0.00000     1.25520  0.0
    262    255    256    263   5     0.00000     0.00000     1.25520  0.0
    262    255    256    264   5     0.00000     0.00000     1.25520  0.0
    272    255    256    257   5     4.74884    -0.63178     1.67360  0.0
    272    255    256    263   5     0.00000     0.00000     1.25520  0.0
    272    255    256    264   5     0.00000     0.00000     1.25520  0.0
    254    255    272    273   5     4.74884    -0.63178     1.67360  0.0
    254    255    272    278   5     0.00000     0.00000     1.25520  0.0
    254    255    272    279   5     0.00000     0.00000     1.25520  0.0
    256    255    272    273   5     4.74884    -0.63178     1.67360  0.0
    256    255    272    278   5     0.00000     0.00000     1.25520  0.0
    256    255    272    279   5     0.00000     0.00000     1.25520  0.0
    262    255    272    273   5     0.00000     0.00000     1.25520  0.0
    262    255    272    278   5     0.00000     0.00000     1.25520  0.0
    262    255    272    279   5     0.00000     0.00000     1.25520  0.0
    255    256    257    258   5     4.74884    -0.63178     1.67360  0.0
    255    256    257    265   5     0.00000     0.00000     1.25520  0.0
    255    256    257    266   5     0.00000     0.00000     1.25520  0.0
    263    256    257    258   5     0.00000     0.00000     1.25520  0.0
    263    256    257    265   5     0.00000     0.00000     1.25520  0.0
    263    256    257    266   5     0.00000     0.00000     1.25520  0.0
    264    256    257    258   5     0.00000     0.00000     1.25520  0.0
    264    256    257    265   5     0.00000     0.00000     1.25520  0.0
    264    256    257    266   5     0.00000     0.00000     1.25520  0.0
    256    257    258    259   5     4.74884    -0.63178     1.67360  0.0
    256    257    258    267   5     0.00000     0.00000     1.25520  0.0
    256    257    258    268   5     0.00000     0.00000     1.25520  0.0
    265    257    258    259   5     0.00000     0.00000     1.25520  0.0
    265    257    258    267   5     0.00000     0.00000     1.25520  0.0
    265    257    258    268   5     0.00000     0.00000     1.25520  0.0
    266    257    258    259   5     0.00000     0.00000     1.25520  0.0
    266    257    258    267   5     0.00000     0.00000     1.25520  0.0
    266    257    258    268   5     0.00000     0.00000     1.25520  0.0
    257    258    259    269   5     0.00000     0.00000     1.25520  0.0
    257    258    259    270   5     0.00000     0.00000     1.25520  0.0
    257    258    259    271   5     0.00000     0.00000     1.25520  0.0
    267    258    259    269   5     0.00000     0.00000     1.25520  0.0
    267    258    259    270   5     0.00000     0.00000     1.25520  0.0
    267    258    259    271   5     0.00000     0.00000     1.25520  0.0
    268    258    259    269   5     0.00000     0.00000     1.25520  0.0
    268    258    259    270   5     0.00000     0.00000     1.25520  0.0
    268    258    259    271   5     0.00000     0.00000     1.25520  0.0
    255    272    273    274   5     4.74884    -0.63178     1.67360  0.0
    255    272    273    280   5     0.00000     0.00000     1.25520  0.0
    255    272    273    290   5     4.74884    -0.63178     1.67360  0.0
    278    272    273    274   5     0.00000     0.00000     1.25520  0.0
    278    272    273    280   5     0.00000     0.00000     1.25520  0.0
    278    272    273    290   5     0.00000     0.00000     1.25520  0.0
    279    272    273    274   5     0.00000     0.00000     1.25520  0.0
    279    272    273    280   5     0.00000     0.00000     1.25520  0.0
    279    272    273    290   5     0.00000     0.00000     1.25520  0.0
    272    273    274    275   5     4.74884    -0.63178     1.67360  0.0
    272    273    274    281   5     0.00000     0.00000     1.25520  0.0
    272    273    274    282   5     0.00000     0.00000     1.25520  0.0
    280    273    274    275   5     0.00000     0.00000     1.25520  0.0
    280    273    274    281   5     0.00000     0.00000     1.25520  0.0
    280    273    274    282   5     0.00000     0.00000     1.25520  0.0
    290    273    274    275   5     4.74884    -0.63178     1.67360  0.0
    290    273    274    281   5     0.00000     0.00000     1.25520  0.0
    290    273    274    282   5     0.00000     0.00000     1.25520  0.0
    272    273    290    291   5     4.74884    -0.63178     1.67360  0.0
    272    273    290    296   5     0.00000     0.00000     1.25520  0.0
    272    273    290    297   5     0.00000     0.00000     1.25520  0.0
    274    273    290    291   5     4.74884    -0.63178     1.67360  0.0
    274    273    290    296   5     0.00000     0.00000     1.25520  0.0
    274    273    290    297   5     0.00000     0.00000     1.25520  0.0
    280    273    290    291   5     0.00000     0.00000     1.25520  0.0
    280    273    290    296   5     0.00000     0.00000     1.25520  0.0
    280    273    290    297   5     0.00000     0.00000     1.25520  0.0
    273    274    275    276   5     4.74884    -0.63178     1.67360  0.0
    273    274    275    283   5     0.00000     0.00000     1.25520  0.0
    273    274    275    284   5     0.00000     0.00000     1.25520  0.0
    281    274    275    276   5     0.00000     0.00000     1.25520  0.0
    281    274    275    283   5     0.00000     0.00000     1.25520  0.0
    281    274    275    284   5     0.00000     0.00000     1.25520  0.0
    282    274    275    276   5     0.00000     0.00000     1.25520  0.0
    282    274    275    283   5     0.00000     0.00000     1.25520  0.0
    282    274    275    284   5     0.00000     0.00000     1.25520  0.0
    274    275    276    277   5     4.74884    -0.63178     1.67360  0.0
    274    275    276    285   5     0.00000     0.00000     1.25520  0.0
    274    275    276    286   5     0.00000     0.00000     1.25520  0.0
    283    275    276    277   5     0.00000     0.00000     1.25520  0.0
    283    275    276    285   5     0.00000     0.00000     1.25520  0.0
    283    275    276    286   5     0.00000     0.00000     1.25520  0.0
    284    275    276    277   5     0.00000     0.00000     1.25520  0.0
    284    275    276    285   5     0.00000     0.00000     1.25520  0.0
    284    275    276    286   5     0.00000     0.00000     1.25520  0.0
    275    276    277    287   5     0.00000     0.00000     1.25520  0.0
    275    276    277    288   5     0.00000     0.00000     1.25520  0.0
    275    276    277    289   5     0.00000     0.00000     1.25520  0.0
    285    276    277    287   5     0.00000     0.00000     1.25520  0.0
    285    276    277    288   5     0.00000     0.00000     1.25520  0.0
    285    276    277    289   5     0.00000     0.00000     1.25520  0.0
    286    276    277    287   5     0.00000     0.00000     1.25520  0.0
    286    276    277    288   5     0.00000     0.00000     1.25520  0.0
    286    276    277    289   5     0.00000     0.00000     1.25520  0.0
    273    290    291    292   5     4.74884    -0.63178     1.67360  0.0
    273    290    291    298   5     0.00000     0.00000     1.25520  0.0
    273    290    291    308   5     4.74884    -0.63178     1.67360  0.0
    296    290    291    292   5     0.00000     0.00000     1.25520  0.0
    296    290    291    298   5     0.00000     0.00000     1.25520  0.0
    296    290    291    308   5     0.00000     0.00000     1.25520  0.0
    297    290    291    292   5     0.00000     0.00000     1.25520  0.0
    297    290    291    298   5     0.00000     0.00000     1.25520  0.0
    297    290    291    308   5     0.00000     0.00000     1.25520  0.0
    290    291    292    293   5     4.74884    -0.63178     1.67360  0.0
    290    291    292    299   5     0.00000     0.00000     1.25520  0.0
    290    291    292    300   5     0.00000     0.00000     1.25520  0.0
    298    291    292    293   5     0.00000     0.00000     1.25520  0.0
    298    291    292    299   5     0.00000     0.00000     1.25520  0.0
    298    291    292    300   5     0.00000     0.00000     1.25520  0.0
    308    291    292    293   5     4.74884    -0.63178     1.67360  0.0
    308    291    292    299   5     0.00000     0.00000     1.25520  0.0
    308    291    292    300   5     0.00000     0.00000     1.25520  0.0
    290    291    308    309   5     4.74884    -0.63178     1.67360  0.0
    290    291    308    314   5     0.00000     0.00000     1.25520  0.0
    290    291    308    315   5     0.00000     0.00000     1.25520  0.0
    292    291    308    309   5     4.74884    -0.63178     1.67360  0.0
    292    291    308    314   5     0.00000     0.00000     1.25520  0.0
    292    291    308    315   5     0.00000     0.00000     1.25520  0.0
    298    291    308    309   5     0.00000     0.00000     1.25520  0.0
    298    291    308    314   5     0.00000     0.00000     1.25520  0.0
    298    291    308    315   5     0.00000     0.00000     1.25520  0.0
    291    292    293    294   5     4.74884    -0.63178     1.67360  0.0
    291    292    293    301   5     0.00000     0.00000     1.25520  0.0
    291    292    293    302   5     0.00000     0.00000     1.25520  0.0
    299    292    293    294   5     0.00000     0.00000     1.25520  0.0
    299    292    293    301   5     0.00000     0.00000     1.25520  0.0
    299    292    293    302   5     0.00000     0.00000     1.25520  0.0
    300    292    293    294   5     0.00000     0.00000     1.25520  0.0
    300    292    293    301   5     0.00000     0.00000     1.25520  0.0
    300    292    293    302   5     0.00000     0.00000     1.25520  0.0
    292    293    294    295   5     4.74884    -0.63178     1.67360  0.0
    292    293    294    303   5     0.00000     0.00000     1.25520  0.0
    292    293    294    304   5     0.00000     0.00000     1.25520  0.0
    301    293    294    295   5     0.00000     0.00000     1.25520  0.0
    301    293    294    303   5     0.00000     0.00000     1.25520  0.0
    301    293    294    304   5     0.00000     0.00000     1.25520  0.0
    302    293    294    295   5     0.00000     0.00000     1.25520  0.0
    302    293    294    303   5     0.00000     0.00000     1.25520  0.0
    302    293    294    304   5     0.00000     0.00000     1.25520  0.0
    293    294    295    305   5     0.00000     0.00000     1.25520  0.0
    293    294    295    306   5     0.00000     0.00000     1.25520  0.0
    293    294    295    307   5     0.00000     0.00000     1.25520  0.0
    303    294    295    305   5     0.00000     0.00000     1.25520  0.0
    303    294    295    306   5     0.00000     0.00000     1.25520  0.0
    303    294    295    307   5     0.00000     0.00000     1.25520  0.0
    304    294    295    305   5     0.00000     0.00000     1.25520  0.0
    304    294    295    306   5     0.00000     0.00000     1.25520  0.0
    304    294    295    307   5     0.00000     0.00000     1.25520  0.0
    291    308    309    310   5     4.74884    -0.63178     1.67360  0.0
    291    308    309    316   5     0.00000     0.00000     1.25520  0.0
    291    308    309    326   5     4.74884    -0.63178     1.67360  0.0
    314    308    309    310   5     0.00000     0.00000     1.25520  0.0
    314    308    309    316   5     0.00000     0.00000     1.25520  0.0
    314    308    309    326   5     0.00000     0.00000     1.25520  0.0
    315    308    309    310   5     0.00000     0.00000     1.25520  0.0
    315    308    309    316   5     0.00000     0.00000     1.25520  0.0
    315    308    309    326   5     0.00000     0.00000     1.25520  0.0
    308    309    310    311   5     4.74884    -0.63178     1.67360  0.0
    308    309    310    317   5     0.00000     0.00000     1.25520  0.0
    308    309    310    318   5     0.00000     0.00000     1.25520  0.0
    316    309    310    311   5     0.00000     0.00000     1.25520  0.0
    316    309    310    317   5     0.00000     0.00000     1.25520  0.0
    316    309    310    318   5     0.00000     0.00000     1.25520  0.0
    326    309    310    311   5     4.74884    -0.63178     1.67360  0.0
    326    309    310    317   5     0.00000     0.00000     1.25520  0.0
    326    309    310    318   5     0.00000     0.00000     1.25520  0.0
    308    309    326    327   5     4.74884    -0.63178     1.67360  0.0
    308    309    326    332   5     0.00000     0.00000     1.25520  0.0
    308    309    326    333   5     0.00000     0.00000     1.25520  0.0
    310    309    326    327   5     4.74884    -0.63178     1.67360  0.0
    310    309    326    332   5     0.00000     0.00000     1.25520  0.0
    310    309    326    333   5     0.00000     0.00000     1.25520  0.0
    316    309    326    327   5     0.00000     0.00000     1.25520  0.0
    316    309    326    332   5     0.00000     0.00000     1.25520  0.0
    316    309    326    333   5     0.00000     0.00000     1.25520  0.0
    309    310    311    312   5     4.74884    -0.63178     1.67360  0.0
    309    310    311    319   5     0.00000     0.00000     1.25520  0.0
    309    310    311    320   5     0.00000     0.00000     1.25520  0.0
    317    310    311    312   5     0.00000     0.00000     1.25520  0.0
    317    310    311    319   5     0.00000     0.00000     1.25520  0.0
    317    310    311    320   5     0.00000     0.00000     1.25520  0.0
    318    310    311    312   5     0.00000     0.00000     1.25520  0.0
    318    310    311    319   5     0.00000     0.00000     1.25520  0.0
    318    310    311    320   5     0.00000     0.00000     1.25520  0.0
    310    311    312    313   5     4.74884    -0.63178     1.67360  0.0
    310    311    312    321   5     0.00000     0.00000     1.25520  0.0
    310    311    312    322   5     0.00000     0.00000     1.25520  0.0
    319    311    312    313   5     0.00000     0.00000     1.25520  0.0
    319    311    312    321   5     0.00000     0.00000     1.25520  0.0
    319    311    312    322   5     0.00000     0.00000     1.25520  0.0
    320    311    312    313   5     0.00000     0.00000     1.25520  0.0
    320    311    312    321   5     0.00000     0.00000     1.25520  0.0
    320    311    312    322   5     0.00000     0.00000     1.25520  0.0
    311    312    313    323   5     0.00000     0.00000     1.25520  0.0
    311    312    313    324   5     0.00000     0.00000     1.25520  0.0
    311    312    313    325   5     0.00000     0.00000     1.25520  0.0
    321    312    313    323   5     0.00000     0.00000     1.25520  0.0
    321    312    313    324   5     0.00000     0.00000     1.25520  0.0
    321    312    313    325   5     0.00000     0.00000     1.25520  0.0
    322    312    313    323   5     0.00000     0.00000     1.25520  0.0
    322    312    313    324   5     0.00000     0.00000     1.25520  0.0
    322    312    313    325   5     0.00000     0.00000     1.25520  0.0
    309    326    327    328   5     4.74884    -0.63178     1.67360  0.0
    309    326    327    334   5     0.00000     0.00000     1.25520  0.0
    309    326    327    344   5     4.74884    -0.63178     1.67360  0.0
    332    326    327    328   5     0.00000     0.00000     1.25520  0.0
    332    326    327    334   5     0.00000     0.00000     1.25520  0.0
    332    326    327    344   5     0.00000     0.00000     1.25520  0.0
    333    326    327    328   5     0.00000     0.00000     1.25520  0.0
    333    326    327    334   5     0.00000     0.00000     1.25520  0.0
    333    326    327    344   5     0.00000     0.00000     1.25520  0.0
    326    327    328    329   5     4.74884    -0.63178     1.67360  0.0
    326    327    328    335   5     0.00000     0.00000     1.25520  0.0
    326    327    328    336   5     0.00000     0.00000     1.25520  0.0
    334    327    328    329   5     0.00000     0.00000     1.25520  0.0
    334    327    328    335   5     0.00000     0.00000     1.25520  0.0
    334    327    328    336   5     0.00000     0.00000     1.25520  0.0
    344    327    328    329   5     4.74884    -0.63178     1.67360  0.0
    344    327    328    335   5     0.00000     0.00000     1.25520  0.0
    344    327    328    336   5     0.00000     0.00000     1.25520  0.0
    326    327    344    345   5     4.74884    -0.63178     1.67360  0.0
    326    327    344    350   5     0.00000     0.00000     1.25520  0.0
    326    327    344    351   5     0.00000     0.00000     1.25520  0.0
    328    327    344    345   5     4.74884    -0.63178     1.67360  0.0
    328    327    344    350   5     0.00000     0.00000     1.25520  0.0
    328    327    344    351   5     0.00000     0.00000     1.25520  0.0
    334    327    344    345   5     0.00000     0.00000     1.25520  0.0
    334    327    344    350   5     0.00000     0.00000     1.25520  0.0
    334    327    344    351   5     0.00000     0.00000     1.25520  0.0
    327    328    329    330   5     4.74884    -0.63178     1.67360  0.0
    327    328    329    337   5     0.00000     0.00000     1.25520  0.0
    327    328    329    338   5     0.00000     0.00000     1.25520  0.0
    335    328    329    330   5     0.00000     0.00000     1.25520  0.0
    335    328    329    337   5     0.00000     0.00000     1.25520  0.0
    335    328    329    338   5     0.00000     0.00000     1.25520  0.0
    336    328    329    330   5     0.00000     0.00000     1.25520  0.0
    336    328    329    337   5     0.00000     0.00000     1.25520  0.0
    336    328    329    338   5     0.00000     0.00000     1.25520  0.0
    328    329    330    331   5     4.74884    -0.63178     1.67360  0.0
    328    329    330    339   5     0.00000     0.00000     1.25520  0.0
    328    329    330    340   5     0.00000     0.00000     1.25520  0.0
    337    329    330    331   5     0.00000     0.00000     1.25520  0.0
    337    329    330    339   5     0.00000     0.00000     1.25520  0.0
    337    329    330    340   5     0.00000     0.00000     1.25520  0.0
    338    329    330    331   5     0.00000     0.00000     1.25520  0.0
    338    329    330    339   5     0.00000     0.00000     1.25520  0.0
    338    329    330    340   5     0.00000     0.00000     1.25520  0.0
    329    330    331    341   5     0.00000     0.00000     1.25520  0.0
    329    330    331    342   5     0.00000     0.00000     1.25520  0.0
    329    330    331    343   5     0.00000     0.00000     1.25520  0.0
    339    330    331    341   5     0.00000     0.00000     1.25520  0.0
    339    330    331    342   5     0.00000     0.00000     1.25520  0.0
    339    330    331    343   5     0.00000     0.00000     1.25520  0.0
    340    330    331    341   5     0.00000     0.00000     1.25520  0.0
    340    330    331    342   5     0.00000     0.00000     1.25520  0.0
    340    330    331    343   5     0.00000     0.00000     1.25520  0.0
    327    344    345    346   5     4.74884    -0.63178     1.67360  0.0
    327    344    345    352   5     0.00000     0.00000     1.25520  0.0
    327    344    345    362   5     0.00000     0.00000     1.25520  0.0
    350    344    345    346   5     0.00000     0.00000     1.25520  0.0
    350    344    345    352   5     0.00000     0.00000     1.25520  0.0
    350    344    345    362   5     0.00000     0.00000     1.25520  0.0
    351    344    345    346   5     0.00000     0.00000     1.25520  0.0
    351    344    345    352   5     0.00000     0.00000     1.25520  0.0
    351    344    345    362   5     0.00000     0.00000     1.25520  0.0
    344    345    346    347   5     4.74884    -0.63178     1.67360  0.0
    344    345    346    353   5     0.00000     0.00000     1.25520  0.0
    344    345    346    354   5     0.00000     0.00000     1.25520  0.0
    352    345    346    347   5     0.00000     0.00000     1.25520  0.0
    352    345    346    353   5     0.00000     0.00000     1.25520  0.0
    352    345    346    354   5     0.00000     0.00000     1.25520  0.0
    362    345    346    347   5     0.00000     0.00000     1.25520  0.0
    362    345    346    353   5     0.00000     0.00000     1.25520  0.0
    362    345    346    354   5     0.00000     0.00000     1.25520  0.0
    345    346    347    348   5     4.74884    -0.63178     1.67360  0.0
    345    346    347    355   5     0.00000     0.00000     1.25520  0.0
    345    346    347    356   5     0.00000     0.00000     1.25520  0.0
    353    346    347    348   5     0.00000     0.00000     1.25520  0.0
    353    346    347    355   5     0.00000     0.00000     1.25520  0.0
    353    346    347    356   5     0.00000     0.00000     1.25520  0.0
    354    346    347    348   5     0.00000     0.00000     1.25520  0.0
    354    346    347    355   5     0.00000     0.00000     1.25520  0.0
    354    346    347    356   5     0.00000     0.00000     1.25520  0.0
    346    347    348    349   5     4.74884    -0.63178     1.67360  0.0
    346    347    348    357   5     0.00000     0.00000     1.25520  0.0
    346    347    348    358   5     0.00000     0.00000     1.25520  0.0
    355    347    348    349   5     0.00000     0.00000     1.25520  0.0
    355    347    348    357   5     0.00000     0.00000     1.25520  0.0
    355    347    348    358   5     0.00000     0.00000     1.25520  0.0
    356    347    348    349   5     0.00000     0.00000     1.25520  0.0
    356    347    348    357   5     0.00000     0.00000     1.25520  0.0
    356    347    348    358   5     0.00000     0.00000     1.25520  0.0
    347    348    349    359   5     0.00000     0.00000     1.25520  0.0
    347    348    349    360   5     0.00000     0.00000     1.25520  0.0
    347    348    349    361   5     0.00000     0.00000     1.25520  0.0
    357    348    349    359   5     0.00000     0.00000     1.25520  0.0
    357    348    349    360   5     0.00000     0.00000     1.25520  0.0
    357    348    349    361   5     0.00000     0.00000     1.25520  0.0
    358    348    349    359   5     0.00000     0.00000     1.25520  0.0
    358    348    349    360   5     0.00000     0.00000     1.25520  0.0
    358    348    349    361   5     0.00000     0.00000     1.25520  0.0
