;
; Gromacs include topology (itp) file.
; For Molecular Group XYZ
; Force field scheme: opls2005
; Produced from DL_FIELD v4.11
;


[ moleculetype ]
; name    nrexcl
XYZ    3

[ atoms ]
; nr   type   resnr   residu    atom    cgnr    charge    mass
    1        CT    1  MOL      C1     1  -0.1200000   12.0115
    2       CYA    1  MOL      C2     2  -0.0600000   12.0115
    3       CYA    1  MOL      C3     3  -0.1200000   12.0115
    4       CYA    1  MOL      C4     4  -0.1200000   12.0115
    5       CYA    1  MOL      C5     5  -0.1200000   12.0115
    6       CYA    1  MOL      C6     6  -0.1200000   12.0115
    7       CYA    1  MOL      C7     7  -0.1200000   12.0115
    8        CT    1  MOL      C8     8  -0.1200000   12.0115
    9        HC    1  MOL      H9     9   0.0600000    1.0080
   10        HC    1  MOL     H10    10   0.0600000    1.0080
   11        HC    1  MOL     H11    11   0.0600000    1.0080
   12        HC    1  MOL     H12    12   0.0600000    1.0080
   13        HC    1  MOL     H13    13   0.0600000    1.0080
   14        HC    1  MOL     H14    14   0.0600000    1.0080
   15        HC    1  MOL     H15    15   0.0600000    1.0080
   16        HC    1  MOL     H16    16   0.0600000    1.0080
   17        HC    1  MOL     H17    17   0.0600000    1.0080
   18        HC    1  MOL     H18    18   0.0600000    1.0080
   19        HC    1  MOL     H19    19   0.0600000    1.0080
   20        HC    1  MOL     H20    20   0.0600000    1.0080
   21        HC    1  MOL     H21    21   0.0600000    1.0080
   22        HC    1  MOL     H22    22   0.0600000    1.0080
   23        HC    1  MOL     H23    23   0.0600000    1.0080
   24        CT    1  MOL     C24    24  -0.0600000   12.0115
   25       CYA    1  MOL     C25    25  -0.0600000   12.0115
   26       CYA    1  MOL     C26    26  -0.1200000   12.0115
   27       CYA    1  MOL     C27    27  -0.1200000   12.0115
   28       CYA    1  MOL     C28    28  -0.1200000   12.0115
   29       CYA    1  MOL     C29    29  -0.1200000   12.0115
   30       CYA    1  MOL     C30    30  -0.1200000   12.0115
   31        CT    1  MOL     C31    31  -0.1200000   12.0115
   32        HC    1  MOL     H32    32   0.0600000    1.0080
   33        HC    1  MOL     H33    33   0.0600000    1.0080
   34        HC    1  MOL     H34    34   0.0600000    1.0080
   35        HC    1  MOL     H35    35   0.0600000    1.0080
   36        HC    1  MOL     H36    36   0.0600000    1.0080
   37        HC    1  MOL     H37    37   0.0600000    1.0080
   38        HC    1  MOL     H38    38   0.0600000    1.0080
   39        HC    1  MOL     H39    39   0.0600000    1.0080
   40        HC    1  MOL     H40    40   0.0600000    1.0080
   41        HC    1  MOL     H41    41   0.0600000    1.0080
   42        HC    1  MOL     H42    42   0.0600000    1.0080
   43        HC    1  MOL     H43    43   0.0600000    1.0080
   44        HC    1  MOL     H44    44   0.0600000    1.0080
   45        HC    1  MOL     H45    45   0.0600000    1.0080
   46        CT    1  MOL     C46    46  -0.0600000   12.0115
   47       CYA    1  MOL     C47    47  -0.0600000   12.0115
   48       CYA    1  MOL     C48    48  -0.1200000   12.0115
   49       CYA    1  MOL     C49    49  -0.1200000   12.0115
   50       CYA    1  MOL     C50    50  -0.1200000   12.0115
   51       CYA    1  MOL     C51    51  -0.1200000   12.0115
   52       CYA    1  MOL     C52    52  -0.1200000   12.0115
   53        CT    1  MOL     C53    53  -0.1200000   12.0115
   54        HC    1  MOL     H54    54   0.0600000    1.0080
   55        HC    1  MOL     H55    55   0.0600000    1.0080
   56        HC    1  MOL     H56    56   0.0600000    1.0080
   57        HC    1  MOL     H57    57   0.0600000    1.0080
   58        HC    1  MOL     H58    58   0.0600000    1.0080
   59        HC    1  MOL     H59    59   0.0600000    1.0080
   60        HC    1  MOL     H60    60   0.0600000    1.0080
   61        HC    1  MOL     H61    61   0.0600000    1.0080
   62        HC    1  MOL     H62    62   0.0600000    1.0080
   63        HC    1  MOL     H63    63   0.0600000    1.0080
   64        HC    1  MOL     H64    64   0.0600000    1.0080
   65        HC    1  MOL     H65    65   0.0600000    1.0080
   66        HC    1  MOL     H66    66   0.0600000    1.0080
   67        HC    1  MOL     H67    67   0.0600000    1.0080
   68        CT    1  MOL     C68    68  -0.0600000   12.0115
   69       CYA    1  MOL     C69    69  -0.0600000   12.0115
   70       CYA    1  MOL     C70    70  -0.1200000   12.0115
   71       CYA    1  MOL     C71    71  -0.1200000   12.0115
   72       CYA    1  MOL     C72    72  -0.1200000   12.0115
   73       CYA    1  MOL     C73    73  -0.1200000   12.0115
   74       CYA    1  MOL     C74    74  -0.1200000   12.0115
   75        CT    1  MOL     C75    75  -0.1200000   12.0115
   76        HC    1  MOL     H76    76   0.0600000    1.0080
   77        HC    1  MOL     H77    77   0.0600000    1.0080
   78        HC    1  MOL     H78    78   0.0600000    1.0080
   79        HC    1  MOL     H79    79   0.0600000    1.0080
   80        HC    1  MOL     H80    80   0.0600000    1.0080
   81        HC    1  MOL     H81    81   0.0600000    1.0080
   82        HC    1  MOL     H82    82   0.0600000    1.0080
   83        HC    1  MOL     H83    83   0.0600000    1.0080
   84        HC    1  MOL     H84    84   0.0600000    1.0080
   85        HC    1  MOL     H85    85   0.0600000    1.0080
   86        HC    1  MOL     H86    86   0.0600000    1.0080
   87        HC    1  MOL     H87    87   0.0600000    1.0080
   88        HC    1  MOL     H88    88   0.0600000    1.0080
   89        HC    1  MOL     H89    89   0.0600000    1.0080
   90        CT    1  MOL     C90    90  -0.0600000   12.0115
   91       CYA    1  MOL     C91    91  -0.0600000   12.0115
   92       CYA    1  MOL     C92    92  -0.1200000   12.0115
   93       CYA    1  MOL     C93    93  -0.1200000   12.0115
   94       CYA    1  MOL     C94    94  -0.1200000   12.0115
   95       CYA    1  MOL     C95    95  -0.1200000   12.0115
   96       CYA    1  MOL     C96    96  -0.1200000   12.0115
   97        CT    1  MOL     C97    97  -0.1200000   12.0115
   98        HC    1  MOL     H98    98   0.0600000    1.0080
   99        HC    1  MOL     H99    99   0.0600000    1.0080
  100        HC    1  MOL    H100   100   0.0600000    1.0080
  101        HC    1  MOL    H101   101   0.0600000    1.0080
  102        HC    1  MOL    H102   102   0.0600000    1.0080
  103        HC    1  MOL    H103   103   0.0600000    1.0080
  104        HC    1  MOL    H104   104   0.0600000    1.0080
  105        HC    1  MOL    H105   105   0.0600000    1.0080
  106        HC    1  MOL    H106   106   0.0600000    1.0080
  107        HC    1  MOL    H107   107   0.0600000    1.0080
  108        HC    1  MOL    H108   108   0.0600000    1.0080
  109        HC    1  MOL    H109   109   0.0600000    1.0080
  110        HC    1  MOL    H110   110   0.0600000    1.0080
  111        HC    1  MOL    H111   111   0.0600000    1.0080
  112        CT    1  MOL    C112   112  -0.0600000   12.0115
  113       CYA    1  MOL    C113   113  -0.0600000   12.0115
  114       CYA    1  MOL    C114   114  -0.1200000   12.0115
  115       CYA    1  MOL    C115   115  -0.1200000   12.0115
  116       CYA    1  MOL    C116   116  -0.1200000   12.0115
  117       CYA    1  MOL    C117   117  -0.1200000   12.0115
  118       CYA    1  MOL    C118   118  -0.1200000   12.0115
  119        CT    1  MOL    C119   119  -0.1200000   12.0115
  120        HC    1  MOL    H120   120   0.0600000    1.0080
  121        HC    1  MOL    H121   121   0.0600000    1.0080
  122        HC    1  MOL    H122   122   0.0600000    1.0080
  123        HC    1  MOL    H123   123   0.0600000    1.0080
  124        HC    1  MOL    H124   124   0.0600000    1.0080
  125        HC    1  MOL    H125   125   0.0600000    1.0080
  126        HC    1  MOL    H126   126   0.0600000    1.0080
  127        HC    1  MOL    H127   127   0.0600000    1.0080
  128        HC    1  MOL    H128   128   0.0600000    1.0080
  129        HC    1  MOL    H129   129   0.0600000    1.0080
  130        HC    1  MOL    H130   130   0.0600000    1.0080
  131        HC    1  MOL    H131   131   0.0600000    1.0080
  132        HC    1  MOL    H132   132   0.0600000    1.0080
  133        HC    1  MOL    H133   133   0.0600000    1.0080
  134        CT    1  MOL    C134   134  -0.0600000   12.0115
  135       CYA    1  MOL    C135   135  -0.0600000   12.0115
  136       CYA    1  MOL    C136   136  -0.1200000   12.0115
  137       CYA    1  MOL    C137   137  -0.1200000   12.0115
  138       CYA    1  MOL    C138   138  -0.1200000   12.0115
  139       CYA    1  MOL    C139   139  -0.1200000   12.0115
  140       CYA    1  MOL    C140   140  -0.1200000   12.0115
  141        CT    1  MOL    C141   141  -0.1200000   12.0115
  142        HC    1  MOL    H142   142   0.0600000    1.0080
  143        HC    1  MOL    H143   143   0.0600000    1.0080
  144        HC    1  MOL    H144   144   0.0600000    1.0080
  145        HC    1  MOL    H145   145   0.0600000    1.0080
  146        HC    1  MOL    H146   146   0.0600000    1.0080
  147        HC    1  MOL    H147   147   0.0600000    1.0080
  148        HC    1  MOL    H148   148   0.0600000    1.0080
  149        HC    1  MOL    H149   149   0.0600000    1.0080
  150        HC    1  MOL    H150   150   0.0600000    1.0080
  151        HC    1  MOL    H151   151   0.0600000    1.0080
  152        HC    1  MOL    H152   152   0.0600000    1.0080
  153        HC    1  MOL    H153   153   0.0600000    1.0080
  154        HC    1  MOL    H154   154   0.0600000    1.0080
  155        HC    1  MOL    H155   155   0.0600000    1.0080
  156        CT    1  MOL    C156   156  -0.0600000   12.0115
  157       CYA    1  MOL    C157   157  -0.0600000   12.0115
  158       CYA    1  MOL    C158   158  -0.1200000   12.0115
  159       CYA    1  MOL    C159   159  -0.1200000   12.0115
  160       CYA    1  MOL    C160   160  -0.1200000   12.0115
  161       CYA    1  MOL    C161   161  -0.1200000   12.0115
  162       CYA    1  MOL    C162   162  -0.1200000   12.0115
  163        CT    1  MOL    C163   163  -0.1200000   12.0115
  164        HC    1  MOL    H164   164   0.0600000    1.0080
  165        HC    1  MOL    H165   165   0.0600000    1.0080
  166        HC    1  MOL    H166   166   0.0600000    1.0080
  167        HC    1  MOL    H167   167   0.0600000    1.0080
  168        HC    1  MOL    H168   168   0.0600000    1.0080
  169        HC    1  MOL    H169   169   0.0600000    1.0080
  170        HC    1  MOL    H170   170   0.0600000    1.0080
  171        HC    1  MOL    H171   171   0.0600000    1.0080
  172        HC    1  MOL    H172   172   0.0600000    1.0080
  173        HC    1  MOL    H173   173   0.0600000    1.0080
  174        HC    1  MOL    H174   174   0.0600000    1.0080
  175        HC    1  MOL    H175   175   0.0600000    1.0080
  176        HC    1  MOL    H176   176   0.0600000    1.0080
  177        HC    1  MOL    H177   177   0.0600000    1.0080
  178        CT    1  MOL    C178   178  -0.0600000   12.0115
  179       CYA    1  MOL    C179   179  -0.0600000   12.0115
  180       CYA    1  MOL    C180   180  -0.1200000   12.0115
  181       CYA    1  MOL    C181   181  -0.1200000   12.0115
  182       CYA    1  MOL    C182   182  -0.1200000   12.0115
  183       CYA    1  MOL    C183   183  -0.1200000   12.0115
  184       CYA    1  MOL    C184   184  -0.1200000   12.0115
  185        CT    1  MOL    C185   185  -0.1200000   12.0115
  186        HC    1  MOL    H186   186   0.0600000    1.0080
  187        HC    1  MOL    H187   187   0.0600000    1.0080
  188        HC    1  MOL    H188   188   0.0600000    1.0080
  189        HC    1  MOL    H189   189   0.0600000    1.0080
  190        HC    1  MOL    H190   190   0.0600000    1.0080
  191        HC    1  MOL    H191   191   0.0600000    1.0080
  192        HC    1  MOL    H192   192   0.0600000    1.0080
  193        HC    1  MOL    H193   193   0.0600000    1.0080
  194        HC    1  MOL    H194   194   0.0600000    1.0080
  195        HC    1  MOL    H195   195   0.0600000    1.0080
  196        HC    1  MOL    H196   196   0.0600000    1.0080
  197        HC    1  MOL    H197   197   0.0600000    1.0080
  198        HC    1  MOL    H198   198   0.0600000    1.0080
  199        HC    1  MOL    H199   199   0.0600000    1.0080
  200        CT    1  MOL    C200   200  -0.0600000   12.0115
  201       CYA    1  MOL    C201   201  -0.0600000   12.0115
  202       CYA    1  MOL    C202   202  -0.1200000   12.0115
  203       CYA    1  MOL    C203   203  -0.1200000   12.0115
  204       CYA    1  MOL    C204   204  -0.1200000   12.0115
  205       CYA    1  MOL    C205   205  -0.1200000   12.0115
  206       CYA    1  MOL    C206   206  -0.1200000   12.0115
  207        CT    1  MOL    C207   207  -0.1200000   12.0115
  208        HC    1  MOL    H208   208   0.0600000    1.0080
  209        HC    1  MOL    H209   209   0.0600000    1.0080
  210        HC    1  MOL    H210   210   0.0600000    1.0080
  211        HC    1  MOL    H211   211   0.0600000    1.0080
  212        HC    1  MOL    H212   212   0.0600000    1.0080
  213        HC    1  MOL    H213   213   0.0600000    1.0080
  214        HC    1  MOL    H214   214   0.0600000    1.0080
  215        HC    1  MOL    H215   215   0.0600000    1.0080
  216        HC    1  MOL    H216   216   0.0600000    1.0080
  217        HC    1  MOL    H217   217   0.0600000    1.0080
  218        HC    1  MOL    H218   218   0.0600000    1.0080
  219        HC    1  MOL    H219   219   0.0600000    1.0080
  220        HC    1  MOL    H220   220   0.0600000    1.0080
  221        HC    1  MOL    H221   221   0.0600000    1.0080
  222        CT    1  MOL    C222   222  -0.0600000   12.0115
  223       CYA    1  MOL    C223   223  -0.0600000   12.0115
  224       CYA    1  MOL    C224   224  -0.1200000   12.0115
  225       CYA    1  MOL    C225   225  -0.1200000   12.0115
  226       CYA    1  MOL    C226   226  -0.1200000   12.0115
  227       CYA    1  MOL    C227   227  -0.1200000   12.0115
  228       CYA    1  MOL    C228   228  -0.1200000   12.0115
  229        CT    1  MOL    C229   229  -0.1200000   12.0115
  230        HC    1  MOL    H230   230   0.0600000    1.0080
  231        HC    1  MOL    H231   231   0.0600000    1.0080
  232        HC    1  MOL    H232   232   0.0600000    1.0080
  233        HC    1  MOL    H233   233   0.0600000    1.0080
  234        HC    1  MOL    H234   234   0.0600000    1.0080
  235        HC    1  MOL    H235   235   0.0600000    1.0080
  236        HC    1  MOL    H236   236   0.0600000    1.0080
  237        HC    1  MOL    H237   237   0.0600000    1.0080
  238        HC    1  MOL    H238   238   0.0600000    1.0080
  239        HC    1  MOL    H239   239   0.0600000    1.0080
  240        HC    1  MOL    H240   240   0.0600000    1.0080
  241        HC    1  MOL    H241   241   0.0600000    1.0080
  242        HC    1  MOL    H242   242   0.0600000    1.0080
  243        HC    1  MOL    H243   243   0.0600000    1.0080
  244        CT    1  MOL    C244   244  -0.0600000   12.0115
  245       CYA    1  MOL    C245   245  -0.0600000   12.0115
  246       CYA    1  MOL    C246   246  -0.1200000   12.0115
  247       CYA    1  MOL    C247   247  -0.1200000   12.0115
  248       CYA    1  MOL    C248   248  -0.1200000   12.0115
  249       CYA    1  MOL    C249   249  -0.1200000   12.0115
  250       CYA    1  MOL    C250   250  -0.1200000   12.0115
  251        CT    1  MOL    C251   251  -0.1200000   12.0115
  252        HC    1  MOL    H252   252   0.0600000    1.0080
  253        HC    1  MOL    H253   253   0.0600000    1.0080
  254        HC    1  MOL    H254   254   0.0600000    1.0080
  255        HC    1  MOL    H255   255   0.0600000    1.0080
  256        HC    1  MOL    H256   256   0.0600000    1.0080
  257        HC    1  MOL    H257   257   0.0600000    1.0080
  258        HC    1  MOL    H258   258   0.0600000    1.0080
  259        HC    1  MOL    H259   259   0.0600000    1.0080
  260        HC    1  MOL    H260   260   0.0600000    1.0080
  261        HC    1  MOL    H261   261   0.0600000    1.0080
  262        HC    1  MOL    H262   262   0.0600000    1.0080
  263        HC    1  MOL    H263   263   0.0600000    1.0080
  264        HC    1  MOL    H264   264   0.0600000    1.0080
  265        HC    1  MOL    H265   265   0.0600000    1.0080
  266        CT    1  MOL    C266   266  -0.0600000   12.0115
  267       CYA    1  MOL    C267   267  -0.0600000   12.0115
  268       CYA    1  MOL    C268   268  -0.1200000   12.0115
  269       CYA    1  MOL    C269   269  -0.1200000   12.0115
  270       CYA    1  MOL    C270   270  -0.1200000   12.0115
  271       CYA    1  MOL    C271   271  -0.1200000   12.0115
  272       CYA    1  MOL    C272   272  -0.1200000   12.0115
  273        CT    1  MOL    C273   273  -0.1200000   12.0115
  274        HC    1  MOL    H274   274   0.0600000    1.0080
  275        HC    1  MOL    H275   275   0.0600000    1.0080
  276        HC    1  MOL    H276   276   0.0600000    1.0080
  277        HC    1  MOL    H277   277   0.0600000    1.0080
  278        HC    1  MOL    H278   278   0.0600000    1.0080
  279        HC    1  MOL    H279   279   0.0600000    1.0080
  280        HC    1  MOL    H280   280   0.0600000    1.0080
  281        HC    1  MOL    H281   281   0.0600000    1.0080
  282        HC    1  MOL    H282   282   0.0600000    1.0080
  283        HC    1  MOL    H283   283   0.0600000    1.0080
  284        HC    1  MOL    H284   284   0.0600000    1.0080
  285        HC    1  MOL    H285   285   0.0600000    1.0080
  286        HC    1  MOL    H286   286   0.0600000    1.0080
  287        HC    1  MOL    H287   287   0.0600000    1.0080
  288        CT    1  MOL    C288   288  -0.0600000   12.0115
  289       CYA    1  MOL    C289   289  -0.0600000   12.0115
  290       CYA    1  MOL    C290   290  -0.1200000   12.0115
  291       CYA    1  MOL    C291   291  -0.1200000   12.0115
  292       CYA    1  MOL    C292   292  -0.1200000   12.0115
  293       CYA    1  MOL    C293   293  -0.1200000   12.0115
  294       CYA    1  MOL    C294   294  -0.1200000   12.0115
  295        CT    1  MOL    C295   295  -0.1200000   12.0115
  296        HC    1  MOL    H296   296   0.0600000    1.0080
  297        HC    1  MOL    H297   297   0.0600000    1.0080
  298        HC    1  MOL    H298   298   0.0600000    1.0080
  299        HC    1  MOL    H299   299   0.0600000    1.0080
  300        HC    1  MOL    H300   300   0.0600000    1.0080
  301        HC    1  MOL    H301   301   0.0600000    1.0080
  302        HC    1  MOL    H302   302   0.0600000    1.0080
  303        HC    1  MOL    H303   303   0.0600000    1.0080
  304        HC    1  MOL    H304   304   0.0600000    1.0080
  305        HC    1  MOL    H305   305   0.0600000    1.0080
  306        HC    1  MOL    H306   306   0.0600000    1.0080
  307        HC    1  MOL    H307   307   0.0600000    1.0080
  308        HC    1  MOL    H308   308   0.0600000    1.0080
  309        HC    1  MOL    H309   309   0.0600000    1.0080
  310        CT    1  MOL    C310   310  -0.0600000   12.0115
  311       CYA    1  MOL    C311   311  -0.0600000   12.0115
  312       CYA    1  MOL    C312   312  -0.1200000   12.0115
  313       CYA    1  MOL    C313   313  -0.1200000   12.0115
  314       CYA    1  MOL    C314   314  -0.1200000   12.0115
  315       CYA    1  MOL    C315   315  -0.1200000   12.0115
  316       CYA    1  MOL    C316   316  -0.1200000   12.0115
  317        CT    1  MOL    C317   317  -0.1200000   12.0115
  318        HC    1  MOL    H318   318   0.0600000    1.0080
  319        HC    1  MOL    H319   319   0.0600000    1.0080
  320        HC    1  MOL    H320   320   0.0600000    1.0080
  321        HC    1  MOL    H321   321   0.0600000    1.0080
  322        HC    1  MOL    H322   322   0.0600000    1.0080
  323        HC    1  MOL    H323   323   0.0600000    1.0080
  324        HC    1  MOL    H324   324   0.0600000    1.0080
  325        HC    1  MOL    H325   325   0.0600000    1.0080
  326        HC    1  MOL    H326   326   0.0600000    1.0080
  327        HC    1  MOL    H327   327   0.0600000    1.0080
  328        HC    1  MOL    H328   328   0.0600000    1.0080
  329        HC    1  MOL    H329   329   0.0600000    1.0080
  330        HC    1  MOL    H330   330   0.0600000    1.0080
  331        HC    1  MOL    H331   331   0.0600000    1.0080
  332        CT    1  MOL    C332   332  -0.0600000   12.0115
  333       CYA    1  MOL    C333   333  -0.0600000   12.0115
  334       CYA    1  MOL    C334   334  -0.1200000   12.0115
  335       CYA    1  MOL    C335   335  -0.1200000   12.0115
  336       CYA    1  MOL    C336   336  -0.1200000   12.0115
  337       CYA    1  MOL    C337   337  -0.1200000   12.0115
  338       CYA    1  MOL    C338   338  -0.1200000   12.0115
  339        CT    1  MOL    C339   339  -0.1200000   12.0115
  340        HC    1  MOL    H340   340   0.0600000    1.0080
  341        HC    1  MOL    H341   341   0.0600000    1.0080
  342        HC    1  MOL    H342   342   0.0600000    1.0080
  343        HC    1  MOL    H343   343   0.0600000    1.0080
  344        HC    1  MOL    H344   344   0.0600000    1.0080
  345        HC    1  MOL    H345   345   0.0600000    1.0080
  346        HC    1  MOL    H346   346   0.0600000    1.0080
  347        HC    1  MOL    H347   347   0.0600000    1.0080
  348        HC    1  MOL    H348   348   0.0600000    1.0080
  349        HC    1  MOL    H349   349   0.0600000    1.0080
  350        HC    1  MOL    H350   350   0.0600000    1.0080
  351        HC    1  MOL    H351   351   0.0600000    1.0080
  352        HC    1  MOL    H352   352   0.0600000    1.0080
  353        HC    1  MOL    H353   353   0.0600000    1.0080
  354        CT    1  MOL    C354   354  -0.0600000   12.0115
  355       CYA    1  MOL    C355   355  -0.0600000   12.0115
  356       CYA    1  MOL    C356   356  -0.1200000   12.0115
  357       CYA    1  MOL    C357   357  -0.1200000   12.0115
  358       CYA    1  MOL    C358   358  -0.1200000   12.0115
  359       CYA    1  MOL    C359   359  -0.1200000   12.0115
  360       CYA    1  MOL    C360   360  -0.1200000   12.0115
  361        CT    1  MOL    C361   361  -0.1200000   12.0115
  362        HC    1  MOL    H362   362   0.0600000    1.0080
  363        HC    1  MOL    H363   363   0.0600000    1.0080
  364        HC    1  MOL    H364   364   0.0600000    1.0080
  365        HC    1  MOL    H365   365   0.0600000    1.0080
  366        HC    1  MOL    H366   366   0.0600000    1.0080
  367        HC    1  MOL    H367   367   0.0600000    1.0080
  368        HC    1  MOL    H368   368   0.0600000    1.0080
  369        HC    1  MOL    H369   369   0.0600000    1.0080
  370        HC    1  MOL    H370   370   0.0600000    1.0080
  371        HC    1  MOL    H371   371   0.0600000    1.0080
  372        HC    1  MOL    H372   372   0.0600000    1.0080
  373        HC    1  MOL    H373   373   0.0600000    1.0080
  374        HC    1  MOL    H374   374   0.0600000    1.0080
  375        HC    1  MOL    H375   375   0.0600000    1.0080
  376        CT    1  MOL    C376   376  -0.0600000   12.0115
  377       CYA    1  MOL    C377   377  -0.0600000   12.0115
  378       CYA    1  MOL    C378   378  -0.1200000   12.0115
  379       CYA    1  MOL    C379   379  -0.1200000   12.0115
  380       CYA    1  MOL    C380   380  -0.1200000   12.0115
  381       CYA    1  MOL    C381   381  -0.1200000   12.0115
  382       CYA    1  MOL    C382   382  -0.1200000   12.0115
  383        CT    1  MOL    C383   383  -0.1200000   12.0115
  384        HC    1  MOL    H384   384   0.0600000    1.0080
  385        HC    1  MOL    H385   385   0.0600000    1.0080
  386        HC    1  MOL    H386   386   0.0600000    1.0080
  387        HC    1  MOL    H387   387   0.0600000    1.0080
  388        HC    1  MOL    H388   388   0.0600000    1.0080
  389        HC    1  MOL    H389   389   0.0600000    1.0080
  390        HC    1  MOL    H390   390   0.0600000    1.0080
  391        HC    1  MOL    H391   391   0.0600000    1.0080
  392        HC    1  MOL    H392   392   0.0600000    1.0080
  393        HC    1  MOL    H393   393   0.0600000    1.0080
  394        HC    1  MOL    H394   394   0.0600000    1.0080
  395        HC    1  MOL    H395   395   0.0600000    1.0080
  396        HC    1  MOL    H396   396   0.0600000    1.0080
  397        HC    1  MOL    H397   397   0.0600000    1.0080
  398        CT    1  MOL    C398   398  -0.0600000   12.0115
  399       CYA    1  MOL    C399   399  -0.0600000   12.0115
  400       CYA    1  MOL    C400   400  -0.1200000   12.0115
  401       CYA    1  MOL    C401   401  -0.1200000   12.0115
  402       CYA    1  MOL    C402   402  -0.1200000   12.0115
  403       CYA    1  MOL    C403   403  -0.1200000   12.0115
  404       CYA    1  MOL    C404   404  -0.1200000   12.0115
  405        CT    1  MOL    C405   405  -0.1200000   12.0115
  406        HC    1  MOL    H406   406   0.0600000    1.0080
  407        HC    1  MOL    H407   407   0.0600000    1.0080
  408        HC    1  MOL    H408   408   0.0600000    1.0080
  409        HC    1  MOL    H409   409   0.0600000    1.0080
  410        HC    1  MOL    H410   410   0.0600000    1.0080
  411        HC    1  MOL    H411   411   0.0600000    1.0080
  412        HC    1  MOL    H412   412   0.0600000    1.0080
  413        HC    1  MOL    H413   413   0.0600000    1.0080
  414        HC    1  MOL    H414   414   0.0600000    1.0080
  415        HC    1  MOL    H415   415   0.0600000    1.0080
  416        HC    1  MOL    H416   416   0.0600000    1.0080
  417        HC    1  MOL    H417   417   0.0600000    1.0080
  418        HC    1  MOL    H418   418   0.0600000    1.0080
  419        HC    1  MOL    H419   419   0.0600000    1.0080
  420        CT    1  MOL    C420   420  -0.0600000   12.0115
  421       CYA    1  MOL    C421   421  -0.0600000   12.0115
  422       CYA    1  MOL    C422   422  -0.1200000   12.0115
  423       CYA    1  MOL    C423   423  -0.1200000   12.0115
  424       CYA    1  MOL    C424   424  -0.1200000   12.0115
  425       CYA    1  MOL    C425   425  -0.1200000   12.0115
  426       CYA    1  MOL    C426   426  -0.1200000   12.0115
  427        CT    1  MOL    C427   427  -0.1800000   12.0115
  428        HC    1  MOL    H428   428   0.0600000    1.0080
  429        HC    1  MOL    H429   429   0.0600000    1.0080
  430        HC    1  MOL    H430   430   0.0600000    1.0080
  431        HC    1  MOL    H431   431   0.0600000    1.0080
  432        HC    1  MOL    H432   432   0.0600000    1.0080
  433        HC    1  MOL    H433   433   0.0600000    1.0080
  434        HC    1  MOL    H434   434   0.0600000    1.0080
  435        HC    1  MOL    H435   435   0.0600000    1.0080
  436        HC    1  MOL    H436   436   0.0600000    1.0080
  437        HC    1  MOL    H437   437   0.0600000    1.0080
  438        HC    1  MOL    H438   438   0.0600000    1.0080
  439        HC    1  MOL    H439   439   0.0600000    1.0080
  440        HC    1  MOL    H440   440   0.0600000    1.0080
  441        HC    1  MOL    H441   441   0.0600000    1.0080
  442        HC    1  MOL    H442   442   0.0600000    1.0080

[ bonds ]
      1      2   1      0.1529 224262.4000
      1      8   1      0.1529 224262.4000
      1      9   1      0.1090 284512.0000
      1     23   1      0.1090 284512.0000
      2      3   1      0.1529 224262.4000
      2      7   1      0.1529 224262.4000
      2     10   1      0.1090 284512.0000
      3      4   1      0.1529 224262.4000
      3     11   1      0.1090 284512.0000
      3     12   1      0.1090 284512.0000
      4      5   1      0.1529 224262.4000
      4     13   1      0.1090 284512.0000
      4     14   1      0.1090 284512.0000
      5      6   1      0.1529 224262.4000
      5     15   1      0.1090 284512.0000
      5     16   1      0.1090 284512.0000
      6      7   1      0.1529 224262.4000
      6     17   1      0.1090 284512.0000
      6     18   1      0.1090 284512.0000
      7     19   1      0.1090 284512.0000
      7     20   1      0.1090 284512.0000
      8     21   1      0.1090 284512.0000
      8     22   1      0.1090 284512.0000
      8     24   1      0.1529 224262.4000
     24     25   1      0.1529 224262.4000
     24     31   1      0.1529 224262.4000
     24     32   1      0.1090 284512.0000
     25     26   1      0.1529 224262.4000
     25     30   1      0.1529 224262.4000
     25     33   1      0.1090 284512.0000
     26     27   1      0.1529 224262.4000
     26     34   1      0.1090 284512.0000
     26     35   1      0.1090 284512.0000
     27     28   1      0.1529 224262.4000
     27     36   1      0.1090 284512.0000
     27     37   1      0.1090 284512.0000
     28     29   1      0.1529 224262.4000
     28     38   1      0.1090 284512.0000
     28     39   1      0.1090 284512.0000
     29     30   1      0.1529 224262.4000
     29     40   1      0.1090 284512.0000
     29     41   1      0.1090 284512.0000
     30     42   1      0.1090 284512.0000
     30     43   1      0.1090 284512.0000
     31     44   1      0.1090 284512.0000
     31     45   1      0.1090 284512.0000
     31     46   1      0.1529 224262.4000
     46     47   1      0.1529 224262.4000
     46     53   1      0.1529 224262.4000
     46     54   1      0.1090 284512.0000
     47     48   1      0.1529 224262.4000
     47     52   1      0.1529 224262.4000
     47     55   1      0.1090 284512.0000
     48     49   1      0.1529 224262.4000
     48     56   1      0.1090 284512.0000
     48     57   1      0.1090 284512.0000
     49     50   1      0.1529 224262.4000
     49     58   1      0.1090 284512.0000
     49     59   1      0.1090 284512.0000
     50     51   1      0.1529 224262.4000
     50     60   1      0.1090 284512.0000
     50     61   1      0.1090 284512.0000
     51     52   1      0.1529 224262.4000
     51     62   1      0.1090 284512.0000
     51     63   1      0.1090 284512.0000
     52     64   1      0.1090 284512.0000
     52     65   1      0.1090 284512.0000
     53     66   1      0.1090 284512.0000
     53     67   1      0.1090 284512.0000
     53     68   1      0.1529 224262.4000
     68     69   1      0.1529 224262.4000
     68     75   1      0.1529 224262.4000
     68     76   1      0.1090 284512.0000
     69     70   1      0.1529 224262.4000
     69     74   1      0.1529 224262.4000
     69     77   1      0.1090 284512.0000
     70     71   1      0.1529 224262.4000
     70     78   1      0.1090 284512.0000
     70     79   1      0.1090 284512.0000
     71     72   1      0.1529 224262.4000
     71     80   1      0.1090 284512.0000
     71     81   1      0.1090 284512.0000
     72     73   1      0.1529 224262.4000
     72     82   1      0.1090 284512.0000
     72     83   1      0.1090 284512.0000
     73     74   1      0.1529 224262.4000
     73     84   1      0.1090 284512.0000
     73     85   1      0.1090 284512.0000
     74     86   1      0.1090 284512.0000
     74     87   1      0.1090 284512.0000
     75     88   1      0.1090 284512.0000
     75     89   1      0.1090 284512.0000
     75     90   1      0.1529 224262.4000
     90     91   1      0.1529 224262.4000
     90     97   1      0.1529 224262.4000
     90     98   1      0.1090 284512.0000
     91     92   1      0.1529 224262.4000
     91     96   1      0.1529 224262.4000
     91     99   1      0.1090 284512.0000
     92     93   1      0.1529 224262.4000
     92    100   1      0.1090 284512.0000
     92    101   1      0.1090 284512.0000
     93     94   1      0.1529 224262.4000
     93    102   1      0.1090 284512.0000
     93    103   1      0.1090 284512.0000
     94     95   1      0.1529 224262.4000
     94    104   1      0.1090 284512.0000
     94    105   1      0.1090 284512.0000
     95     96   1      0.1529 224262.4000
     95    106   1      0.1090 284512.0000
     95    107   1      0.1090 284512.0000
     96    108   1      0.1090 284512.0000
     96    109   1      0.1090 284512.0000
     97    110   1      0.1090 284512.0000
     97    111   1      0.1090 284512.0000
     97    112   1      0.1529 224262.4000
    112    113   1      0.1529 224262.4000
    112    119   1      0.1529 224262.4000
    112    120   1      0.1090 284512.0000
    113    114   1      0.1529 224262.4000
    113    118   1      0.1529 224262.4000
    113    121   1      0.1090 284512.0000
    114    115   1      0.1529 224262.4000
    114    122   1      0.1090 284512.0000
    114    123   1      0.1090 284512.0000
    115    116   1      0.1529 224262.4000
    115    124   1      0.1090 284512.0000
    115    125   1      0.1090 284512.0000
    116    117   1      0.1529 224262.4000
    116    126   1      0.1090 284512.0000
    116    127   1      0.1090 284512.0000
    117    118   1      0.1529 224262.4000
    117    128   1      0.1090 284512.0000
    117    129   1      0.1090 284512.0000
    118    130   1      0.1090 284512.0000
    118    131   1      0.1090 284512.0000
    119    132   1      0.1090 284512.0000
    119    133   1      0.1090 284512.0000
    119    134   1      0.1529 224262.4000
    134    135   1      0.1529 224262.4000
    134    141   1      0.1529 224262.4000
    134    142   1      0.1090 284512.0000
    135    136   1      0.1529 224262.4000
    135    140   1      0.1529 224262.4000
    135    143   1      0.1090 284512.0000
    136    137   1      0.1529 224262.4000
    136    144   1      0.1090 284512.0000
    136    145   1      0.1090 284512.0000
    137    138   1      0.1529 224262.4000
    137    146   1      0.1090 284512.0000
    137    147   1      0.1090 284512.0000
    138    139   1      0.1529 224262.4000
    138    148   1      0.1090 284512.0000
    138    149   1      0.1090 284512.0000
    139    140   1      0.1529 224262.4000
    139    150   1      0.1090 284512.0000
    139    151   1      0.1090 284512.0000
    140    152   1      0.1090 284512.0000
    140    153   1      0.1090 284512.0000
    141    154   1      0.1090 284512.0000
    141    155   1      0.1090 284512.0000
    141    156   1      0.1529 224262.4000
    156    157   1      0.1529 224262.4000
    156    163   1      0.1529 224262.4000
    156    164   1      0.1090 284512.0000
    157    158   1      0.1529 224262.4000
    157    162   1      0.1529 224262.4000
    157    165   1      0.1090 284512.0000
    158    159   1      0.1529 224262.4000
    158    166   1      0.1090 284512.0000
    158    167   1      0.1090 284512.0000
    159    160   1      0.1529 224262.4000
    159    168   1      0.1090 284512.0000
    159    169   1      0.1090 284512.0000
    160    161   1      0.1529 224262.4000
    160    170   1      0.1090 284512.0000
    160    171   1      0.1090 284512.0000
    161    162   1      0.1529 224262.4000
    161    172   1      0.1090 284512.0000
    161    173   1      0.1090 284512.0000
    162    174   1      0.1090 284512.0000
    162    175   1      0.1090 284512.0000
    163    176   1      0.1090 284512.0000
    163    177   1      0.1090 284512.0000
    163    178   1      0.1529 224262.4000
    178    179   1      0.1529 224262.4000
    178    185   1      0.1529 224262.4000
    178    186   1      0.1090 284512.0000
    179    180   1      0.1529 224262.4000
    179    184   1      0.1529 224262.4000
    179    187   1      0.1090 284512.0000
    180    181   1      0.1529 224262.4000
    180    188   1      0.1090 284512.0000
    180    189   1      0.1090 284512.0000
    181    182   1      0.1529 224262.4000
    181    190   1      0.1090 284512.0000
    181    191   1      0.1090 284512.0000
    182    183   1      0.1529 224262.4000
    182    192   1      0.1090 284512.0000
    182    193   1      0.1090 284512.0000
    183    184   1      0.1529 224262.4000
    183    194   1      0.1090 284512.0000
    183    195   1      0.1090 284512.0000
    184    196   1      0.1090 284512.0000
    184    197   1      0.1090 284512.0000
    185    198   1      0.1090 284512.0000
    185    199   1      0.1090 284512.0000
    185    200   1      0.1529 224262.4000
    200    201   1      0.1529 224262.4000
    200    207   1      0.1529 224262.4000
    200    208   1      0.1090 284512.0000
    201    202   1      0.1529 224262.4000
    201    206   1      0.1529 224262.4000
    201    209   1      0.1090 284512.0000
    202    203   1      0.1529 224262.4000
    202    210   1      0.1090 284512.0000
    202    211   1      0.1090 284512.0000
    203    204   1      0.1529 224262.4000
    203    212   1      0.1090 284512.0000
    203    213   1      0.1090 284512.0000
    204    205   1      0.1529 224262.4000
    204    214   1      0.1090 284512.0000
    204    215   1      0.1090 284512.0000
    205    206   1      0.1529 224262.4000
    205    216   1      0.1090 284512.0000
    205    217   1      0.1090 284512.0000
    206    218   1      0.1090 284512.0000
    206    219   1      0.1090 284512.0000
    207    220   1      0.1090 284512.0000
    207    221   1      0.1090 284512.0000
    207    222   1      0.1529 224262.4000
    222    223   1      0.1529 224262.4000
    222    229   1      0.1529 224262.4000
    222    230   1      0.1090 284512.0000
    223    224   1      0.1529 224262.4000
    223    228   1      0.1529 224262.4000
    223    231   1      0.1090 284512.0000
    224    225   1      0.1529 224262.4000
    224    232   1      0.1090 284512.0000
    224    233   1      0.1090 284512.0000
    225    226   1      0.1529 224262.4000
    225    234   1      0.1090 284512.0000
    225    235   1      0.1090 284512.0000
    226    227   1      0.1529 224262.4000
    226    236   1      0.1090 284512.0000
    226    237   1      0.1090 284512.0000
    227    228   1      0.1529 224262.4000
    227    238   1      0.1090 284512.0000
    227    239   1      0.1090 284512.0000
    228    240   1      0.1090 284512.0000
    228    241   1      0.1090 284512.0000
    229    242   1      0.1090 284512.0000
    229    243   1      0.1090 284512.0000
    229    244   1      0.1529 224262.4000
    244    245   1      0.1529 224262.4000
    244    251   1      0.1529 224262.4000
    244    252   1      0.1090 284512.0000
    245    246   1      0.1529 224262.4000
    245    250   1      0.1529 224262.4000
    245    253   1      0.1090 284512.0000
    246    247   1      0.1529 224262.4000
    246    254   1      0.1090 284512.0000
    246    255   1      0.1090 284512.0000
    247    248   1      0.1529 224262.4000
    247    256   1      0.1090 284512.0000
    247    257   1      0.1090 284512.0000
    248    249   1      0.1529 224262.4000
    248    258   1      0.1090 284512.0000
    248    259   1      0.1090 284512.0000
    249    250   1      0.1529 224262.4000
    249    260   1      0.1090 284512.0000
    249    261   1      0.1090 284512.0000
    250    262   1      0.1090 284512.0000
    250    263   1      0.1090 284512.0000
    251    264   1      0.1090 284512.0000
    251    265   1      0.1090 284512.0000
    251    266   1      0.1529 224262.4000
    266    267   1      0.1529 224262.4000
    266    273   1      0.1529 224262.4000
    266    274   1      0.1090 284512.0000
    267    268   1      0.1529 224262.4000
    267    272   1      0.1529 224262.4000
    267    275   1      0.1090 284512.0000
    268    269   1      0.1529 224262.4000
    268    276   1      0.1090 284512.0000
    268    277   1      0.1090 284512.0000
    269    270   1      0.1529 224262.4000
    269    278   1      0.1090 284512.0000
    269    279   1      0.1090 284512.0000
    270    271   1      0.1529 224262.4000
    270    280   1      0.1090 284512.0000
    270    281   1      0.1090 284512.0000
    271    272   1      0.1529 224262.4000
    271    282   1      0.1090 284512.0000
    271    283   1      0.1090 284512.0000
    272    284   1      0.1090 284512.0000
    272    285   1      0.1090 284512.0000
    273    286   1      0.1090 284512.0000
    273    287   1      0.1090 284512.0000
    273    288   1      0.1529 224262.4000
    288    289   1      0.1529 224262.4000
    288    295   1      0.1529 224262.4000
    288    296   1      0.1090 284512.0000
    289    290   1      0.1529 224262.4000
    289    294   1      0.1529 224262.4000
    289    297   1      0.1090 284512.0000
    290    291   1      0.1529 224262.4000
    290    298   1      0.1090 284512.0000
    290    299   1      0.1090 284512.0000
    291    292   1      0.1529 224262.4000
    291    300   1      0.1090 284512.0000
    291    301   1      0.1090 284512.0000
    292    293   1      0.1529 224262.4000
    292    302   1      0.1090 284512.0000
    292    303   1      0.1090 284512.0000
    293    294   1      0.1529 224262.4000
    293    304   1      0.1090 284512.0000
    293    305   1      0.1090 284512.0000
    294    306   1      0.1090 284512.0000
    294    307   1      0.1090 284512.0000
    295    308   1      0.1090 284512.0000
    295    309   1      0.1090 284512.0000
    295    310   1      0.1529 224262.4000
    310    311   1      0.1529 224262.4000
    310    317   1      0.1529 224262.4000
    310    318   1      0.1090 284512.0000
    311    312   1      0.1529 224262.4000
    311    316   1      0.1529 224262.4000
    311    319   1      0.1090 284512.0000
    312    313   1      0.1529 224262.4000
    312    320   1      0.1090 284512.0000
    312    321   1      0.1090 284512.0000
    313    314   1      0.1529 224262.4000
    313    322   1      0.1090 284512.0000
    313    323   1      0.1090 284512.0000
    314    315   1      0.1529 224262.4000
    314    324   1      0.1090 284512.0000
    314    325   1      0.1090 284512.0000
    315    316   1      0.1529 224262.4000
    315    326   1      0.1090 284512.0000
    315    327   1      0.1090 284512.0000
    316    328   1      0.1090 284512.0000
    316    329   1      0.1090 284512.0000
    317    330   1      0.1090 284512.0000
    317    331   1      0.1090 284512.0000
    317    332   1      0.1529 224262.4000
    332    333   1      0.1529 224262.4000
    332    339   1      0.1529 224262.4000
    332    340   1      0.1090 284512.0000
    333    334   1      0.1529 224262.4000
    333    338   1      0.1529 224262.4000
    333    341   1      0.1090 284512.0000
    334    335   1      0.1529 224262.4000
    334    342   1      0.1090 284512.0000
    334    343   1      0.1090 284512.0000
    335    336   1      0.1529 224262.4000
    335    344   1      0.1090 284512.0000
    335    345   1      0.1090 284512.0000
    336    337   1      0.1529 224262.4000
    336    346   1      0.1090 284512.0000
    336    347   1      0.1090 284512.0000
    337    338   1      0.1529 224262.4000
    337    348   1      0.1090 284512.0000
    337    349   1      0.1090 284512.0000
    338    350   1      0.1090 284512.0000
    338    351   1      0.1090 284512.0000
    339    352   1      0.1090 284512.0000
    339    353   1      0.1090 284512.0000
    339    354   1      0.1529 224262.4000
    354    355   1      0.1529 224262.4000
    354    361   1      0.1529 224262.4000
    354    362   1      0.1090 284512.0000
    355    356   1      0.1529 224262.4000
    355    360   1      0.1529 224262.4000
    355    363   1      0.1090 284512.0000
    356    357   1      0.1529 224262.4000
    356    364   1      0.1090 284512.0000
    356    365   1      0.1090 284512.0000
    357    358   1      0.1529 224262.4000
    357    366   1      0.1090 284512.0000
    357    367   1      0.1090 284512.0000
    358    359   1      0.1529 224262.4000
    358    368   1      0.1090 284512.0000
    358    369   1      0.1090 284512.0000
    359    360   1      0.1529 224262.4000
    359    370   1      0.1090 284512.0000
    359    371   1      0.1090 284512.0000
    360    372   1      0.1090 284512.0000
    360    373   1      0.1090 284512.0000
    361    374   1      0.1090 284512.0000
    361    375   1      0.1090 284512.0000
    361    376   1      0.1529 224262.4000
    376    377   1      0.1529 224262.4000
    376    383   1      0.1529 224262.4000
    376    384   1      0.1090 284512.0000
    377    378   1      0.1529 224262.4000
    377    382   1      0.1529 224262.4000
    377    385   1      0.1090 284512.0000
    378    379   1      0.1529 224262.4000
    378    386   1      0.1090 284512.0000
    378    387   1      0.1090 284512.0000
    379    380   1      0.1529 224262.4000
    379    388   1      0.1090 284512.0000
    379    389   1      0.1090 284512.0000
    380    381   1      0.1529 224262.4000
    380    390   1      0.1090 284512.0000
    380    391   1      0.1090 284512.0000
    381    382   1      0.1529 224262.4000
    381    392   1      0.1090 284512.0000
    381    393   1      0.1090 284512.0000
    382    394   1      0.1090 284512.0000
    382    395   1      0.1090 284512.0000
    383    396   1      0.1090 284512.0000
    383    397   1      0.1090 284512.0000
    383    398   1      0.1529 224262.4000
    398    399   1      0.1529 224262.4000
    398    405   1      0.1529 224262.4000
    398    406   1      0.1090 284512.0000
    399    400   1      0.1529 224262.4000
    399    404   1      0.1529 224262.4000
    399    407   1      0.1090 284512.0000
    400    401   1      0.1529 224262.4000
    400    408   1      0.1090 284512.0000
    400    409   1      0.1090 284512.0000
    401    402   1      0.1529 224262.4000
    401    410   1      0.1090 284512.0000
    401    411   1      0.1090 284512.0000
    402    403   1      0.1529 224262.4000
    402    412   1      0.1090 284512.0000
    402    413   1      0.1090 284512.0000
    403    404   1      0.1529 224262.4000
    403    414   1      0.1090 284512.0000
    403    415   1      0.1090 284512.0000
    404    416   1      0.1090 284512.0000
    404    417   1      0.1090 284512.0000
    405    418   1      0.1090 284512.0000
    405    419   1      0.1090 284512.0000
    405    420   1      0.1529 224262.4000
    420    421   1      0.1529 224262.4000
    420    427   1      0.1529 224262.4000
    420    428   1      0.1090 284512.0000
    421    422   1      0.1529 224262.4000
    421    426   1      0.1529 224262.4000
    421    429   1      0.1090 284512.0000
    422    423   1      0.1529 224262.4000
    422    430   1      0.1090 284512.0000
    422    431   1      0.1090 284512.0000
    423    424   1      0.1529 224262.4000
    423    432   1      0.1090 284512.0000
    423    433   1      0.1090 284512.0000
    424    425   1      0.1529 224262.4000
    424    434   1      0.1090 284512.0000
    424    435   1      0.1090 284512.0000
    425    426   1      0.1529 224262.4000
    425    436   1      0.1090 284512.0000
    425    437   1      0.1090 284512.0000
    426    438   1      0.1090 284512.0000
    426    439   1      0.1090 284512.0000
    427    440   1      0.1090 284512.0000
    427    441   1      0.1090 284512.0000
    427    442   1      0.1090 284512.0000

[ pairs ]
; ai   aj   funct   fudge_QQ  charge_i   charge_j   c6    c12
      8      3   2   0.50000    -0.1200000   -0.1200000   1.015252e-03  1.866303e-06
      8      7   2   0.50000    -0.1200000   -0.1200000   1.015252e-03  1.866303e-06
      8     10   2   0.50000    -0.1200000    0.0600000   2.494471e-04  1.671101e-07
      9      3   2   0.50000     0.0600000   -0.1200000   2.494471e-04  1.671101e-07
      9      7   2   0.50000     0.0600000   -0.1200000   2.494471e-04  1.671101e-07
      9     10   2   0.50000     0.0600000    0.0600000   6.128906e-05  1.496315e-08
     23      3   2   0.50000     0.0600000   -0.1200000   2.494471e-04  1.671101e-07
     23      7   2   0.50000     0.0600000   -0.1200000   2.494471e-04  1.671101e-07
     23     10   2   0.50000     0.0600000    0.0600000   6.128906e-05  1.496315e-08
      2     21   2   0.50000    -0.0600000    0.0600000   2.494471e-04  1.671101e-07
      2     22   2   0.50000    -0.0600000    0.0600000   2.494471e-04  1.671101e-07
      2     24   2   0.50000    -0.0600000   -0.0600000   1.015252e-03  1.866303e-06
      9     21   2   0.50000     0.0600000    0.0600000   6.128906e-05  1.496315e-08
      9     22   2   0.50000     0.0600000    0.0600000   6.128906e-05  1.496315e-08
      9     24   2   0.50000     0.0600000   -0.0600000   2.494471e-04  1.671101e-07
     23     21   2   0.50000     0.0600000    0.0600000   6.128906e-05  1.496315e-08
     23     22   2   0.50000     0.0600000    0.0600000   6.128906e-05  1.496315e-08
     23     24   2   0.50000     0.0600000   -0.0600000   2.494471e-04  1.671101e-07
      1      4   2   0.50000    -0.1200000   -0.1200000   1.015252e-03  1.866303e-06
      1     11   2   0.50000    -0.1200000    0.0600000   2.494471e-04  1.671101e-07
      1     12   2   0.50000    -0.1200000    0.0600000   2.494471e-04  1.671101e-07
      7      4   2   0.50000    -0.1200000   -0.1200000   1.015252e-03  1.866303e-06
      7     11   2   0.50000    -0.1200000    0.0600000   2.494471e-04  1.671101e-07
      7     12   2   0.50000    -0.1200000    0.0600000   2.494471e-04  1.671101e-07
     10      4   2   0.50000     0.0600000   -0.1200000   2.494471e-04  1.671101e-07
     10     11   2   0.50000     0.0600000    0.0600000   6.128906e-05  1.496315e-08
     10     12   2   0.50000     0.0600000    0.0600000   6.128906e-05  1.496315e-08
      1      6   2   0.50000    -0.1200000   -0.1200000   1.015252e-03  1.866303e-06
      1     19   2   0.50000    -0.1200000    0.0600000   2.494471e-04  1.671101e-07
      1     20   2   0.50000    -0.1200000    0.0600000   2.494471e-04  1.671101e-07
      3      6   2   0.50000    -0.1200000   -0.1200000   1.015252e-03  1.866303e-06
      3     19   2   0.50000    -0.1200000    0.0600000   2.494471e-04  1.671101e-07
      3     20   2   0.50000    -0.1200000    0.0600000   2.494471e-04  1.671101e-07
     10      6   2   0.50000     0.0600000   -0.1200000   2.494471e-04  1.671101e-07
     10     19   2   0.50000     0.0600000    0.0600000   6.128906e-05  1.496315e-08
     10     20   2   0.50000     0.0600000    0.0600000   6.128906e-05  1.496315e-08
      2      5   2   0.50000    -0.0600000   -0.1200000   1.015252e-03  1.866303e-06
      2     13   2   0.50000    -0.0600000    0.0600000   2.494471e-04  1.671101e-07
      2     14   2   0.50000    -0.0600000    0.0600000   2.494471e-04  1.671101e-07
     11      5   2   0.50000     0.0600000   -0.1200000   2.494471e-04  1.671101e-07
     11     13   2   0.50000     0.0600000    0.0600000   6.128906e-05  1.496315e-08
     11     14   2   0.50000     0.0600000    0.0600000   6.128906e-05  1.496315e-08
     12      5   2   0.50000     0.0600000   -0.1200000   2.494471e-04  1.671101e-07
     12     13   2   0.50000     0.0600000    0.0600000   6.128906e-05  1.496315e-08
     12     14   2   0.50000     0.0600000    0.0600000   6.128906e-05  1.496315e-08
      3     15   2   0.50000    -0.1200000    0.0600000   2.494471e-04  1.671101e-07
      3     16   2   0.50000    -0.1200000    0.0600000   2.494471e-04  1.671101e-07
     13      6   2   0.50000     0.0600000   -0.1200000   2.494471e-04  1.671101e-07
     13     15   2   0.50000     0.0600000    0.0600000   6.128906e-05  1.496315e-08
     13     16   2   0.50000     0.0600000    0.0600000   6.128906e-05  1.496315e-08
     14      6   2   0.50000     0.0600000   -0.1200000   2.494471e-04  1.671101e-07
     14     15   2   0.50000     0.0600000    0.0600000   6.128906e-05  1.496315e-08
     14     16   2   0.50000     0.0600000    0.0600000   6.128906e-05  1.496315e-08
      4     17   2   0.50000    -0.1200000    0.0600000   2.494471e-04  1.671101e-07
      4     18   2   0.50000    -0.1200000    0.0600000   2.494471e-04  1.671101e-07
     15      7   2   0.50000     0.0600000   -0.1200000   2.494471e-04  1.671101e-07
     15     17   2   0.50000     0.0600000    0.0600000   6.128906e-05  1.496315e-08
     15     18   2   0.50000     0.0600000    0.0600000   6.128906e-05  1.496315e-08
     16      7   2   0.50000     0.0600000   -0.1200000   2.494471e-04  1.671101e-07
     16     17   2   0.50000     0.0600000    0.0600000   6.128906e-05  1.496315e-08
     16     18   2   0.50000     0.0600000    0.0600000   6.128906e-05  1.496315e-08
      5     19   2   0.50000    -0.1200000    0.0600000   2.494471e-04  1.671101e-07
      5     20   2   0.50000    -0.1200000    0.0600000   2.494471e-04  1.671101e-07
     17      2   2   0.50000     0.0600000   -0.0600000   2.494471e-04  1.671101e-07
     17     19   2   0.50000     0.0600000    0.0600000   6.128906e-05  1.496315e-08
     17     20   2   0.50000     0.0600000    0.0600000   6.128906e-05  1.496315e-08
     18      2   2   0.50000     0.0600000   -0.0600000   2.494471e-04  1.671101e-07
     18     19   2   0.50000     0.0600000    0.0600000   6.128906e-05  1.496315e-08
     18     20   2   0.50000     0.0600000    0.0600000   6.128906e-05  1.496315e-08
      1     25   2   0.50000    -0.1200000   -0.0600000   1.015252e-03  1.866303e-06
      1     31   2   0.50000    -0.1200000   -0.1200000   1.015252e-03  1.866303e-06
      1     32   2   0.50000    -0.1200000    0.0600000   2.494471e-04  1.671101e-07
     21     25   2   0.50000     0.0600000   -0.0600000   2.494471e-04  1.671101e-07
     21     31   2   0.50000     0.0600000   -0.1200000   2.494471e-04  1.671101e-07
     21     32   2   0.50000     0.0600000    0.0600000   6.128906e-05  1.496315e-08
     22     25   2   0.50000     0.0600000   -0.0600000   2.494471e-04  1.671101e-07
     22     31   2   0.50000     0.0600000   -0.1200000   2.494471e-04  1.671101e-07
     22     32   2   0.50000     0.0600000    0.0600000   6.128906e-05  1.496315e-08
      8     26   2   0.50000    -0.1200000   -0.1200000   1.015252e-03  1.866303e-06
      8     30   2   0.50000    -0.1200000   -0.1200000   1.015252e-03  1.866303e-06
      8     33   2   0.50000    -0.1200000    0.0600000   2.494471e-04  1.671101e-07
     31     26   2   0.50000    -0.1200000   -0.1200000   1.015252e-03  1.866303e-06
     31     30   2   0.50000    -0.1200000   -0.1200000   1.015252e-03  1.866303e-06
     31     33   2   0.50000    -0.1200000    0.0600000   2.494471e-04  1.671101e-07
     32     26   2   0.50000     0.0600000   -0.1200000   2.494471e-04  1.671101e-07
     32     30   2   0.50000     0.0600000   -0.1200000   2.494471e-04  1.671101e-07
     32     33   2   0.50000     0.0600000    0.0600000   6.128906e-05  1.496315e-08
      8     44   2   0.50000    -0.1200000    0.0600000   2.494471e-04  1.671101e-07
      8     45   2   0.50000    -0.1200000    0.0600000   2.494471e-04  1.671101e-07
      8     46   2   0.50000    -0.1200000   -0.0600000   1.015252e-03  1.866303e-06
     25     44   2   0.50000    -0.0600000    0.0600000   2.494471e-04  1.671101e-07
     25     45   2   0.50000    -0.0600000    0.0600000   2.494471e-04  1.671101e-07
     25     46   2   0.50000    -0.0600000   -0.0600000   1.015252e-03  1.866303e-06
     32     44   2   0.50000     0.0600000    0.0600000   6.128906e-05  1.496315e-08
     32     45   2   0.50000     0.0600000    0.0600000   6.128906e-05  1.496315e-08
     32     46   2   0.50000     0.0600000   -0.0600000   2.494471e-04  1.671101e-07
     24     27   2   0.50000    -0.0600000   -0.1200000   1.015252e-03  1.866303e-06
     24     34   2   0.50000    -0.0600000    0.0600000   2.494471e-04  1.671101e-07
     24     35   2   0.50000    -0.0600000    0.0600000   2.494471e-04  1.671101e-07
     30     27   2   0.50000    -0.1200000   -0.1200000   1.015252e-03  1.866303e-06
     30     34   2   0.50000    -0.1200000    0.0600000   2.494471e-04  1.671101e-07
     30     35   2   0.50000    -0.1200000    0.0600000   2.494471e-04  1.671101e-07
     33     27   2   0.50000     0.0600000   -0.1200000   2.494471e-04  1.671101e-07
     33     34   2   0.50000     0.0600000    0.0600000   6.128906e-05  1.496315e-08
     33     35   2   0.50000     0.0600000    0.0600000   6.128906e-05  1.496315e-08
     24     29   2   0.50000    -0.0600000   -0.1200000   1.015252e-03  1.866303e-06
     24     42   2   0.50000    -0.0600000    0.0600000   2.494471e-04  1.671101e-07
     24     43   2   0.50000    -0.0600000    0.0600000   2.494471e-04  1.671101e-07
     26     29   2   0.50000    -0.1200000   -0.1200000   1.015252e-03  1.866303e-06
     26     42   2   0.50000    -0.1200000    0.0600000   2.494471e-04  1.671101e-07
     26     43   2   0.50000    -0.1200000    0.0600000   2.494471e-04  1.671101e-07
     33     29   2   0.50000     0.0600000   -0.1200000   2.494471e-04  1.671101e-07
     33     42   2   0.50000     0.0600000    0.0600000   6.128906e-05  1.496315e-08
     33     43   2   0.50000     0.0600000    0.0600000   6.128906e-05  1.496315e-08
     25     28   2   0.50000    -0.0600000   -0.1200000   1.015252e-03  1.866303e-06
     25     36   2   0.50000    -0.0600000    0.0600000   2.494471e-04  1.671101e-07
     25     37   2   0.50000    -0.0600000    0.0600000   2.494471e-04  1.671101e-07
     34     28   2   0.50000     0.0600000   -0.1200000   2.494471e-04  1.671101e-07
     34     36   2   0.50000     0.0600000    0.0600000   6.128906e-05  1.496315e-08
     34     37   2   0.50000     0.0600000    0.0600000   6.128906e-05  1.496315e-08
     35     28   2   0.50000     0.0600000   -0.1200000   2.494471e-04  1.671101e-07
     35     36   2   0.50000     0.0600000    0.0600000   6.128906e-05  1.496315e-08
     35     37   2   0.50000     0.0600000    0.0600000   6.128906e-05  1.496315e-08
     26     38   2   0.50000    -0.1200000    0.0600000   2.494471e-04  1.671101e-07
     26     39   2   0.50000    -0.1200000    0.0600000   2.494471e-04  1.671101e-07
     36     29   2   0.50000     0.0600000   -0.1200000   2.494471e-04  1.671101e-07
     36     38   2   0.50000     0.0600000    0.0600000   6.128906e-05  1.496315e-08
     36     39   2   0.50000     0.0600000    0.0600000   6.128906e-05  1.496315e-08
     37     29   2   0.50000     0.0600000   -0.1200000   2.494471e-04  1.671101e-07
     37     38   2   0.50000     0.0600000    0.0600000   6.128906e-05  1.496315e-08
     37     39   2   0.50000     0.0600000    0.0600000   6.128906e-05  1.496315e-08
     27     40   2   0.50000    -0.1200000    0.0600000   2.494471e-04  1.671101e-07
     27     41   2   0.50000    -0.1200000    0.0600000   2.494471e-04  1.671101e-07
     38     30   2   0.50000     0.0600000   -0.1200000   2.494471e-04  1.671101e-07
     38     40   2   0.50000     0.0600000    0.0600000   6.128906e-05  1.496315e-08
     38     41   2   0.50000     0.0600000    0.0600000   6.128906e-05  1.496315e-08
     39     30   2   0.50000     0.0600000   -0.1200000   2.494471e-04  1.671101e-07
     39     40   2   0.50000     0.0600000    0.0600000   6.128906e-05  1.496315e-08
     39     41   2   0.50000     0.0600000    0.0600000   6.128906e-05  1.496315e-08
     28     42   2   0.50000    -0.1200000    0.0600000   2.494471e-04  1.671101e-07
     28     43   2   0.50000    -0.1200000    0.0600000   2.494471e-04  1.671101e-07
     40     25   2   0.50000     0.0600000   -0.0600000   2.494471e-04  1.671101e-07
     40     42   2   0.50000     0.0600000    0.0600000   6.128906e-05  1.496315e-08
     40     43   2   0.50000     0.0600000    0.0600000   6.128906e-05  1.496315e-08
     41     25   2   0.50000     0.0600000   -0.0600000   2.494471e-04  1.671101e-07
     41     42   2   0.50000     0.0600000    0.0600000   6.128906e-05  1.496315e-08
     41     43   2   0.50000     0.0600000    0.0600000   6.128906e-05  1.496315e-08
     24     47   2   0.50000    -0.0600000   -0.0600000   1.015252e-03  1.866303e-06
     24     53   2   0.50000    -0.0600000   -0.1200000   1.015252e-03  1.866303e-06
     24     54   2   0.50000    -0.0600000    0.0600000   2.494471e-04  1.671101e-07
     44     47   2   0.50000     0.0600000   -0.0600000   2.494471e-04  1.671101e-07
     44     53   2   0.50000     0.0600000   -0.1200000   2.494471e-04  1.671101e-07
     44     54   2   0.50000     0.0600000    0.0600000   6.128906e-05  1.496315e-08
     45     47   2   0.50000     0.0600000   -0.0600000   2.494471e-04  1.671101e-07
     45     53   2   0.50000     0.0600000   -0.1200000   2.494471e-04  1.671101e-07
     45     54   2   0.50000     0.0600000    0.0600000   6.128906e-05  1.496315e-08
     31     48   2   0.50000    -0.1200000   -0.1200000   1.015252e-03  1.866303e-06
     31     52   2   0.50000    -0.1200000   -0.1200000   1.015252e-03  1.866303e-06
     31     55   2   0.50000    -0.1200000    0.0600000   2.494471e-04  1.671101e-07
     53     48   2   0.50000    -0.1200000   -0.1200000   1.015252e-03  1.866303e-06
     53     52   2   0.50000    -0.1200000   -0.1200000   1.015252e-03  1.866303e-06
     53     55   2   0.50000    -0.1200000    0.0600000   2.494471e-04  1.671101e-07
     54     48   2   0.50000     0.0600000   -0.1200000   2.494471e-04  1.671101e-07
     54     52   2   0.50000     0.0600000   -0.1200000   2.494471e-04  1.671101e-07
     54     55   2   0.50000     0.0600000    0.0600000   6.128906e-05  1.496315e-08
     31     66   2   0.50000    -0.1200000    0.0600000   2.494471e-04  1.671101e-07
     31     67   2   0.50000    -0.1200000    0.0600000   2.494471e-04  1.671101e-07
     31     68   2   0.50000    -0.1200000   -0.0600000   1.015252e-03  1.866303e-06
     47     66   2   0.50000    -0.0600000    0.0600000   2.494471e-04  1.671101e-07
     47     67   2   0.50000    -0.0600000    0.0600000   2.494471e-04  1.671101e-07
     47     68   2   0.50000    -0.0600000   -0.0600000   1.015252e-03  1.866303e-06
     54     66   2   0.50000     0.0600000    0.0600000   6.128906e-05  1.496315e-08
     54     67   2   0.50000     0.0600000    0.0600000   6.128906e-05  1.496315e-08
     54     68   2   0.50000     0.0600000   -0.0600000   2.494471e-04  1.671101e-07
     46     49   2   0.50000    -0.0600000   -0.1200000   1.015252e-03  1.866303e-06
     46     56   2   0.50000    -0.0600000    0.0600000   2.494471e-04  1.671101e-07
     46     57   2   0.50000    -0.0600000    0.0600000   2.494471e-04  1.671101e-07
     52     49   2   0.50000    -0.1200000   -0.1200000   1.015252e-03  1.866303e-06
     52     56   2   0.50000    -0.1200000    0.0600000   2.494471e-04  1.671101e-07
     52     57   2   0.50000    -0.1200000    0.0600000   2.494471e-04  1.671101e-07
     55     49   2   0.50000     0.0600000   -0.1200000   2.494471e-04  1.671101e-07
     55     56   2   0.50000     0.0600000    0.0600000   6.128906e-05  1.496315e-08
     55     57   2   0.50000     0.0600000    0.0600000   6.128906e-05  1.496315e-08
     46     51   2   0.50000    -0.0600000   -0.1200000   1.015252e-03  1.866303e-06
     46     64   2   0.50000    -0.0600000    0.0600000   2.494471e-04  1.671101e-07
     46     65   2   0.50000    -0.0600000    0.0600000   2.494471e-04  1.671101e-07
     48     51   2   0.50000    -0.1200000   -0.1200000   1.015252e-03  1.866303e-06
     48     64   2   0.50000    -0.1200000    0.0600000   2.494471e-04  1.671101e-07
     48     65   2   0.50000    -0.1200000    0.0600000   2.494471e-04  1.671101e-07
     55     51   2   0.50000     0.0600000   -0.1200000   2.494471e-04  1.671101e-07
     55     64   2   0.50000     0.0600000    0.0600000   6.128906e-05  1.496315e-08
     55     65   2   0.50000     0.0600000    0.0600000   6.128906e-05  1.496315e-08
     47     50   2   0.50000    -0.0600000   -0.1200000   1.015252e-03  1.866303e-06
     47     58   2   0.50000    -0.0600000    0.0600000   2.494471e-04  1.671101e-07
     47     59   2   0.50000    -0.0600000    0.0600000   2.494471e-04  1.671101e-07
     56     50   2   0.50000     0.0600000   -0.1200000   2.494471e-04  1.671101e-07
     56     58   2   0.50000     0.0600000    0.0600000   6.128906e-05  1.496315e-08
     56     59   2   0.50000     0.0600000    0.0600000   6.128906e-05  1.496315e-08
     57     50   2   0.50000     0.0600000   -0.1200000   2.494471e-04  1.671101e-07
     57     58   2   0.50000     0.0600000    0.0600000   6.128906e-05  1.496315e-08
     57     59   2   0.50000     0.0600000    0.0600000   6.128906e-05  1.496315e-08
     48     60   2   0.50000    -0.1200000    0.0600000   2.494471e-04  1.671101e-07
     48     61   2   0.50000    -0.1200000    0.0600000   2.494471e-04  1.671101e-07
     58     51   2   0.50000     0.0600000   -0.1200000   2.494471e-04  1.671101e-07
     58     60   2   0.50000     0.0600000    0.0600000   6.128906e-05  1.496315e-08
     58     61   2   0.50000     0.0600000    0.0600000   6.128906e-05  1.496315e-08
     59     51   2   0.50000     0.0600000   -0.1200000   2.494471e-04  1.671101e-07
     59     60   2   0.50000     0.0600000    0.0600000   6.128906e-05  1.496315e-08
     59     61   2   0.50000     0.0600000    0.0600000   6.128906e-05  1.496315e-08
     49     62   2   0.50000    -0.1200000    0.0600000   2.494471e-04  1.671101e-07
     49     63   2   0.50000    -0.1200000    0.0600000   2.494471e-04  1.671101e-07
     60     52   2   0.50000     0.0600000   -0.1200000   2.494471e-04  1.671101e-07
     60     62   2   0.50000     0.0600000    0.0600000   6.128906e-05  1.496315e-08
     60     63   2   0.50000     0.0600000    0.0600000   6.128906e-05  1.496315e-08
     61     52   2   0.50000     0.0600000   -0.1200000   2.494471e-04  1.671101e-07
     61     62   2   0.50000     0.0600000    0.0600000   6.128906e-05  1.496315e-08
     61     63   2   0.50000     0.0600000    0.0600000   6.128906e-05  1.496315e-08
     50     64   2   0.50000    -0.1200000    0.0600000   2.494471e-04  1.671101e-07
     50     65   2   0.50000    -0.1200000    0.0600000   2.494471e-04  1.671101e-07
     62     47   2   0.50000     0.0600000   -0.0600000   2.494471e-04  1.671101e-07
     62     64   2   0.50000     0.0600000    0.0600000   6.128906e-05  1.496315e-08
     62     65   2   0.50000     0.0600000    0.0600000   6.128906e-05  1.496315e-08
     63     47   2   0.50000     0.0600000   -0.0600000   2.494471e-04  1.671101e-07
     63     64   2   0.50000     0.0600000    0.0600000   6.128906e-05  1.496315e-08
     63     65   2   0.50000     0.0600000    0.0600000   6.128906e-05  1.496315e-08
     46     69   2   0.50000    -0.0600000   -0.0600000   1.015252e-03  1.866303e-06
     46     75   2   0.50000    -0.0600000   -0.1200000   1.015252e-03  1.866303e-06
     46     76   2   0.50000    -0.0600000    0.0600000   2.494471e-04  1.671101e-07
     66     69   2   0.50000     0.0600000   -0.0600000   2.494471e-04  1.671101e-07
     66     75   2   0.50000     0.0600000   -0.1200000   2.494471e-04  1.671101e-07
     66     76   2   0.50000     0.0600000    0.0600000   6.128906e-05  1.496315e-08
     67     69   2   0.50000     0.0600000   -0.0600000   2.494471e-04  1.671101e-07
     67     75   2   0.50000     0.0600000   -0.1200000   2.494471e-04  1.671101e-07
     67     76   2   0.50000     0.0600000    0.0600000   6.128906e-05  1.496315e-08
     53     70   2   0.50000    -0.1200000   -0.1200000   1.015252e-03  1.866303e-06
     53     74   2   0.50000    -0.1200000   -0.1200000   1.015252e-03  1.866303e-06
     53     77   2   0.50000    -0.1200000    0.0600000   2.494471e-04  1.671101e-07
     75     70   2   0.50000    -0.1200000   -0.1200000   1.015252e-03  1.866303e-06
     75     74   2   0.50000    -0.1200000   -0.1200000   1.015252e-03  1.866303e-06
     75     77   2   0.50000    -0.1200000    0.0600000   2.494471e-04  1.671101e-07
     76     70   2   0.50000     0.0600000   -0.1200000   2.494471e-04  1.671101e-07
     76     74   2   0.50000     0.0600000   -0.1200000   2.494471e-04  1.671101e-07
     76     77   2   0.50000     0.0600000    0.0600000   6.128906e-05  1.496315e-08
     53     88   2   0.50000    -0.1200000    0.0600000   2.494471e-04  1.671101e-07
     53     89   2   0.50000    -0.1200000    0.0600000   2.494471e-04  1.671101e-07
     53     90   2   0.50000    -0.1200000   -0.0600000   1.015252e-03  1.866303e-06
     69     88   2   0.50000    -0.0600000    0.0600000   2.494471e-04  1.671101e-07
     69     89   2   0.50000    -0.0600000    0.0600000   2.494471e-04  1.671101e-07
     69     90   2   0.50000    -0.0600000   -0.0600000   1.015252e-03  1.866303e-06
     76     88   2   0.50000     0.0600000    0.0600000   6.128906e-05  1.496315e-08
     76     89   2   0.50000     0.0600000    0.0600000   6.128906e-05  1.496315e-08
     76     90   2   0.50000     0.0600000   -0.0600000   2.494471e-04  1.671101e-07
     68     71   2   0.50000    -0.0600000   -0.1200000   1.015252e-03  1.866303e-06
     68     78   2   0.50000    -0.0600000    0.0600000   2.494471e-04  1.671101e-07
     68     79   2   0.50000    -0.0600000    0.0600000   2.494471e-04  1.671101e-07
     74     71   2   0.50000    -0.1200000   -0.1200000   1.015252e-03  1.866303e-06
     74     78   2   0.50000    -0.1200000    0.0600000   2.494471e-04  1.671101e-07
     74     79   2   0.50000    -0.1200000    0.0600000   2.494471e-04  1.671101e-07
     77     71   2   0.50000     0.0600000   -0.1200000   2.494471e-04  1.671101e-07
     77     78   2   0.50000     0.0600000    0.0600000   6.128906e-05  1.496315e-08
     77     79   2   0.50000     0.0600000    0.0600000   6.128906e-05  1.496315e-08
     68     73   2   0.50000    -0.0600000   -0.1200000   1.015252e-03  1.866303e-06
     68     86   2   0.50000    -0.0600000    0.0600000   2.494471e-04  1.671101e-07
     68     87   2   0.50000    -0.0600000    0.0600000   2.494471e-04  1.671101e-07
     70     73   2   0.50000    -0.1200000   -0.1200000   1.015252e-03  1.866303e-06
     70     86   2   0.50000    -0.1200000    0.0600000   2.494471e-04  1.671101e-07
     70     87   2   0.50000    -0.1200000    0.0600000   2.494471e-04  1.671101e-07
     77     73   2   0.50000     0.0600000   -0.1200000   2.494471e-04  1.671101e-07
     77     86   2   0.50000     0.0600000    0.0600000   6.128906e-05  1.496315e-08
     77     87   2   0.50000     0.0600000    0.0600000   6.128906e-05  1.496315e-08
     69     72   2   0.50000    -0.0600000   -0.1200000   1.015252e-03  1.866303e-06
     69     80   2   0.50000    -0.0600000    0.0600000   2.494471e-04  1.671101e-07
     69     81   2   0.50000    -0.0600000    0.0600000   2.494471e-04  1.671101e-07
     78     72   2   0.50000     0.0600000   -0.1200000   2.494471e-04  1.671101e-07
     78     80   2   0.50000     0.0600000    0.0600000   6.128906e-05  1.496315e-08
     78     81   2   0.50000     0.0600000    0.0600000   6.128906e-05  1.496315e-08
     79     72   2   0.50000     0.0600000   -0.1200000   2.494471e-04  1.671101e-07
     79     80   2   0.50000     0.0600000    0.0600000   6.128906e-05  1.496315e-08
     79     81   2   0.50000     0.0600000    0.0600000   6.128906e-05  1.496315e-08
     70     82   2   0.50000    -0.1200000    0.0600000   2.494471e-04  1.671101e-07
     70     83   2   0.50000    -0.1200000    0.0600000   2.494471e-04  1.671101e-07
     80     73   2   0.50000     0.0600000   -0.1200000   2.494471e-04  1.671101e-07
     80     82   2   0.50000     0.0600000    0.0600000   6.128906e-05  1.496315e-08
     80     83   2   0.50000     0.0600000    0.0600000   6.128906e-05  1.496315e-08
     81     73   2   0.50000     0.0600000   -0.1200000   2.494471e-04  1.671101e-07
     81     82   2   0.50000     0.0600000    0.0600000   6.128906e-05  1.496315e-08
     81     83   2   0.50000     0.0600000    0.0600000   6.128906e-05  1.496315e-08
     71     84   2   0.50000    -0.1200000    0.0600000   2.494471e-04  1.671101e-07
     71     85   2   0.50000    -0.1200000    0.0600000   2.494471e-04  1.671101e-07
     82     74   2   0.50000     0.0600000   -0.1200000   2.494471e-04  1.671101e-07
     82     84   2   0.50000     0.0600000    0.0600000   6.128906e-05  1.496315e-08
     82     85   2   0.50000     0.0600000    0.0600000   6.128906e-05  1.496315e-08
     83     74   2   0.50000     0.0600000   -0.1200000   2.494471e-04  1.671101e-07
     83     84   2   0.50000     0.0600000    0.0600000   6.128906e-05  1.496315e-08
     83     85   2   0.50000     0.0600000    0.0600000   6.128906e-05  1.496315e-08
     72     86   2   0.50000    -0.1200000    0.0600000   2.494471e-04  1.671101e-07
     72     87   2   0.50000    -0.1200000    0.0600000   2.494471e-04  1.671101e-07
     84     69   2   0.50000     0.0600000   -0.0600000   2.494471e-04  1.671101e-07
     84     86   2   0.50000     0.0600000    0.0600000   6.128906e-05  1.496315e-08
     84     87   2   0.50000     0.0600000    0.0600000   6.128906e-05  1.496315e-08
     85     69   2   0.50000     0.0600000   -0.0600000   2.494471e-04  1.671101e-07
     85     86   2   0.50000     0.0600000    0.0600000   6.128906e-05  1.496315e-08
     85     87   2   0.50000     0.0600000    0.0600000   6.128906e-05  1.496315e-08
     68     91   2   0.50000    -0.0600000   -0.0600000   1.015252e-03  1.866303e-06
     68     97   2   0.50000    -0.0600000   -0.1200000   1.015252e-03  1.866303e-06
     68     98   2   0.50000    -0.0600000    0.0600000   2.494471e-04  1.671101e-07
     88     91   2   0.50000     0.0600000   -0.0600000   2.494471e-04  1.671101e-07
     88     97   2   0.50000     0.0600000   -0.1200000   2.494471e-04  1.671101e-07
     88     98   2   0.50000     0.0600000    0.0600000   6.128906e-05  1.496315e-08
     89     91   2   0.50000     0.0600000   -0.0600000   2.494471e-04  1.671101e-07
     89     97   2   0.50000     0.0600000   -0.1200000   2.494471e-04  1.671101e-07
     89     98   2   0.50000     0.0600000    0.0600000   6.128906e-05  1.496315e-08
     75     92   2   0.50000    -0.1200000   -0.1200000   1.015252e-03  1.866303e-06
     75     96   2   0.50000    -0.1200000   -0.1200000   1.015252e-03  1.866303e-06
     75     99   2   0.50000    -0.1200000    0.0600000   2.494471e-04  1.671101e-07
     97     92   2   0.50000    -0.1200000   -0.1200000   1.015252e-03  1.866303e-06
     97     96   2   0.50000    -0.1200000   -0.1200000   1.015252e-03  1.866303e-06
     97     99   2   0.50000    -0.1200000    0.0600000   2.494471e-04  1.671101e-07
     98     92   2   0.50000     0.0600000   -0.1200000   2.494471e-04  1.671101e-07
     98     96   2   0.50000     0.0600000   -0.1200000   2.494471e-04  1.671101e-07
     98     99   2   0.50000     0.0600000    0.0600000   6.128906e-05  1.496315e-08
     75    110   2   0.50000    -0.1200000    0.0600000   2.494471e-04  1.671101e-07
     75    111   2   0.50000    -0.1200000    0.0600000   2.494471e-04  1.671101e-07
     75    112   2   0.50000    -0.1200000   -0.0600000   1.015252e-03  1.866303e-06
     91    110   2   0.50000    -0.0600000    0.0600000   2.494471e-04  1.671101e-07
     91    111   2   0.50000    -0.0600000    0.0600000   2.494471e-04  1.671101e-07
     91    112   2   0.50000    -0.0600000   -0.0600000   1.015252e-03  1.866303e-06
     98    110   2   0.50000     0.0600000    0.0600000   6.128906e-05  1.496315e-08
     98    111   2   0.50000     0.0600000    0.0600000   6.128906e-05  1.496315e-08
     98    112   2   0.50000     0.0600000   -0.0600000   2.494471e-04  1.671101e-07
     90     93   2   0.50000    -0.0600000   -0.1200000   1.015252e-03  1.866303e-06
     90    100   2   0.50000    -0.0600000    0.0600000   2.494471e-04  1.671101e-07
     90    101   2   0.50000    -0.0600000    0.0600000   2.494471e-04  1.671101e-07
     96     93   2   0.50000    -0.1200000   -0.1200000   1.015252e-03  1.866303e-06
     96    100   2   0.50000    -0.1200000    0.0600000   2.494471e-04  1.671101e-07
     96    101   2   0.50000    -0.1200000    0.0600000   2.494471e-04  1.671101e-07
     99     93   2   0.50000     0.0600000   -0.1200000   2.494471e-04  1.671101e-07
     99    100   2   0.50000     0.0600000    0.0600000   6.128906e-05  1.496315e-08
     99    101   2   0.50000     0.0600000    0.0600000   6.128906e-05  1.496315e-08
     90     95   2   0.50000    -0.0600000   -0.1200000   1.015252e-03  1.866303e-06
     90    108   2   0.50000    -0.0600000    0.0600000   2.494471e-04  1.671101e-07
     90    109   2   0.50000    -0.0600000    0.0600000   2.494471e-04  1.671101e-07
     92     95   2   0.50000    -0.1200000   -0.1200000   1.015252e-03  1.866303e-06
     92    108   2   0.50000    -0.1200000    0.0600000   2.494471e-04  1.671101e-07
     92    109   2   0.50000    -0.1200000    0.0600000   2.494471e-04  1.671101e-07
     99     95   2   0.50000     0.0600000   -0.1200000   2.494471e-04  1.671101e-07
     99    108   2   0.50000     0.0600000    0.0600000   6.128906e-05  1.496315e-08
     99    109   2   0.50000     0.0600000    0.0600000   6.128906e-05  1.496315e-08
     91     94   2   0.50000    -0.0600000   -0.1200000   1.015252e-03  1.866303e-06
     91    102   2   0.50000    -0.0600000    0.0600000   2.494471e-04  1.671101e-07
     91    103   2   0.50000    -0.0600000    0.0600000   2.494471e-04  1.671101e-07
    100     94   2   0.50000     0.0600000   -0.1200000   2.494471e-04  1.671101e-07
    100    102   2   0.50000     0.0600000    0.0600000   6.128906e-05  1.496315e-08
    100    103   2   0.50000     0.0600000    0.0600000   6.128906e-05  1.496315e-08
    101     94   2   0.50000     0.0600000   -0.1200000   2.494471e-04  1.671101e-07
    101    102   2   0.50000     0.0600000    0.0600000   6.128906e-05  1.496315e-08
    101    103   2   0.50000     0.0600000    0.0600000   6.128906e-05  1.496315e-08
     92    104   2   0.50000    -0.1200000    0.0600000   2.494471e-04  1.671101e-07
     92    105   2   0.50000    -0.1200000    0.0600000   2.494471e-04  1.671101e-07
    102     95   2   0.50000     0.0600000   -0.1200000   2.494471e-04  1.671101e-07
    102    104   2   0.50000     0.0600000    0.0600000   6.128906e-05  1.496315e-08
    102    105   2   0.50000     0.0600000    0.0600000   6.128906e-05  1.496315e-08
    103     95   2   0.50000     0.0600000   -0.1200000   2.494471e-04  1.671101e-07
    103    104   2   0.50000     0.0600000    0.0600000   6.128906e-05  1.496315e-08
    103    105   2   0.50000     0.0600000    0.0600000   6.128906e-05  1.496315e-08
     93    106   2   0.50000    -0.1200000    0.0600000   2.494471e-04  1.671101e-07
     93    107   2   0.50000    -0.1200000    0.0600000   2.494471e-04  1.671101e-07
    104     96   2   0.50000     0.0600000   -0.1200000   2.494471e-04  1.671101e-07
    104    106   2   0.50000     0.0600000    0.0600000   6.128906e-05  1.496315e-08
    104    107   2   0.50000     0.0600000    0.0600000   6.128906e-05  1.496315e-08
    105     96   2   0.50000     0.0600000   -0.1200000   2.494471e-04  1.671101e-07
    105    106   2   0.50000     0.0600000    0.0600000   6.128906e-05  1.496315e-08
    105    107   2   0.50000     0.0600000    0.0600000   6.128906e-05  1.496315e-08
     94    108   2   0.50000    -0.1200000    0.0600000   2.494471e-04  1.671101e-07
     94    109   2   0.50000    -0.1200000    0.0600000   2.494471e-04  1.671101e-07
    106     91   2   0.50000     0.0600000   -0.0600000   2.494471e-04  1.671101e-07
    106    108   2   0.50000     0.0600000    0.0600000   6.128906e-05  1.496315e-08
    106    109   2   0.50000     0.0600000    0.0600000   6.128906e-05  1.496315e-08
    107     91   2   0.50000     0.0600000   -0.0600000   2.494471e-04  1.671101e-07
    107    108   2   0.50000     0.0600000    0.0600000   6.128906e-05  1.496315e-08
    107    109   2   0.50000     0.0600000    0.0600000   6.128906e-05  1.496315e-08
     90    113   2   0.50000    -0.0600000   -0.0600000   1.015252e-03  1.866303e-06
     90    119   2   0.50000    -0.0600000   -0.1200000   1.015252e-03  1.866303e-06
     90    120   2   0.50000    -0.0600000    0.0600000   2.494471e-04  1.671101e-07
    110    113   2   0.50000     0.0600000   -0.0600000   2.494471e-04  1.671101e-07
    110    119   2   0.50000     0.0600000   -0.1200000   2.494471e-04  1.671101e-07
    110    120   2   0.50000     0.0600000    0.0600000   6.128906e-05  1.496315e-08
    111    113   2   0.50000     0.0600000   -0.0600000   2.494471e-04  1.671101e-07
    111    119   2   0.50000     0.0600000   -0.1200000   2.494471e-04  1.671101e-07
    111    120   2   0.50000     0.0600000    0.0600000   6.128906e-05  1.496315e-08
     97    114   2   0.50000    -0.1200000   -0.1200000   1.015252e-03  1.866303e-06
     97    118   2   0.50000    -0.1200000   -0.1200000   1.015252e-03  1.866303e-06
     97    121   2   0.50000    -0.1200000    0.0600000   2.494471e-04  1.671101e-07
    119    114   2   0.50000    -0.1200000   -0.1200000   1.015252e-03  1.866303e-06
    119    118   2   0.50000    -0.1200000   -0.1200000   1.015252e-03  1.866303e-06
    119    121   2   0.50000    -0.1200000    0.0600000   2.494471e-04  1.671101e-07
    120    114   2   0.50000     0.0600000   -0.1200000   2.494471e-04  1.671101e-07
    120    118   2   0.50000     0.0600000   -0.1200000   2.494471e-04  1.671101e-07
    120    121   2   0.50000     0.0600000    0.0600000   6.128906e-05  1.496315e-08
     97    132   2   0.50000    -0.1200000    0.0600000   2.494471e-04  1.671101e-07
     97    133   2   0.50000    -0.1200000    0.0600000   2.494471e-04  1.671101e-07
     97    134   2   0.50000    -0.1200000   -0.0600000   1.015252e-03  1.866303e-06
    113    132   2   0.50000    -0.0600000    0.0600000   2.494471e-04  1.671101e-07
    113    133   2   0.50000    -0.0600000    0.0600000   2.494471e-04  1.671101e-07
    113    134   2   0.50000    -0.0600000   -0.0600000   1.015252e-03  1.866303e-06
    120    132   2   0.50000     0.0600000    0.0600000   6.128906e-05  1.496315e-08
    120    133   2   0.50000     0.0600000    0.0600000   6.128906e-05  1.496315e-08
    120    134   2   0.50000     0.0600000   -0.0600000   2.494471e-04  1.671101e-07
    112    115   2   0.50000    -0.0600000   -0.1200000   1.015252e-03  1.866303e-06
    112    122   2   0.50000    -0.0600000    0.0600000   2.494471e-04  1.671101e-07
    112    123   2   0.50000    -0.0600000    0.0600000   2.494471e-04  1.671101e-07
    118    115   2   0.50000    -0.1200000   -0.1200000   1.015252e-03  1.866303e-06
    118    122   2   0.50000    -0.1200000    0.0600000   2.494471e-04  1.671101e-07
    118    123   2   0.50000    -0.1200000    0.0600000   2.494471e-04  1.671101e-07
    121    115   2   0.50000     0.0600000   -0.1200000   2.494471e-04  1.671101e-07
    121    122   2   0.50000     0.0600000    0.0600000   6.128906e-05  1.496315e-08
    121    123   2   0.50000     0.0600000    0.0600000   6.128906e-05  1.496315e-08
    112    117   2   0.50000    -0.0600000   -0.1200000   1.015252e-03  1.866303e-06
    112    130   2   0.50000    -0.0600000    0.0600000   2.494471e-04  1.671101e-07
    112    131   2   0.50000    -0.0600000    0.0600000   2.494471e-04  1.671101e-07
    114    117   2   0.50000    -0.1200000   -0.1200000   1.015252e-03  1.866303e-06
    114    130   2   0.50000    -0.1200000    0.0600000   2.494471e-04  1.671101e-07
    114    131   2   0.50000    -0.1200000    0.0600000   2.494471e-04  1.671101e-07
    121    117   2   0.50000     0.0600000   -0.1200000   2.494471e-04  1.671101e-07
    121    130   2   0.50000     0.0600000    0.0600000   6.128906e-05  1.496315e-08
    121    131   2   0.50000     0.0600000    0.0600000   6.128906e-05  1.496315e-08
    113    116   2   0.50000    -0.0600000   -0.1200000   1.015252e-03  1.866303e-06
    113    124   2   0.50000    -0.0600000    0.0600000   2.494471e-04  1.671101e-07
    113    125   2   0.50000    -0.0600000    0.0600000   2.494471e-04  1.671101e-07
    122    116   2   0.50000     0.0600000   -0.1200000   2.494471e-04  1.671101e-07
    122    124   2   0.50000     0.0600000    0.0600000   6.128906e-05  1.496315e-08
    122    125   2   0.50000     0.0600000    0.0600000   6.128906e-05  1.496315e-08
    123    116   2   0.50000     0.0600000   -0.1200000   2.494471e-04  1.671101e-07
    123    124   2   0.50000     0.0600000    0.0600000   6.128906e-05  1.496315e-08
    123    125   2   0.50000     0.0600000    0.0600000   6.128906e-05  1.496315e-08
    114    126   2   0.50000    -0.1200000    0.0600000   2.494471e-04  1.671101e-07
    114    127   2   0.50000    -0.1200000    0.0600000   2.494471e-04  1.671101e-07
    124    117   2   0.50000     0.0600000   -0.1200000   2.494471e-04  1.671101e-07
    124    126   2   0.50000     0.0600000    0.0600000   6.128906e-05  1.496315e-08
    124    127   2   0.50000     0.0600000    0.0600000   6.128906e-05  1.496315e-08
    125    117   2   0.50000     0.0600000   -0.1200000   2.494471e-04  1.671101e-07
    125    126   2   0.50000     0.0600000    0.0600000   6.128906e-05  1.496315e-08
    125    127   2   0.50000     0.0600000    0.0600000   6.128906e-05  1.496315e-08
    115    128   2   0.50000    -0.1200000    0.0600000   2.494471e-04  1.671101e-07
    115    129   2   0.50000    -0.1200000    0.0600000   2.494471e-04  1.671101e-07
    126    118   2   0.50000     0.0600000   -0.1200000   2.494471e-04  1.671101e-07
    126    128   2   0.50000     0.0600000    0.0600000   6.128906e-05  1.496315e-08
    126    129   2   0.50000     0.0600000    0.0600000   6.128906e-05  1.496315e-08
    127    118   2   0.50000     0.0600000   -0.1200000   2.494471e-04  1.671101e-07
    127    128   2   0.50000     0.0600000    0.0600000   6.128906e-05  1.496315e-08
    127    129   2   0.50000     0.0600000    0.0600000   6.128906e-05  1.496315e-08
    116    130   2   0.50000    -0.1200000    0.0600000   2.494471e-04  1.671101e-07
    116    131   2   0.50000    -0.1200000    0.0600000   2.494471e-04  1.671101e-07
    128    113   2   0.50000     0.0600000   -0.0600000   2.494471e-04  1.671101e-07
    128    130   2   0.50000     0.0600000    0.0600000   6.128906e-05  1.496315e-08
    128    131   2   0.50000     0.0600000    0.0600000   6.128906e-05  1.496315e-08
    129    113   2   0.50000     0.0600000   -0.0600000   2.494471e-04  1.671101e-07
    129    130   2   0.50000     0.0600000    0.0600000   6.128906e-05  1.496315e-08
    129    131   2   0.50000     0.0600000    0.0600000   6.128906e-05  1.496315e-08
    112    135   2   0.50000    -0.0600000   -0.0600000   1.015252e-03  1.866303e-06
    112    141   2   0.50000    -0.0600000   -0.1200000   1.015252e-03  1.866303e-06
    112    142   2   0.50000    -0.0600000    0.0600000   2.494471e-04  1.671101e-07
    132    135   2   0.50000     0.0600000   -0.0600000   2.494471e-04  1.671101e-07
    132    141   2   0.50000     0.0600000   -0.1200000   2.494471e-04  1.671101e-07
    132    142   2   0.50000     0.0600000    0.0600000   6.128906e-05  1.496315e-08
    133    135   2   0.50000     0.0600000   -0.0600000   2.494471e-04  1.671101e-07
    133    141   2   0.50000     0.0600000   -0.1200000   2.494471e-04  1.671101e-07
    133    142   2   0.50000     0.0600000    0.0600000   6.128906e-05  1.496315e-08
    119    136   2   0.50000    -0.1200000   -0.1200000   1.015252e-03  1.866303e-06
    119    140   2   0.50000    -0.1200000   -0.1200000   1.015252e-03  1.866303e-06
    119    143   2   0.50000    -0.1200000    0.0600000   2.494471e-04  1.671101e-07
    141    136   2   0.50000    -0.1200000   -0.1200000   1.015252e-03  1.866303e-06
    141    140   2   0.50000    -0.1200000   -0.1200000   1.015252e-03  1.866303e-06
    141    143   2   0.50000    -0.1200000    0.0600000   2.494471e-04  1.671101e-07
    142    136   2   0.50000     0.0600000   -0.1200000   2.494471e-04  1.671101e-07
    142    140   2   0.50000     0.0600000   -0.1200000   2.494471e-04  1.671101e-07
    142    143   2   0.50000     0.0600000    0.0600000   6.128906e-05  1.496315e-08
    119    154   2   0.50000    -0.1200000    0.0600000   2.494471e-04  1.671101e-07
    119    155   2   0.50000    -0.1200000    0.0600000   2.494471e-04  1.671101e-07
    119    156   2   0.50000    -0.1200000   -0.0600000   1.015252e-03  1.866303e-06
    135    154   2   0.50000    -0.0600000    0.0600000   2.494471e-04  1.671101e-07
    135    155   2   0.50000    -0.0600000    0.0600000   2.494471e-04  1.671101e-07
    135    156   2   0.50000    -0.0600000   -0.0600000   1.015252e-03  1.866303e-06
    142    154   2   0.50000     0.0600000    0.0600000   6.128906e-05  1.496315e-08
    142    155   2   0.50000     0.0600000    0.0600000   6.128906e-05  1.496315e-08
    142    156   2   0.50000     0.0600000   -0.0600000   2.494471e-04  1.671101e-07
    134    137   2   0.50000    -0.0600000   -0.1200000   1.015252e-03  1.866303e-06
    134    144   2   0.50000    -0.0600000    0.0600000   2.494471e-04  1.671101e-07
    134    145   2   0.50000    -0.0600000    0.0600000   2.494471e-04  1.671101e-07
    140    137   2   0.50000    -0.1200000   -0.1200000   1.015252e-03  1.866303e-06
    140    144   2   0.50000    -0.1200000    0.0600000   2.494471e-04  1.671101e-07
    140    145   2   0.50000    -0.1200000    0.0600000   2.494471e-04  1.671101e-07
    143    137   2   0.50000     0.0600000   -0.1200000   2.494471e-04  1.671101e-07
    143    144   2   0.50000     0.0600000    0.0600000   6.128906e-05  1.496315e-08
    143    145   2   0.50000     0.0600000    0.0600000   6.128906e-05  1.496315e-08
    134    139   2   0.50000    -0.0600000   -0.1200000   1.015252e-03  1.866303e-06
    134    152   2   0.50000    -0.0600000    0.0600000   2.494471e-04  1.671101e-07
    134    153   2   0.50000    -0.0600000    0.0600000   2.494471e-04  1.671101e-07
    136    139   2   0.50000    -0.1200000   -0.1200000   1.015252e-03  1.866303e-06
    136    152   2   0.50000    -0.1200000    0.0600000   2.494471e-04  1.671101e-07
    136    153   2   0.50000    -0.1200000    0.0600000   2.494471e-04  1.671101e-07
    143    139   2   0.50000     0.0600000   -0.1200000   2.494471e-04  1.671101e-07
    143    152   2   0.50000     0.0600000    0.0600000   6.128906e-05  1.496315e-08
    143    153   2   0.50000     0.0600000    0.0600000   6.128906e-05  1.496315e-08
    135    138   2   0.50000    -0.0600000   -0.1200000   1.015252e-03  1.866303e-06
    135    146   2   0.50000    -0.0600000    0.0600000   2.494471e-04  1.671101e-07
    135    147   2   0.50000    -0.0600000    0.0600000   2.494471e-04  1.671101e-07
    144    138   2   0.50000     0.0600000   -0.1200000   2.494471e-04  1.671101e-07
    144    146   2   0.50000     0.0600000    0.0600000   6.128906e-05  1.496315e-08
    144    147   2   0.50000     0.0600000    0.0600000   6.128906e-05  1.496315e-08
    145    138   2   0.50000     0.0600000   -0.1200000   2.494471e-04  1.671101e-07
    145    146   2   0.50000     0.0600000    0.0600000   6.128906e-05  1.496315e-08
    145    147   2   0.50000     0.0600000    0.0600000   6.128906e-05  1.496315e-08
    136    148   2   0.50000    -0.1200000    0.0600000   2.494471e-04  1.671101e-07
    136    149   2   0.50000    -0.1200000    0.0600000   2.494471e-04  1.671101e-07
    146    139   2   0.50000     0.0600000   -0.1200000   2.494471e-04  1.671101e-07
    146    148   2   0.50000     0.0600000    0.0600000   6.128906e-05  1.496315e-08
    146    149   2   0.50000     0.0600000    0.0600000   6.128906e-05  1.496315e-08
    147    139   2   0.50000     0.0600000   -0.1200000   2.494471e-04  1.671101e-07
    147    148   2   0.50000     0.0600000    0.0600000   6.128906e-05  1.496315e-08
    147    149   2   0.50000     0.0600000    0.0600000   6.128906e-05  1.496315e-08
    137    150   2   0.50000    -0.1200000    0.0600000   2.494471e-04  1.671101e-07
    137    151   2   0.50000    -0.1200000    0.0600000   2.494471e-04  1.671101e-07
    148    140   2   0.50000     0.0600000   -0.1200000   2.494471e-04  1.671101e-07
    148    150   2   0.50000     0.0600000    0.0600000   6.128906e-05  1.496315e-08
    148    151   2   0.50000     0.0600000    0.0600000   6.128906e-05  1.496315e-08
    149    140   2   0.50000     0.0600000   -0.1200000   2.494471e-04  1.671101e-07
    149    150   2   0.50000     0.0600000    0.0600000   6.128906e-05  1.496315e-08
    149    151   2   0.50000     0.0600000    0.0600000   6.128906e-05  1.496315e-08
    138    152   2   0.50000    -0.1200000    0.0600000   2.494471e-04  1.671101e-07
    138    153   2   0.50000    -0.1200000    0.0600000   2.494471e-04  1.671101e-07
    150    135   2   0.50000     0.0600000   -0.0600000   2.494471e-04  1.671101e-07
    150    152   2   0.50000     0.0600000    0.0600000   6.128906e-05  1.496315e-08
    150    153   2   0.50000     0.0600000    0.0600000   6.128906e-05  1.496315e-08
    151    135   2   0.50000     0.0600000   -0.0600000   2.494471e-04  1.671101e-07
    151    152   2   0.50000     0.0600000    0.0600000   6.128906e-05  1.496315e-08
    151    153   2   0.50000     0.0600000    0.0600000   6.128906e-05  1.496315e-08
    134    157   2   0.50000    -0.0600000   -0.0600000   1.015252e-03  1.866303e-06
    134    163   2   0.50000    -0.0600000   -0.1200000   1.015252e-03  1.866303e-06
    134    164   2   0.50000    -0.0600000    0.0600000   2.494471e-04  1.671101e-07
    154    157   2   0.50000     0.0600000   -0.0600000   2.494471e-04  1.671101e-07
    154    163   2   0.50000     0.0600000   -0.1200000   2.494471e-04  1.671101e-07
    154    164   2   0.50000     0.0600000    0.0600000   6.128906e-05  1.496315e-08
    155    157   2   0.50000     0.0600000   -0.0600000   2.494471e-04  1.671101e-07
    155    163   2   0.50000     0.0600000   -0.1200000   2.494471e-04  1.671101e-07
    155    164   2   0.50000     0.0600000    0.0600000   6.128906e-05  1.496315e-08
    141    158   2   0.50000    -0.1200000   -0.1200000   1.015252e-03  1.866303e-06
    141    162   2   0.50000    -0.1200000   -0.1200000   1.015252e-03  1.866303e-06
    141    165   2   0.50000    -0.1200000    0.0600000   2.494471e-04  1.671101e-07
    163    158   2   0.50000    -0.1200000   -0.1200000   1.015252e-03  1.866303e-06
    163    162   2   0.50000    -0.1200000   -0.1200000   1.015252e-03  1.866303e-06
    163    165   2   0.50000    -0.1200000    0.0600000   2.494471e-04  1.671101e-07
    164    158   2   0.50000     0.0600000   -0.1200000   2.494471e-04  1.671101e-07
    164    162   2   0.50000     0.0600000   -0.1200000   2.494471e-04  1.671101e-07
    164    165   2   0.50000     0.0600000    0.0600000   6.128906e-05  1.496315e-08
    141    176   2   0.50000    -0.1200000    0.0600000   2.494471e-04  1.671101e-07
    141    177   2   0.50000    -0.1200000    0.0600000   2.494471e-04  1.671101e-07
    141    178   2   0.50000    -0.1200000   -0.0600000   1.015252e-03  1.866303e-06
    157    176   2   0.50000    -0.0600000    0.0600000   2.494471e-04  1.671101e-07
    157    177   2   0.50000    -0.0600000    0.0600000   2.494471e-04  1.671101e-07
    157    178   2   0.50000    -0.0600000   -0.0600000   1.015252e-03  1.866303e-06
    164    176   2   0.50000     0.0600000    0.0600000   6.128906e-05  1.496315e-08
    164    177   2   0.50000     0.0600000    0.0600000   6.128906e-05  1.496315e-08
    164    178   2   0.50000     0.0600000   -0.0600000   2.494471e-04  1.671101e-07
    156    159   2   0.50000    -0.0600000   -0.1200000   1.015252e-03  1.866303e-06
    156    166   2   0.50000    -0.0600000    0.0600000   2.494471e-04  1.671101e-07
    156    167   2   0.50000    -0.0600000    0.0600000   2.494471e-04  1.671101e-07
    162    159   2   0.50000    -0.1200000   -0.1200000   1.015252e-03  1.866303e-06
    162    166   2   0.50000    -0.1200000    0.0600000   2.494471e-04  1.671101e-07
    162    167   2   0.50000    -0.1200000    0.0600000   2.494471e-04  1.671101e-07
    165    159   2   0.50000     0.0600000   -0.1200000   2.494471e-04  1.671101e-07
    165    166   2   0.50000     0.0600000    0.0600000   6.128906e-05  1.496315e-08
    165    167   2   0.50000     0.0600000    0.0600000   6.128906e-05  1.496315e-08
    156    161   2   0.50000    -0.0600000   -0.1200000   1.015252e-03  1.866303e-06
    156    174   2   0.50000    -0.0600000    0.0600000   2.494471e-04  1.671101e-07
    156    175   2   0.50000    -0.0600000    0.0600000   2.494471e-04  1.671101e-07
    158    161   2   0.50000    -0.1200000   -0.1200000   1.015252e-03  1.866303e-06
    158    174   2   0.50000    -0.1200000    0.0600000   2.494471e-04  1.671101e-07
    158    175   2   0.50000    -0.1200000    0.0600000   2.494471e-04  1.671101e-07
    165    161   2   0.50000     0.0600000   -0.1200000   2.494471e-04  1.671101e-07
    165    174   2   0.50000     0.0600000    0.0600000   6.128906e-05  1.496315e-08
    165    175   2   0.50000     0.0600000    0.0600000   6.128906e-05  1.496315e-08
    157    160   2   0.50000    -0.0600000   -0.1200000   1.015252e-03  1.866303e-06
    157    168   2   0.50000    -0.0600000    0.0600000   2.494471e-04  1.671101e-07
    157    169   2   0.50000    -0.0600000    0.0600000   2.494471e-04  1.671101e-07
    166    160   2   0.50000     0.0600000   -0.1200000   2.494471e-04  1.671101e-07
    166    168   2   0.50000     0.0600000    0.0600000   6.128906e-05  1.496315e-08
    166    169   2   0.50000     0.0600000    0.0600000   6.128906e-05  1.496315e-08
    167    160   2   0.50000     0.0600000   -0.1200000   2.494471e-04  1.671101e-07
    167    168   2   0.50000     0.0600000    0.0600000   6.128906e-05  1.496315e-08
    167    169   2   0.50000     0.0600000    0.0600000   6.128906e-05  1.496315e-08
    158    170   2   0.50000    -0.1200000    0.0600000   2.494471e-04  1.671101e-07
    158    171   2   0.50000    -0.1200000    0.0600000   2.494471e-04  1.671101e-07
    168    161   2   0.50000     0.0600000   -0.1200000   2.494471e-04  1.671101e-07
    168    170   2   0.50000     0.0600000    0.0600000   6.128906e-05  1.496315e-08
    168    171   2   0.50000     0.0600000    0.0600000   6.128906e-05  1.496315e-08
    169    161   2   0.50000     0.0600000   -0.1200000   2.494471e-04  1.671101e-07
    169    170   2   0.50000     0.0600000    0.0600000   6.128906e-05  1.496315e-08
    169    171   2   0.50000     0.0600000    0.0600000   6.128906e-05  1.496315e-08
    159    172   2   0.50000    -0.1200000    0.0600000   2.494471e-04  1.671101e-07
    159    173   2   0.50000    -0.1200000    0.0600000   2.494471e-04  1.671101e-07
    170    162   2   0.50000     0.0600000   -0.1200000   2.494471e-04  1.671101e-07
    170    172   2   0.50000     0.0600000    0.0600000   6.128906e-05  1.496315e-08
    170    173   2   0.50000     0.0600000    0.0600000   6.128906e-05  1.496315e-08
    171    162   2   0.50000     0.0600000   -0.1200000   2.494471e-04  1.671101e-07
    171    172   2   0.50000     0.0600000    0.0600000   6.128906e-05  1.496315e-08
    171    173   2   0.50000     0.0600000    0.0600000   6.128906e-05  1.496315e-08
    160    174   2   0.50000    -0.1200000    0.0600000   2.494471e-04  1.671101e-07
    160    175   2   0.50000    -0.1200000    0.0600000   2.494471e-04  1.671101e-07
    172    157   2   0.50000     0.0600000   -0.0600000   2.494471e-04  1.671101e-07
    172    174   2   0.50000     0.0600000    0.0600000   6.128906e-05  1.496315e-08
    172    175   2   0.50000     0.0600000    0.0600000   6.128906e-05  1.496315e-08
    173    157   2   0.50000     0.0600000   -0.0600000   2.494471e-04  1.671101e-07
    173    174   2   0.50000     0.0600000    0.0600000   6.128906e-05  1.496315e-08
    173    175   2   0.50000     0.0600000    0.0600000   6.128906e-05  1.496315e-08
    156    179   2   0.50000    -0.0600000   -0.0600000   1.015252e-03  1.866303e-06
    156    185   2   0.50000    -0.0600000   -0.1200000   1.015252e-03  1.866303e-06
    156    186   2   0.50000    -0.0600000    0.0600000   2.494471e-04  1.671101e-07
    176    179   2   0.50000     0.0600000   -0.0600000   2.494471e-04  1.671101e-07
    176    185   2   0.50000     0.0600000   -0.1200000   2.494471e-04  1.671101e-07
    176    186   2   0.50000     0.0600000    0.0600000   6.128906e-05  1.496315e-08
    177    179   2   0.50000     0.0600000   -0.0600000   2.494471e-04  1.671101e-07
    177    185   2   0.50000     0.0600000   -0.1200000   2.494471e-04  1.671101e-07
    177    186   2   0.50000     0.0600000    0.0600000   6.128906e-05  1.496315e-08
    163    180   2   0.50000    -0.1200000   -0.1200000   1.015252e-03  1.866303e-06
    163    184   2   0.50000    -0.1200000   -0.1200000   1.015252e-03  1.866303e-06
    163    187   2   0.50000    -0.1200000    0.0600000   2.494471e-04  1.671101e-07
    185    180   2   0.50000    -0.1200000   -0.1200000   1.015252e-03  1.866303e-06
    185    184   2   0.50000    -0.1200000   -0.1200000   1.015252e-03  1.866303e-06
    185    187   2   0.50000    -0.1200000    0.0600000   2.494471e-04  1.671101e-07
    186    180   2   0.50000     0.0600000   -0.1200000   2.494471e-04  1.671101e-07
    186    184   2   0.50000     0.0600000   -0.1200000   2.494471e-04  1.671101e-07
    186    187   2   0.50000     0.0600000    0.0600000   6.128906e-05  1.496315e-08
    163    198   2   0.50000    -0.1200000    0.0600000   2.494471e-04  1.671101e-07
    163    199   2   0.50000    -0.1200000    0.0600000   2.494471e-04  1.671101e-07
    163    200   2   0.50000    -0.1200000   -0.0600000   1.015252e-03  1.866303e-06
    179    198   2   0.50000    -0.0600000    0.0600000   2.494471e-04  1.671101e-07
    179    199   2   0.50000    -0.0600000    0.0600000   2.494471e-04  1.671101e-07
    179    200   2   0.50000    -0.0600000   -0.0600000   1.015252e-03  1.866303e-06
    186    198   2   0.50000     0.0600000    0.0600000   6.128906e-05  1.496315e-08
    186    199   2   0.50000     0.0600000    0.0600000   6.128906e-05  1.496315e-08
    186    200   2   0.50000     0.0600000   -0.0600000   2.494471e-04  1.671101e-07
    178    181   2   0.50000    -0.0600000   -0.1200000   1.015252e-03  1.866303e-06
    178    188   2   0.50000    -0.0600000    0.0600000   2.494471e-04  1.671101e-07
    178    189   2   0.50000    -0.0600000    0.0600000   2.494471e-04  1.671101e-07
    184    181   2   0.50000    -0.1200000   -0.1200000   1.015252e-03  1.866303e-06
    184    188   2   0.50000    -0.1200000    0.0600000   2.494471e-04  1.671101e-07
    184    189   2   0.50000    -0.1200000    0.0600000   2.494471e-04  1.671101e-07
    187    181   2   0.50000     0.0600000   -0.1200000   2.494471e-04  1.671101e-07
    187    188   2   0.50000     0.0600000    0.0600000   6.128906e-05  1.496315e-08
    187    189   2   0.50000     0.0600000    0.0600000   6.128906e-05  1.496315e-08
    178    183   2   0.50000    -0.0600000   -0.1200000   1.015252e-03  1.866303e-06
    178    196   2   0.50000    -0.0600000    0.0600000   2.494471e-04  1.671101e-07
    178    197   2   0.50000    -0.0600000    0.0600000   2.494471e-04  1.671101e-07
    180    183   2   0.50000    -0.1200000   -0.1200000   1.015252e-03  1.866303e-06
    180    196   2   0.50000    -0.1200000    0.0600000   2.494471e-04  1.671101e-07
    180    197   2   0.50000    -0.1200000    0.0600000   2.494471e-04  1.671101e-07
    187    183   2   0.50000     0.0600000   -0.1200000   2.494471e-04  1.671101e-07
    187    196   2   0.50000     0.0600000    0.0600000   6.128906e-05  1.496315e-08
    187    197   2   0.50000     0.0600000    0.0600000   6.128906e-05  1.496315e-08
    179    182   2   0.50000    -0.0600000   -0.1200000   1.015252e-03  1.866303e-06
    179    190   2   0.50000    -0.0600000    0.0600000   2.494471e-04  1.671101e-07
    179    191   2   0.50000    -0.0600000    0.0600000   2.494471e-04  1.671101e-07
    188    182   2   0.50000     0.0600000   -0.1200000   2.494471e-04  1.671101e-07
    188    190   2   0.50000     0.0600000    0.0600000   6.128906e-05  1.496315e-08
    188    191   2   0.50000     0.0600000    0.0600000   6.128906e-05  1.496315e-08
    189    182   2   0.50000     0.0600000   -0.1200000   2.494471e-04  1.671101e-07
    189    190   2   0.50000     0.0600000    0.0600000   6.128906e-05  1.496315e-08
    189    191   2   0.50000     0.0600000    0.0600000   6.128906e-05  1.496315e-08
    180    192   2   0.50000    -0.1200000    0.0600000   2.494471e-04  1.671101e-07
    180    193   2   0.50000    -0.1200000    0.0600000   2.494471e-04  1.671101e-07
    190    183   2   0.50000     0.0600000   -0.1200000   2.494471e-04  1.671101e-07
    190    192   2   0.50000     0.0600000    0.0600000   6.128906e-05  1.496315e-08
    190    193   2   0.50000     0.0600000    0.0600000   6.128906e-05  1.496315e-08
    191    183   2   0.50000     0.0600000   -0.1200000   2.494471e-04  1.671101e-07
    191    192   2   0.50000     0.0600000    0.0600000   6.128906e-05  1.496315e-08
    191    193   2   0.50000     0.0600000    0.0600000   6.128906e-05  1.496315e-08
    181    194   2   0.50000    -0.1200000    0.0600000   2.494471e-04  1.671101e-07
    181    195   2   0.50000    -0.1200000    0.0600000   2.494471e-04  1.671101e-07
    192    184   2   0.50000     0.0600000   -0.1200000   2.494471e-04  1.671101e-07
    192    194   2   0.50000     0.0600000    0.0600000   6.128906e-05  1.496315e-08
    192    195   2   0.50000     0.0600000    0.0600000   6.128906e-05  1.496315e-08
    193    184   2   0.50000     0.0600000   -0.1200000   2.494471e-04  1.671101e-07
    193    194   2   0.50000     0.0600000    0.0600000   6.128906e-05  1.496315e-08
    193    195   2   0.50000     0.0600000    0.0600000   6.128906e-05  1.496315e-08
    182    196   2   0.50000    -0.1200000    0.0600000   2.494471e-04  1.671101e-07
    182    197   2   0.50000    -0.1200000    0.0600000   2.494471e-04  1.671101e-07
    194    179   2   0.50000     0.0600000   -0.0600000   2.494471e-04  1.671101e-07
    194    196   2   0.50000     0.0600000    0.0600000   6.128906e-05  1.496315e-08
    194    197   2   0.50000     0.0600000    0.0600000   6.128906e-05  1.496315e-08
    195    179   2   0.50000     0.0600000   -0.0600000   2.494471e-04  1.671101e-07
    195    196   2   0.50000     0.0600000    0.0600000   6.128906e-05  1.496315e-08
    195    197   2   0.50000     0.0600000    0.0600000   6.128906e-05  1.496315e-08
    178    201   2   0.50000    -0.0600000   -0.0600000   1.015252e-03  1.866303e-06
    178    207   2   0.50000    -0.0600000   -0.1200000   1.015252e-03  1.866303e-06
    178    208   2   0.50000    -0.0600000    0.0600000   2.494471e-04  1.671101e-07
    198    201   2   0.50000     0.0600000   -0.0600000   2.494471e-04  1.671101e-07
    198    207   2   0.50000     0.0600000   -0.1200000   2.494471e-04  1.671101e-07
    198    208   2   0.50000     0.0600000    0.0600000   6.128906e-05  1.496315e-08
    199    201   2   0.50000     0.0600000   -0.0600000   2.494471e-04  1.671101e-07
    199    207   2   0.50000     0.0600000   -0.1200000   2.494471e-04  1.671101e-07
    199    208   2   0.50000     0.0600000    0.0600000   6.128906e-05  1.496315e-08
    185    202   2   0.50000    -0.1200000   -0.1200000   1.015252e-03  1.866303e-06
    185    206   2   0.50000    -0.1200000   -0.1200000   1.015252e-03  1.866303e-06
    185    209   2   0.50000    -0.1200000    0.0600000   2.494471e-04  1.671101e-07
    207    202   2   0.50000    -0.1200000   -0.1200000   1.015252e-03  1.866303e-06
    207    206   2   0.50000    -0.1200000   -0.1200000   1.015252e-03  1.866303e-06
    207    209   2   0.50000    -0.1200000    0.0600000   2.494471e-04  1.671101e-07
    208    202   2   0.50000     0.0600000   -0.1200000   2.494471e-04  1.671101e-07
    208    206   2   0.50000     0.0600000   -0.1200000   2.494471e-04  1.671101e-07
    208    209   2   0.50000     0.0600000    0.0600000   6.128906e-05  1.496315e-08
    185    220   2   0.50000    -0.1200000    0.0600000   2.494471e-04  1.671101e-07
    185    221   2   0.50000    -0.1200000    0.0600000   2.494471e-04  1.671101e-07
    185    222   2   0.50000    -0.1200000   -0.0600000   1.015252e-03  1.866303e-06
    201    220   2   0.50000    -0.0600000    0.0600000   2.494471e-04  1.671101e-07
    201    221   2   0.50000    -0.0600000    0.0600000   2.494471e-04  1.671101e-07
    201    222   2   0.50000    -0.0600000   -0.0600000   1.015252e-03  1.866303e-06
    208    220   2   0.50000     0.0600000    0.0600000   6.128906e-05  1.496315e-08
    208    221   2   0.50000     0.0600000    0.0600000   6.128906e-05  1.496315e-08
    208    222   2   0.50000     0.0600000   -0.0600000   2.494471e-04  1.671101e-07
    200    203   2   0.50000    -0.0600000   -0.1200000   1.015252e-03  1.866303e-06
    200    210   2   0.50000    -0.0600000    0.0600000   2.494471e-04  1.671101e-07
    200    211   2   0.50000    -0.0600000    0.0600000   2.494471e-04  1.671101e-07
    206    203   2   0.50000    -0.1200000   -0.1200000   1.015252e-03  1.866303e-06
    206    210   2   0.50000    -0.1200000    0.0600000   2.494471e-04  1.671101e-07
    206    211   2   0.50000    -0.1200000    0.0600000   2.494471e-04  1.671101e-07
    209    203   2   0.50000     0.0600000   -0.1200000   2.494471e-04  1.671101e-07
    209    210   2   0.50000     0.0600000    0.0600000   6.128906e-05  1.496315e-08
    209    211   2   0.50000     0.0600000    0.0600000   6.128906e-05  1.496315e-08
    200    205   2   0.50000    -0.0600000   -0.1200000   1.015252e-03  1.866303e-06
    200    218   2   0.50000    -0.0600000    0.0600000   2.494471e-04  1.671101e-07
    200    219   2   0.50000    -0.0600000    0.0600000   2.494471e-04  1.671101e-07
    202    205   2   0.50000    -0.1200000   -0.1200000   1.015252e-03  1.866303e-06
    202    218   2   0.50000    -0.1200000    0.0600000   2.494471e-04  1.671101e-07
    202    219   2   0.50000    -0.1200000    0.0600000   2.494471e-04  1.671101e-07
    209    205   2   0.50000     0.0600000   -0.1200000   2.494471e-04  1.671101e-07
    209    218   2   0.50000     0.0600000    0.0600000   6.128906e-05  1.496315e-08
    209    219   2   0.50000     0.0600000    0.0600000   6.128906e-05  1.496315e-08
    201    204   2   0.50000    -0.0600000   -0.1200000   1.015252e-03  1.866303e-06
    201    212   2   0.50000    -0.0600000    0.0600000   2.494471e-04  1.671101e-07
    201    213   2   0.50000    -0.0600000    0.0600000   2.494471e-04  1.671101e-07
    210    204   2   0.50000     0.0600000   -0.1200000   2.494471e-04  1.671101e-07
    210    212   2   0.50000     0.0600000    0.0600000   6.128906e-05  1.496315e-08
    210    213   2   0.50000     0.0600000    0.0600000   6.128906e-05  1.496315e-08
    211    204   2   0.50000     0.0600000   -0.1200000   2.494471e-04  1.671101e-07
    211    212   2   0.50000     0.0600000    0.0600000   6.128906e-05  1.496315e-08
    211    213   2   0.50000     0.0600000    0.0600000   6.128906e-05  1.496315e-08
    202    214   2   0.50000    -0.1200000    0.0600000   2.494471e-04  1.671101e-07
    202    215   2   0.50000    -0.1200000    0.0600000   2.494471e-04  1.671101e-07
    212    205   2   0.50000     0.0600000   -0.1200000   2.494471e-04  1.671101e-07
    212    214   2   0.50000     0.0600000    0.0600000   6.128906e-05  1.496315e-08
    212    215   2   0.50000     0.0600000    0.0600000   6.128906e-05  1.496315e-08
    213    205   2   0.50000     0.0600000   -0.1200000   2.494471e-04  1.671101e-07
    213    214   2   0.50000     0.0600000    0.0600000   6.128906e-05  1.496315e-08
    213    215   2   0.50000     0.0600000    0.0600000   6.128906e-05  1.496315e-08
    203    216   2   0.50000    -0.1200000    0.0600000   2.494471e-04  1.671101e-07
    203    217   2   0.50000    -0.1200000    0.0600000   2.494471e-04  1.671101e-07
    214    206   2   0.50000     0.0600000   -0.1200000   2.494471e-04  1.671101e-07
    214    216   2   0.50000     0.0600000    0.0600000   6.128906e-05  1.496315e-08
    214    217   2   0.50000     0.0600000    0.0600000   6.128906e-05  1.496315e-08
    215    206   2   0.50000     0.0600000   -0.1200000   2.494471e-04  1.671101e-07
    215    216   2   0.50000     0.0600000    0.0600000   6.128906e-05  1.496315e-08
    215    217   2   0.50000     0.0600000    0.0600000   6.128906e-05  1.496315e-08
    204    218   2   0.50000    -0.1200000    0.0600000   2.494471e-04  1.671101e-07
    204    219   2   0.50000    -0.1200000    0.0600000   2.494471e-04  1.671101e-07
    216    201   2   0.50000     0.0600000   -0.0600000   2.494471e-04  1.671101e-07
    216    218   2   0.50000     0.0600000    0.0600000   6.128906e-05  1.496315e-08
    216    219   2   0.50000     0.0600000    0.0600000   6.128906e-05  1.496315e-08
    217    201   2   0.50000     0.0600000   -0.0600000   2.494471e-04  1.671101e-07
    217    218   2   0.50000     0.0600000    0.0600000   6.128906e-05  1.496315e-08
    217    219   2   0.50000     0.0600000    0.0600000   6.128906e-05  1.496315e-08
    200    223   2   0.50000    -0.0600000   -0.0600000   1.015252e-03  1.866303e-06
    200    229   2   0.50000    -0.0600000   -0.1200000   1.015252e-03  1.866303e-06
    200    230   2   0.50000    -0.0600000    0.0600000   2.494471e-04  1.671101e-07
    220    223   2   0.50000     0.0600000   -0.0600000   2.494471e-04  1.671101e-07
    220    229   2   0.50000     0.0600000   -0.1200000   2.494471e-04  1.671101e-07
    220    230   2   0.50000     0.0600000    0.0600000   6.128906e-05  1.496315e-08
    221    223   2   0.50000     0.0600000   -0.0600000   2.494471e-04  1.671101e-07
    221    229   2   0.50000     0.0600000   -0.1200000   2.494471e-04  1.671101e-07
    221    230   2   0.50000     0.0600000    0.0600000   6.128906e-05  1.496315e-08
    207    224   2   0.50000    -0.1200000   -0.1200000   1.015252e-03  1.866303e-06
    207    228   2   0.50000    -0.1200000   -0.1200000   1.015252e-03  1.866303e-06
    207    231   2   0.50000    -0.1200000    0.0600000   2.494471e-04  1.671101e-07
    229    224   2   0.50000    -0.1200000   -0.1200000   1.015252e-03  1.866303e-06
    229    228   2   0.50000    -0.1200000   -0.1200000   1.015252e-03  1.866303e-06
    229    231   2   0.50000    -0.1200000    0.0600000   2.494471e-04  1.671101e-07
    230    224   2   0.50000     0.0600000   -0.1200000   2.494471e-04  1.671101e-07
    230    228   2   0.50000     0.0600000   -0.1200000   2.494471e-04  1.671101e-07
    230    231   2   0.50000     0.0600000    0.0600000   6.128906e-05  1.496315e-08
    207    242   2   0.50000    -0.1200000    0.0600000   2.494471e-04  1.671101e-07
    207    243   2   0.50000    -0.1200000    0.0600000   2.494471e-04  1.671101e-07
    207    244   2   0.50000    -0.1200000   -0.0600000   1.015252e-03  1.866303e-06
    223    242   2   0.50000    -0.0600000    0.0600000   2.494471e-04  1.671101e-07
    223    243   2   0.50000    -0.0600000    0.0600000   2.494471e-04  1.671101e-07
    223    244   2   0.50000    -0.0600000   -0.0600000   1.015252e-03  1.866303e-06
    230    242   2   0.50000     0.0600000    0.0600000   6.128906e-05  1.496315e-08
    230    243   2   0.50000     0.0600000    0.0600000   6.128906e-05  1.496315e-08
    230    244   2   0.50000     0.0600000   -0.0600000   2.494471e-04  1.671101e-07
    222    225   2   0.50000    -0.0600000   -0.1200000   1.015252e-03  1.866303e-06
    222    232   2   0.50000    -0.0600000    0.0600000   2.494471e-04  1.671101e-07
    222    233   2   0.50000    -0.0600000    0.0600000   2.494471e-04  1.671101e-07
    228    225   2   0.50000    -0.1200000   -0.1200000   1.015252e-03  1.866303e-06
    228    232   2   0.50000    -0.1200000    0.0600000   2.494471e-04  1.671101e-07
    228    233   2   0.50000    -0.1200000    0.0600000   2.494471e-04  1.671101e-07
    231    225   2   0.50000     0.0600000   -0.1200000   2.494471e-04  1.671101e-07
    231    232   2   0.50000     0.0600000    0.0600000   6.128906e-05  1.496315e-08
    231    233   2   0.50000     0.0600000    0.0600000   6.128906e-05  1.496315e-08
    222    227   2   0.50000    -0.0600000   -0.1200000   1.015252e-03  1.866303e-06
    222    240   2   0.50000    -0.0600000    0.0600000   2.494471e-04  1.671101e-07
    222    241   2   0.50000    -0.0600000    0.0600000   2.494471e-04  1.671101e-07
    224    227   2   0.50000    -0.1200000   -0.1200000   1.015252e-03  1.866303e-06
    224    240   2   0.50000    -0.1200000    0.0600000   2.494471e-04  1.671101e-07
    224    241   2   0.50000    -0.1200000    0.0600000   2.494471e-04  1.671101e-07
    231    227   2   0.50000     0.0600000   -0.1200000   2.494471e-04  1.671101e-07
    231    240   2   0.50000     0.0600000    0.0600000   6.128906e-05  1.496315e-08
    231    241   2   0.50000     0.0600000    0.0600000   6.128906e-05  1.496315e-08
    223    226   2   0.50000    -0.0600000   -0.1200000   1.015252e-03  1.866303e-06
    223    234   2   0.50000    -0.0600000    0.0600000   2.494471e-04  1.671101e-07
    223    235   2   0.50000    -0.0600000    0.0600000   2.494471e-04  1.671101e-07
    232    226   2   0.50000     0.0600000   -0.1200000   2.494471e-04  1.671101e-07
    232    234   2   0.50000     0.0600000    0.0600000   6.128906e-05  1.496315e-08
    232    235   2   0.50000     0.0600000    0.0600000   6.128906e-05  1.496315e-08
    233    226   2   0.50000     0.0600000   -0.1200000   2.494471e-04  1.671101e-07
    233    234   2   0.50000     0.0600000    0.0600000   6.128906e-05  1.496315e-08
    233    235   2   0.50000     0.0600000    0.0600000   6.128906e-05  1.496315e-08
    224    236   2   0.50000    -0.1200000    0.0600000   2.494471e-04  1.671101e-07
    224    237   2   0.50000    -0.1200000    0.0600000   2.494471e-04  1.671101e-07
    234    227   2   0.50000     0.0600000   -0.1200000   2.494471e-04  1.671101e-07
    234    236   2   0.50000     0.0600000    0.0600000   6.128906e-05  1.496315e-08
    234    237   2   0.50000     0.0600000    0.0600000   6.128906e-05  1.496315e-08
    235    227   2   0.50000     0.0600000   -0.1200000   2.494471e-04  1.671101e-07
    235    236   2   0.50000     0.0600000    0.0600000   6.128906e-05  1.496315e-08
    235    237   2   0.50000     0.0600000    0.0600000   6.128906e-05  1.496315e-08
    225    238   2   0.50000    -0.1200000    0.0600000   2.494471e-04  1.671101e-07
    225    239   2   0.50000    -0.1200000    0.0600000   2.494471e-04  1.671101e-07
    236    228   2   0.50000     0.0600000   -0.1200000   2.494471e-04  1.671101e-07
    236    238   2   0.50000     0.0600000    0.0600000   6.128906e-05  1.496315e-08
    236    239   2   0.50000     0.0600000    0.0600000   6.128906e-05  1.496315e-08
    237    228   2   0.50000     0.0600000   -0.1200000   2.494471e-04  1.671101e-07
    237    238   2   0.50000     0.0600000    0.0600000   6.128906e-05  1.496315e-08
    237    239   2   0.50000     0.0600000    0.0600000   6.128906e-05  1.496315e-08
    226    240   2   0.50000    -0.1200000    0.0600000   2.494471e-04  1.671101e-07
    226    241   2   0.50000    -0.1200000    0.0600000   2.494471e-04  1.671101e-07
    238    223   2   0.50000     0.0600000   -0.0600000   2.494471e-04  1.671101e-07
    238    240   2   0.50000     0.0600000    0.0600000   6.128906e-05  1.496315e-08
    238    241   2   0.50000     0.0600000    0.0600000   6.128906e-05  1.496315e-08
    239    223   2   0.50000     0.0600000   -0.0600000   2.494471e-04  1.671101e-07
    239    240   2   0.50000     0.0600000    0.0600000   6.128906e-05  1.496315e-08
    239    241   2   0.50000     0.0600000    0.0600000   6.128906e-05  1.496315e-08
    222    245   2   0.50000    -0.0600000   -0.0600000   1.015252e-03  1.866303e-06
    222    251   2   0.50000    -0.0600000   -0.1200000   1.015252e-03  1.866303e-06
    222    252   2   0.50000    -0.0600000    0.0600000   2.494471e-04  1.671101e-07
    242    245   2   0.50000     0.0600000   -0.0600000   2.494471e-04  1.671101e-07
    242    251   2   0.50000     0.0600000   -0.1200000   2.494471e-04  1.671101e-07
    242    252   2   0.50000     0.0600000    0.0600000   6.128906e-05  1.496315e-08
    243    245   2   0.50000     0.0600000   -0.0600000   2.494471e-04  1.671101e-07
    243    251   2   0.50000     0.0600000   -0.1200000   2.494471e-04  1.671101e-07
    243    252   2   0.50000     0.0600000    0.0600000   6.128906e-05  1.496315e-08
    229    246   2   0.50000    -0.1200000   -0.1200000   1.015252e-03  1.866303e-06
    229    250   2   0.50000    -0.1200000   -0.1200000   1.015252e-03  1.866303e-06
    229    253   2   0.50000    -0.1200000    0.0600000   2.494471e-04  1.671101e-07
    251    246   2   0.50000    -0.1200000   -0.1200000   1.015252e-03  1.866303e-06
    251    250   2   0.50000    -0.1200000   -0.1200000   1.015252e-03  1.866303e-06
    251    253   2   0.50000    -0.1200000    0.0600000   2.494471e-04  1.671101e-07
    252    246   2   0.50000     0.0600000   -0.1200000   2.494471e-04  1.671101e-07
    252    250   2   0.50000     0.0600000   -0.1200000   2.494471e-04  1.671101e-07
    252    253   2   0.50000     0.0600000    0.0600000   6.128906e-05  1.496315e-08
    229    264   2   0.50000    -0.1200000    0.0600000   2.494471e-04  1.671101e-07
    229    265   2   0.50000    -0.1200000    0.0600000   2.494471e-04  1.671101e-07
    229    266   2   0.50000    -0.1200000   -0.0600000   1.015252e-03  1.866303e-06
    245    264   2   0.50000    -0.0600000    0.0600000   2.494471e-04  1.671101e-07
    245    265   2   0.50000    -0.0600000    0.0600000   2.494471e-04  1.671101e-07
    245    266   2   0.50000    -0.0600000   -0.0600000   1.015252e-03  1.866303e-06
    252    264   2   0.50000     0.0600000    0.0600000   6.128906e-05  1.496315e-08
    252    265   2   0.50000     0.0600000    0.0600000   6.128906e-05  1.496315e-08
    252    266   2   0.50000     0.0600000   -0.0600000   2.494471e-04  1.671101e-07
    244    247   2   0.50000    -0.0600000   -0.1200000   1.015252e-03  1.866303e-06
    244    254   2   0.50000    -0.0600000    0.0600000   2.494471e-04  1.671101e-07
    244    255   2   0.50000    -0.0600000    0.0600000   2.494471e-04  1.671101e-07
    250    247   2   0.50000    -0.1200000   -0.1200000   1.015252e-03  1.866303e-06
    250    254   2   0.50000    -0.1200000    0.0600000   2.494471e-04  1.671101e-07
    250    255   2   0.50000    -0.1200000    0.0600000   2.494471e-04  1.671101e-07
    253    247   2   0.50000     0.0600000   -0.1200000   2.494471e-04  1.671101e-07
    253    254   2   0.50000     0.0600000    0.0600000   6.128906e-05  1.496315e-08
    253    255   2   0.50000     0.0600000    0.0600000   6.128906e-05  1.496315e-08
    244    249   2   0.50000    -0.0600000   -0.1200000   1.015252e-03  1.866303e-06
    244    262   2   0.50000    -0.0600000    0.0600000   2.494471e-04  1.671101e-07
    244    263   2   0.50000    -0.0600000    0.0600000   2.494471e-04  1.671101e-07
    246    249   2   0.50000    -0.1200000   -0.1200000   1.015252e-03  1.866303e-06
    246    262   2   0.50000    -0.1200000    0.0600000   2.494471e-04  1.671101e-07
    246    263   2   0.50000    -0.1200000    0.0600000   2.494471e-04  1.671101e-07
    253    249   2   0.50000     0.0600000   -0.1200000   2.494471e-04  1.671101e-07
    253    262   2   0.50000     0.0600000    0.0600000   6.128906e-05  1.496315e-08
    253    263   2   0.50000     0.0600000    0.0600000   6.128906e-05  1.496315e-08
    245    248   2   0.50000    -0.0600000   -0.1200000   1.015252e-03  1.866303e-06
    245    256   2   0.50000    -0.0600000    0.0600000   2.494471e-04  1.671101e-07
    245    257   2   0.50000    -0.0600000    0.0600000   2.494471e-04  1.671101e-07
    254    248   2   0.50000     0.0600000   -0.1200000   2.494471e-04  1.671101e-07
    254    256   2   0.50000     0.0600000    0.0600000   6.128906e-05  1.496315e-08
    254    257   2   0.50000     0.0600000    0.0600000   6.128906e-05  1.496315e-08
    255    248   2   0.50000     0.0600000   -0.1200000   2.494471e-04  1.671101e-07
    255    256   2   0.50000     0.0600000    0.0600000   6.128906e-05  1.496315e-08
    255    257   2   0.50000     0.0600000    0.0600000   6.128906e-05  1.496315e-08
    246    258   2   0.50000    -0.1200000    0.0600000   2.494471e-04  1.671101e-07
    246    259   2   0.50000    -0.1200000    0.0600000   2.494471e-04  1.671101e-07
    256    249   2   0.50000     0.0600000   -0.1200000   2.494471e-04  1.671101e-07
    256    258   2   0.50000     0.0600000    0.0600000   6.128906e-05  1.496315e-08
    256    259   2   0.50000     0.0600000    0.0600000   6.128906e-05  1.496315e-08
    257    249   2   0.50000     0.0600000   -0.1200000   2.494471e-04  1.671101e-07
    257    258   2   0.50000     0.0600000    0.0600000   6.128906e-05  1.496315e-08
    257    259   2   0.50000     0.0600000    0.0600000   6.128906e-05  1.496315e-08
    247    260   2   0.50000    -0.1200000    0.0600000   2.494471e-04  1.671101e-07
    247    261   2   0.50000    -0.1200000    0.0600000   2.494471e-04  1.671101e-07
    258    250   2   0.50000     0.0600000   -0.1200000   2.494471e-04  1.671101e-07
    258    260   2   0.50000     0.0600000    0.0600000   6.128906e-05  1.496315e-08
    258    261   2   0.50000     0.0600000    0.0600000   6.128906e-05  1.496315e-08
    259    250   2   0.50000     0.0600000   -0.1200000   2.494471e-04  1.671101e-07
    259    260   2   0.50000     0.0600000    0.0600000   6.128906e-05  1.496315e-08
    259    261   2   0.50000     0.0600000    0.0600000   6.128906e-05  1.496315e-08
    248    262   2   0.50000    -0.1200000    0.0600000   2.494471e-04  1.671101e-07
    248    263   2   0.50000    -0.1200000    0.0600000   2.494471e-04  1.671101e-07
    260    245   2   0.50000     0.0600000   -0.0600000   2.494471e-04  1.671101e-07
    260    262   2   0.50000     0.0600000    0.0600000   6.128906e-05  1.496315e-08
    260    263   2   0.50000     0.0600000    0.0600000   6.128906e-05  1.496315e-08
    261    245   2   0.50000     0.0600000   -0.0600000   2.494471e-04  1.671101e-07
    261    262   2   0.50000     0.0600000    0.0600000   6.128906e-05  1.496315e-08
    261    263   2   0.50000     0.0600000    0.0600000   6.128906e-05  1.496315e-08
    244    267   2   0.50000    -0.0600000   -0.0600000   1.015252e-03  1.866303e-06
    244    273   2   0.50000    -0.0600000   -0.1200000   1.015252e-03  1.866303e-06
    244    274   2   0.50000    -0.0600000    0.0600000   2.494471e-04  1.671101e-07
    264    267   2   0.50000     0.0600000   -0.0600000   2.494471e-04  1.671101e-07
    264    273   2   0.50000     0.0600000   -0.1200000   2.494471e-04  1.671101e-07
    264    274   2   0.50000     0.0600000    0.0600000   6.128906e-05  1.496315e-08
    265    267   2   0.50000     0.0600000   -0.0600000   2.494471e-04  1.671101e-07
    265    273   2   0.50000     0.0600000   -0.1200000   2.494471e-04  1.671101e-07
    265    274   2   0.50000     0.0600000    0.0600000   6.128906e-05  1.496315e-08
    251    268   2   0.50000    -0.1200000   -0.1200000   1.015252e-03  1.866303e-06
    251    272   2   0.50000    -0.1200000   -0.1200000   1.015252e-03  1.866303e-06
    251    275   2   0.50000    -0.1200000    0.0600000   2.494471e-04  1.671101e-07
    273    268   2   0.50000    -0.1200000   -0.1200000   1.015252e-03  1.866303e-06
    273    272   2   0.50000    -0.1200000   -0.1200000   1.015252e-03  1.866303e-06
    273    275   2   0.50000    -0.1200000    0.0600000   2.494471e-04  1.671101e-07
    274    268   2   0.50000     0.0600000   -0.1200000   2.494471e-04  1.671101e-07
    274    272   2   0.50000     0.0600000   -0.1200000   2.494471e-04  1.671101e-07
    274    275   2   0.50000     0.0600000    0.0600000   6.128906e-05  1.496315e-08
    251    286   2   0.50000    -0.1200000    0.0600000   2.494471e-04  1.671101e-07
    251    287   2   0.50000    -0.1200000    0.0600000   2.494471e-04  1.671101e-07
    251    288   2   0.50000    -0.1200000   -0.0600000   1.015252e-03  1.866303e-06
    267    286   2   0.50000    -0.0600000    0.0600000   2.494471e-04  1.671101e-07
    267    287   2   0.50000    -0.0600000    0.0600000   2.494471e-04  1.671101e-07
    267    288   2   0.50000    -0.0600000   -0.0600000   1.015252e-03  1.866303e-06
    274    286   2   0.50000     0.0600000    0.0600000   6.128906e-05  1.496315e-08
    274    287   2   0.50000     0.0600000    0.0600000   6.128906e-05  1.496315e-08
    274    288   2   0.50000     0.0600000   -0.0600000   2.494471e-04  1.671101e-07
    266    269   2   0.50000    -0.0600000   -0.1200000   1.015252e-03  1.866303e-06
    266    276   2   0.50000    -0.0600000    0.0600000   2.494471e-04  1.671101e-07
    266    277   2   0.50000    -0.0600000    0.0600000   2.494471e-04  1.671101e-07
    272    269   2   0.50000    -0.1200000   -0.1200000   1.015252e-03  1.866303e-06
    272    276   2   0.50000    -0.1200000    0.0600000   2.494471e-04  1.671101e-07
    272    277   2   0.50000    -0.1200000    0.0600000   2.494471e-04  1.671101e-07
    275    269   2   0.50000     0.0600000   -0.1200000   2.494471e-04  1.671101e-07
    275    276   2   0.50000     0.0600000    0.0600000   6.128906e-05  1.496315e-08
    275    277   2   0.50000     0.0600000    0.0600000   6.128906e-05  1.496315e-08
    266    271   2   0.50000    -0.0600000   -0.1200000   1.015252e-03  1.866303e-06
    266    284   2   0.50000    -0.0600000    0.0600000   2.494471e-04  1.671101e-07
    266    285   2   0.50000    -0.0600000    0.0600000   2.494471e-04  1.671101e-07
    268    271   2   0.50000    -0.1200000   -0.1200000   1.015252e-03  1.866303e-06
    268    284   2   0.50000    -0.1200000    0.0600000   2.494471e-04  1.671101e-07
    268    285   2   0.50000    -0.1200000    0.0600000   2.494471e-04  1.671101e-07
    275    271   2   0.50000     0.0600000   -0.1200000   2.494471e-04  1.671101e-07
    275    284   2   0.50000     0.0600000    0.0600000   6.128906e-05  1.496315e-08
    275    285   2   0.50000     0.0600000    0.0600000   6.128906e-05  1.496315e-08
    267    270   2   0.50000    -0.0600000   -0.1200000   1.015252e-03  1.866303e-06
    267    278   2   0.50000    -0.0600000    0.0600000   2.494471e-04  1.671101e-07
    267    279   2   0.50000    -0.0600000    0.0600000   2.494471e-04  1.671101e-07
    276    270   2   0.50000     0.0600000   -0.1200000   2.494471e-04  1.671101e-07
    276    278   2   0.50000     0.0600000    0.0600000   6.128906e-05  1.496315e-08
    276    279   2   0.50000     0.0600000    0.0600000   6.128906e-05  1.496315e-08
    277    270   2   0.50000     0.0600000   -0.1200000   2.494471e-04  1.671101e-07
    277    278   2   0.50000     0.0600000    0.0600000   6.128906e-05  1.496315e-08
    277    279   2   0.50000     0.0600000    0.0600000   6.128906e-05  1.496315e-08
    268    280   2   0.50000    -0.1200000    0.0600000   2.494471e-04  1.671101e-07
    268    281   2   0.50000    -0.1200000    0.0600000   2.494471e-04  1.671101e-07
    278    271   2   0.50000     0.0600000   -0.1200000   2.494471e-04  1.671101e-07
    278    280   2   0.50000     0.0600000    0.0600000   6.128906e-05  1.496315e-08
    278    281   2   0.50000     0.0600000    0.0600000   6.128906e-05  1.496315e-08
    279    271   2   0.50000     0.0600000   -0.1200000   2.494471e-04  1.671101e-07
    279    280   2   0.50000     0.0600000    0.0600000   6.128906e-05  1.496315e-08
    279    281   2   0.50000     0.0600000    0.0600000   6.128906e-05  1.496315e-08
    269    282   2   0.50000    -0.1200000    0.0600000   2.494471e-04  1.671101e-07
    269    283   2   0.50000    -0.1200000    0.0600000   2.494471e-04  1.671101e-07
    280    272   2   0.50000     0.0600000   -0.1200000   2.494471e-04  1.671101e-07
    280    282   2   0.50000     0.0600000    0.0600000   6.128906e-05  1.496315e-08
    280    283   2   0.50000     0.0600000    0.0600000   6.128906e-05  1.496315e-08
    281    272   2   0.50000     0.0600000   -0.1200000   2.494471e-04  1.671101e-07
    281    282   2   0.50000     0.0600000    0.0600000   6.128906e-05  1.496315e-08
    281    283   2   0.50000     0.0600000    0.0600000   6.128906e-05  1.496315e-08
    270    284   2   0.50000    -0.1200000    0.0600000   2.494471e-04  1.671101e-07
    270    285   2   0.50000    -0.1200000    0.0600000   2.494471e-04  1.671101e-07
    282    267   2   0.50000     0.0600000   -0.0600000   2.494471e-04  1.671101e-07
    282    284   2   0.50000     0.0600000    0.0600000   6.128906e-05  1.496315e-08
    282    285   2   0.50000     0.0600000    0.0600000   6.128906e-05  1.496315e-08
    283    267   2   0.50000     0.0600000   -0.0600000   2.494471e-04  1.671101e-07
    283    284   2   0.50000     0.0600000    0.0600000   6.128906e-05  1.496315e-08
    283    285   2   0.50000     0.0600000    0.0600000   6.128906e-05  1.496315e-08
    266    289   2   0.50000    -0.0600000   -0.0600000   1.015252e-03  1.866303e-06
    266    295   2   0.50000    -0.0600000   -0.1200000   1.015252e-03  1.866303e-06
    266    296   2   0.50000    -0.0600000    0.0600000   2.494471e-04  1.671101e-07
    286    289   2   0.50000     0.0600000   -0.0600000   2.494471e-04  1.671101e-07
    286    295   2   0.50000     0.0600000   -0.1200000   2.494471e-04  1.671101e-07
    286    296   2   0.50000     0.0600000    0.0600000   6.128906e-05  1.496315e-08
    287    289   2   0.50000     0.0600000   -0.0600000   2.494471e-04  1.671101e-07
    287    295   2   0.50000     0.0600000   -0.1200000   2.494471e-04  1.671101e-07
    287    296   2   0.50000     0.0600000    0.0600000   6.128906e-05  1.496315e-08
    273    290   2   0.50000    -0.1200000   -0.1200000   1.015252e-03  1.866303e-06
    273    294   2   0.50000    -0.1200000   -0.1200000   1.015252e-03  1.866303e-06
    273    297   2   0.50000    -0.1200000    0.0600000   2.494471e-04  1.671101e-07
    295    290   2   0.50000    -0.1200000   -0.1200000   1.015252e-03  1.866303e-06
    295    294   2   0.50000    -0.1200000   -0.1200000   1.015252e-03  1.866303e-06
    295    297   2   0.50000    -0.1200000    0.0600000   2.494471e-04  1.671101e-07
    296    290   2   0.50000     0.0600000   -0.1200000   2.494471e-04  1.671101e-07
    296    294   2   0.50000     0.0600000   -0.1200000   2.494471e-04  1.671101e-07
    296    297   2   0.50000     0.0600000    0.0600000   6.128906e-05  1.496315e-08
    273    308   2   0.50000    -0.1200000    0.0600000   2.494471e-04  1.671101e-07
    273    309   2   0.50000    -0.1200000    0.0600000   2.494471e-04  1.671101e-07
    273    310   2   0.50000    -0.1200000   -0.0600000   1.015252e-03  1.866303e-06
    289    308   2   0.50000    -0.0600000    0.0600000   2.494471e-04  1.671101e-07
    289    309   2   0.50000    -0.0600000    0.0600000   2.494471e-04  1.671101e-07
    289    310   2   0.50000    -0.0600000   -0.0600000   1.015252e-03  1.866303e-06
    296    308   2   0.50000     0.0600000    0.0600000   6.128906e-05  1.496315e-08
    296    309   2   0.50000     0.0600000    0.0600000   6.128906e-05  1.496315e-08
    296    310   2   0.50000     0.0600000   -0.0600000   2.494471e-04  1.671101e-07
    288    291   2   0.50000    -0.0600000   -0.1200000   1.015252e-03  1.866303e-06
    288    298   2   0.50000    -0.0600000    0.0600000   2.494471e-04  1.671101e-07
    288    299   2   0.50000    -0.0600000    0.0600000   2.494471e-04  1.671101e-07
    294    291   2   0.50000    -0.1200000   -0.1200000   1.015252e-03  1.866303e-06
    294    298   2   0.50000    -0.1200000    0.0600000   2.494471e-04  1.671101e-07
    294    299   2   0.50000    -0.1200000    0.0600000   2.494471e-04  1.671101e-07
    297    291   2   0.50000     0.0600000   -0.1200000   2.494471e-04  1.671101e-07
    297    298   2   0.50000     0.0600000    0.0600000   6.128906e-05  1.496315e-08
    297    299   2   0.50000     0.0600000    0.0600000   6.128906e-05  1.496315e-08
    288    293   2   0.50000    -0.0600000   -0.1200000   1.015252e-03  1.866303e-06
    288    306   2   0.50000    -0.0600000    0.0600000   2.494471e-04  1.671101e-07
    288    307   2   0.50000    -0.0600000    0.0600000   2.494471e-04  1.671101e-07
    290    293   2   0.50000    -0.1200000   -0.1200000   1.015252e-03  1.866303e-06
    290    306   2   0.50000    -0.1200000    0.0600000   2.494471e-04  1.671101e-07
    290    307   2   0.50000    -0.1200000    0.0600000   2.494471e-04  1.671101e-07
    297    293   2   0.50000     0.0600000   -0.1200000   2.494471e-04  1.671101e-07
    297    306   2   0.50000     0.0600000    0.0600000   6.128906e-05  1.496315e-08
    297    307   2   0.50000     0.0600000    0.0600000   6.128906e-05  1.496315e-08
    289    292   2   0.50000    -0.0600000   -0.1200000   1.015252e-03  1.866303e-06
    289    300   2   0.50000    -0.0600000    0.0600000   2.494471e-04  1.671101e-07
    289    301   2   0.50000    -0.0600000    0.0600000   2.494471e-04  1.671101e-07
    298    292   2   0.50000     0.0600000   -0.1200000   2.494471e-04  1.671101e-07
    298    300   2   0.50000     0.0600000    0.0600000   6.128906e-05  1.496315e-08
    298    301   2   0.50000     0.0600000    0.0600000   6.128906e-05  1.496315e-08
    299    292   2   0.50000     0.0600000   -0.1200000   2.494471e-04  1.671101e-07
    299    300   2   0.50000     0.0600000    0.0600000   6.128906e-05  1.496315e-08
    299    301   2   0.50000     0.0600000    0.0600000   6.128906e-05  1.496315e-08
    290    302   2   0.50000    -0.1200000    0.0600000   2.494471e-04  1.671101e-07
    290    303   2   0.50000    -0.1200000    0.0600000   2.494471e-04  1.671101e-07
    300    293   2   0.50000     0.0600000   -0.1200000   2.494471e-04  1.671101e-07
    300    302   2   0.50000     0.0600000    0.0600000   6.128906e-05  1.496315e-08
    300    303   2   0.50000     0.0600000    0.0600000   6.128906e-05  1.496315e-08
    301    293   2   0.50000     0.0600000   -0.1200000   2.494471e-04  1.671101e-07
    301    302   2   0.50000     0.0600000    0.0600000   6.128906e-05  1.496315e-08
    301    303   2   0.50000     0.0600000    0.0600000   6.128906e-05  1.496315e-08
    291    304   2   0.50000    -0.1200000    0.0600000   2.494471e-04  1.671101e-07
    291    305   2   0.50000    -0.1200000    0.0600000   2.494471e-04  1.671101e-07
    302    294   2   0.50000     0.0600000   -0.1200000   2.494471e-04  1.671101e-07
    302    304   2   0.50000     0.0600000    0.0600000   6.128906e-05  1.496315e-08
    302    305   2   0.50000     0.0600000    0.0600000   6.128906e-05  1.496315e-08
    303    294   2   0.50000     0.0600000   -0.1200000   2.494471e-04  1.671101e-07
    303    304   2   0.50000     0.0600000    0.0600000   6.128906e-05  1.496315e-08
    303    305   2   0.50000     0.0600000    0.0600000   6.128906e-05  1.496315e-08
    292    306   2   0.50000    -0.1200000    0.0600000   2.494471e-04  1.671101e-07
    292    307   2   0.50000    -0.1200000    0.0600000   2.494471e-04  1.671101e-07
    304    289   2   0.50000     0.0600000   -0.0600000   2.494471e-04  1.671101e-07
    304    306   2   0.50000     0.0600000    0.0600000   6.128906e-05  1.496315e-08
    304    307   2   0.50000     0.0600000    0.0600000   6.128906e-05  1.496315e-08
    305    289   2   0.50000     0.0600000   -0.0600000   2.494471e-04  1.671101e-07
    305    306   2   0.50000     0.0600000    0.0600000   6.128906e-05  1.496315e-08
    305    307   2   0.50000     0.0600000    0.0600000   6.128906e-05  1.496315e-08
    288    311   2   0.50000    -0.0600000   -0.0600000   1.015252e-03  1.866303e-06
    288    317   2   0.50000    -0.0600000   -0.1200000   1.015252e-03  1.866303e-06
    288    318   2   0.50000    -0.0600000    0.0600000   2.494471e-04  1.671101e-07
    308    311   2   0.50000     0.0600000   -0.0600000   2.494471e-04  1.671101e-07
    308    317   2   0.50000     0.0600000   -0.1200000   2.494471e-04  1.671101e-07
    308    318   2   0.50000     0.0600000    0.0600000   6.128906e-05  1.496315e-08
    309    311   2   0.50000     0.0600000   -0.0600000   2.494471e-04  1.671101e-07
    309    317   2   0.50000     0.0600000   -0.1200000   2.494471e-04  1.671101e-07
    309    318   2   0.50000     0.0600000    0.0600000   6.128906e-05  1.496315e-08
    295    312   2   0.50000    -0.1200000   -0.1200000   1.015252e-03  1.866303e-06
    295    316   2   0.50000    -0.1200000   -0.1200000   1.015252e-03  1.866303e-06
    295    319   2   0.50000    -0.1200000    0.0600000   2.494471e-04  1.671101e-07
    317    312   2   0.50000    -0.1200000   -0.1200000   1.015252e-03  1.866303e-06
    317    316   2   0.50000    -0.1200000   -0.1200000   1.015252e-03  1.866303e-06
    317    319   2   0.50000    -0.1200000    0.0600000   2.494471e-04  1.671101e-07
    318    312   2   0.50000     0.0600000   -0.1200000   2.494471e-04  1.671101e-07
    318    316   2   0.50000     0.0600000   -0.1200000   2.494471e-04  1.671101e-07
    318    319   2   0.50000     0.0600000    0.0600000   6.128906e-05  1.496315e-08
    295    330   2   0.50000    -0.1200000    0.0600000   2.494471e-04  1.671101e-07
    295    331   2   0.50000    -0.1200000    0.0600000   2.494471e-04  1.671101e-07
    295    332   2   0.50000    -0.1200000   -0.0600000   1.015252e-03  1.866303e-06
    311    330   2   0.50000    -0.0600000    0.0600000   2.494471e-04  1.671101e-07
    311    331   2   0.50000    -0.0600000    0.0600000   2.494471e-04  1.671101e-07
    311    332   2   0.50000    -0.0600000   -0.0600000   1.015252e-03  1.866303e-06
    318    330   2   0.50000     0.0600000    0.0600000   6.128906e-05  1.496315e-08
    318    331   2   0.50000     0.0600000    0.0600000   6.128906e-05  1.496315e-08
    318    332   2   0.50000     0.0600000   -0.0600000   2.494471e-04  1.671101e-07
    310    313   2   0.50000    -0.0600000   -0.1200000   1.015252e-03  1.866303e-06
    310    320   2   0.50000    -0.0600000    0.0600000   2.494471e-04  1.671101e-07
    310    321   2   0.50000    -0.0600000    0.0600000   2.494471e-04  1.671101e-07
    316    313   2   0.50000    -0.1200000   -0.1200000   1.015252e-03  1.866303e-06
    316    320   2   0.50000    -0.1200000    0.0600000   2.494471e-04  1.671101e-07
    316    321   2   0.50000    -0.1200000    0.0600000   2.494471e-04  1.671101e-07
    319    313   2   0.50000     0.0600000   -0.1200000   2.494471e-04  1.671101e-07
    319    320   2   0.50000     0.0600000    0.0600000   6.128906e-05  1.496315e-08
    319    321   2   0.50000     0.0600000    0.0600000   6.128906e-05  1.496315e-08
    310    315   2   0.50000    -0.0600000   -0.1200000   1.015252e-03  1.866303e-06
    310    328   2   0.50000    -0.0600000    0.0600000   2.494471e-04  1.671101e-07
    310    329   2   0.50000    -0.0600000    0.0600000   2.494471e-04  1.671101e-07
    312    315   2   0.50000    -0.1200000   -0.1200000   1.015252e-03  1.866303e-06
    312    328   2   0.50000    -0.1200000    0.0600000   2.494471e-04  1.671101e-07
    312    329   2   0.50000    -0.1200000    0.0600000   2.494471e-04  1.671101e-07
    319    315   2   0.50000     0.0600000   -0.1200000   2.494471e-04  1.671101e-07
    319    328   2   0.50000     0.0600000    0.0600000   6.128906e-05  1.496315e-08
    319    329   2   0.50000     0.0600000    0.0600000   6.128906e-05  1.496315e-08
    311    314   2   0.50000    -0.0600000   -0.1200000   1.015252e-03  1.866303e-06
    311    322   2   0.50000    -0.0600000    0.0600000   2.494471e-04  1.671101e-07
    311    323   2   0.50000    -0.0600000    0.0600000   2.494471e-04  1.671101e-07
    320    314   2   0.50000     0.0600000   -0.1200000   2.494471e-04  1.671101e-07
    320    322   2   0.50000     0.0600000    0.0600000   6.128906e-05  1.496315e-08
    320    323   2   0.50000     0.0600000    0.0600000   6.128906e-05  1.496315e-08
    321    314   2   0.50000     0.0600000   -0.1200000   2.494471e-04  1.671101e-07
    321    322   2   0.50000     0.0600000    0.0600000   6.128906e-05  1.496315e-08
    321    323   2   0.50000     0.0600000    0.0600000   6.128906e-05  1.496315e-08
    312    324   2   0.50000    -0.1200000    0.0600000   2.494471e-04  1.671101e-07
    312    325   2   0.50000    -0.1200000    0.0600000   2.494471e-04  1.671101e-07
    322    315   2   0.50000     0.0600000   -0.1200000   2.494471e-04  1.671101e-07
    322    324   2   0.50000     0.0600000    0.0600000   6.128906e-05  1.496315e-08
    322    325   2   0.50000     0.0600000    0.0600000   6.128906e-05  1.496315e-08
    323    315   2   0.50000     0.0600000   -0.1200000   2.494471e-04  1.671101e-07
    323    324   2   0.50000     0.0600000    0.0600000   6.128906e-05  1.496315e-08
    323    325   2   0.50000     0.0600000    0.0600000   6.128906e-05  1.496315e-08
    313    326   2   0.50000    -0.1200000    0.0600000   2.494471e-04  1.671101e-07
    313    327   2   0.50000    -0.1200000    0.0600000   2.494471e-04  1.671101e-07
    324    316   2   0.50000     0.0600000   -0.1200000   2.494471e-04  1.671101e-07
    324    326   2   0.50000     0.0600000    0.0600000   6.128906e-05  1.496315e-08
    324    327   2   0.50000     0.0600000    0.0600000   6.128906e-05  1.496315e-08
    325    316   2   0.50000     0.0600000   -0.1200000   2.494471e-04  1.671101e-07
    325    326   2   0.50000     0.0600000    0.0600000   6.128906e-05  1.496315e-08
    325    327   2   0.50000     0.0600000    0.0600000   6.128906e-05  1.496315e-08
    314    328   2   0.50000    -0.1200000    0.0600000   2.494471e-04  1.671101e-07
    314    329   2   0.50000    -0.1200000    0.0600000   2.494471e-04  1.671101e-07
    326    311   2   0.50000     0.0600000   -0.0600000   2.494471e-04  1.671101e-07
    326    328   2   0.50000     0.0600000    0.0600000   6.128906e-05  1.496315e-08
    326    329   2   0.50000     0.0600000    0.0600000   6.128906e-05  1.496315e-08
    327    311   2   0.50000     0.0600000   -0.0600000   2.494471e-04  1.671101e-07
    327    328   2   0.50000     0.0600000    0.0600000   6.128906e-05  1.496315e-08
    327    329   2   0.50000     0.0600000    0.0600000   6.128906e-05  1.496315e-08
    310    333   2   0.50000    -0.0600000   -0.0600000   1.015252e-03  1.866303e-06
    310    339   2   0.50000    -0.0600000   -0.1200000   1.015252e-03  1.866303e-06
    310    340   2   0.50000    -0.0600000    0.0600000   2.494471e-04  1.671101e-07
    330    333   2   0.50000     0.0600000   -0.0600000   2.494471e-04  1.671101e-07
    330    339   2   0.50000     0.0600000   -0.1200000   2.494471e-04  1.671101e-07
    330    340   2   0.50000     0.0600000    0.0600000   6.128906e-05  1.496315e-08
    331    333   2   0.50000     0.0600000   -0.0600000   2.494471e-04  1.671101e-07
    331    339   2   0.50000     0.0600000   -0.1200000   2.494471e-04  1.671101e-07
    331    340   2   0.50000     0.0600000    0.0600000   6.128906e-05  1.496315e-08
    317    334   2   0.50000    -0.1200000   -0.1200000   1.015252e-03  1.866303e-06
    317    338   2   0.50000    -0.1200000   -0.1200000   1.015252e-03  1.866303e-06
    317    341   2   0.50000    -0.1200000    0.0600000   2.494471e-04  1.671101e-07
    339    334   2   0.50000    -0.1200000   -0.1200000   1.015252e-03  1.866303e-06
    339    338   2   0.50000    -0.1200000   -0.1200000   1.015252e-03  1.866303e-06
    339    341   2   0.50000    -0.1200000    0.0600000   2.494471e-04  1.671101e-07
    340    334   2   0.50000     0.0600000   -0.1200000   2.494471e-04  1.671101e-07
    340    338   2   0.50000     0.0600000   -0.1200000   2.494471e-04  1.671101e-07
    340    341   2   0.50000     0.0600000    0.0600000   6.128906e-05  1.496315e-08
    317    352   2   0.50000    -0.1200000    0.0600000   2.494471e-04  1.671101e-07
    317    353   2   0.50000    -0.1200000    0.0600000   2.494471e-04  1.671101e-07
    317    354   2   0.50000    -0.1200000   -0.0600000   1.015252e-03  1.866303e-06
    333    352   2   0.50000    -0.0600000    0.0600000   2.494471e-04  1.671101e-07
    333    353   2   0.50000    -0.0600000    0.0600000   2.494471e-04  1.671101e-07
    333    354   2   0.50000    -0.0600000   -0.0600000   1.015252e-03  1.866303e-06
    340    352   2   0.50000     0.0600000    0.0600000   6.128906e-05  1.496315e-08
    340    353   2   0.50000     0.0600000    0.0600000   6.128906e-05  1.496315e-08
    340    354   2   0.50000     0.0600000   -0.0600000   2.494471e-04  1.671101e-07
    332    335   2   0.50000    -0.0600000   -0.1200000   1.015252e-03  1.866303e-06
    332    342   2   0.50000    -0.0600000    0.0600000   2.494471e-04  1.671101e-07
    332    343   2   0.50000    -0.0600000    0.0600000   2.494471e-04  1.671101e-07
    338    335   2   0.50000    -0.1200000   -0.1200000   1.015252e-03  1.866303e-06
    338    342   2   0.50000    -0.1200000    0.0600000   2.494471e-04  1.671101e-07
    338    343   2   0.50000    -0.1200000    0.0600000   2.494471e-04  1.671101e-07
    341    335   2   0.50000     0.0600000   -0.1200000   2.494471e-04  1.671101e-07
    341    342   2   0.50000     0.0600000    0.0600000   6.128906e-05  1.496315e-08
    341    343   2   0.50000     0.0600000    0.0600000   6.128906e-05  1.496315e-08
    332    337   2   0.50000    -0.0600000   -0.1200000   1.015252e-03  1.866303e-06
    332    350   2   0.50000    -0.0600000    0.0600000   2.494471e-04  1.671101e-07
    332    351   2   0.50000    -0.0600000    0.0600000   2.494471e-04  1.671101e-07
    334    337   2   0.50000    -0.1200000   -0.1200000   1.015252e-03  1.866303e-06
    334    350   2   0.50000    -0.1200000    0.0600000   2.494471e-04  1.671101e-07
    334    351   2   0.50000    -0.1200000    0.0600000   2.494471e-04  1.671101e-07
    341    337   2   0.50000     0.0600000   -0.1200000   2.494471e-04  1.671101e-07
    341    350   2   0.50000     0.0600000    0.0600000   6.128906e-05  1.496315e-08
    341    351   2   0.50000     0.0600000    0.0600000   6.128906e-05  1.496315e-08
    333    336   2   0.50000    -0.0600000   -0.1200000   1.015252e-03  1.866303e-06
    333    344   2   0.50000    -0.0600000    0.0600000   2.494471e-04  1.671101e-07
    333    345   2   0.50000    -0.0600000    0.0600000   2.494471e-04  1.671101e-07
    342    336   2   0.50000     0.0600000   -0.1200000   2.494471e-04  1.671101e-07
    342    344   2   0.50000     0.0600000    0.0600000   6.128906e-05  1.496315e-08
    342    345   2   0.50000     0.0600000    0.0600000   6.128906e-05  1.496315e-08
    343    336   2   0.50000     0.0600000   -0.1200000   2.494471e-04  1.671101e-07
    343    344   2   0.50000     0.0600000    0.0600000   6.128906e-05  1.496315e-08
    343    345   2   0.50000     0.0600000    0.0600000   6.128906e-05  1.496315e-08
    334    346   2   0.50000    -0.1200000    0.0600000   2.494471e-04  1.671101e-07
    334    347   2   0.50000    -0.1200000    0.0600000   2.494471e-04  1.671101e-07
    344    337   2   0.50000     0.0600000   -0.1200000   2.494471e-04  1.671101e-07
    344    346   2   0.50000     0.0600000    0.0600000   6.128906e-05  1.496315e-08
    344    347   2   0.50000     0.0600000    0.0600000   6.128906e-05  1.496315e-08
    345    337   2   0.50000     0.0600000   -0.1200000   2.494471e-04  1.671101e-07
    345    346   2   0.50000     0.0600000    0.0600000   6.128906e-05  1.496315e-08
    345    347   2   0.50000     0.0600000    0.0600000   6.128906e-05  1.496315e-08
    335    348   2   0.50000    -0.1200000    0.0600000   2.494471e-04  1.671101e-07
    335    349   2   0.50000    -0.1200000    0.0600000   2.494471e-04  1.671101e-07
    346    338   2   0.50000     0.0600000   -0.1200000   2.494471e-04  1.671101e-07
    346    348   2   0.50000     0.0600000    0.0600000   6.128906e-05  1.496315e-08
    346    349   2   0.50000     0.0600000    0.0600000   6.128906e-05  1.496315e-08
    347    338   2   0.50000     0.0600000   -0.1200000   2.494471e-04  1.671101e-07
    347    348   2   0.50000     0.0600000    0.0600000   6.128906e-05  1.496315e-08
    347    349   2   0.50000     0.0600000    0.0600000   6.128906e-05  1.496315e-08
    336    350   2   0.50000    -0.1200000    0.0600000   2.494471e-04  1.671101e-07
    336    351   2   0.50000    -0.1200000    0.0600000   2.494471e-04  1.671101e-07
    348    333   2   0.50000     0.0600000   -0.0600000   2.494471e-04  1.671101e-07
    348    350   2   0.50000     0.0600000    0.0600000   6.128906e-05  1.496315e-08
    348    351   2   0.50000     0.0600000    0.0600000   6.128906e-05  1.496315e-08
    349    333   2   0.50000     0.0600000   -0.0600000   2.494471e-04  1.671101e-07
    349    350   2   0.50000     0.0600000    0.0600000   6.128906e-05  1.496315e-08
    349    351   2   0.50000     0.0600000    0.0600000   6.128906e-05  1.496315e-08
    332    355   2   0.50000    -0.0600000   -0.0600000   1.015252e-03  1.866303e-06
    332    361   2   0.50000    -0.0600000   -0.1200000   1.015252e-03  1.866303e-06
    332    362   2   0.50000    -0.0600000    0.0600000   2.494471e-04  1.671101e-07
    352    355   2   0.50000     0.0600000   -0.0600000   2.494471e-04  1.671101e-07
    352    361   2   0.50000     0.0600000   -0.1200000   2.494471e-04  1.671101e-07
    352    362   2   0.50000     0.0600000    0.0600000   6.128906e-05  1.496315e-08
    353    355   2   0.50000     0.0600000   -0.0600000   2.494471e-04  1.671101e-07
    353    361   2   0.50000     0.0600000   -0.1200000   2.494471e-04  1.671101e-07
    353    362   2   0.50000     0.0600000    0.0600000   6.128906e-05  1.496315e-08
    339    356   2   0.50000    -0.1200000   -0.1200000   1.015252e-03  1.866303e-06
    339    360   2   0.50000    -0.1200000   -0.1200000   1.015252e-03  1.866303e-06
    339    363   2   0.50000    -0.1200000    0.0600000   2.494471e-04  1.671101e-07
    361    356   2   0.50000    -0.1200000   -0.1200000   1.015252e-03  1.866303e-06
    361    360   2   0.50000    -0.1200000   -0.1200000   1.015252e-03  1.866303e-06
    361    363   2   0.50000    -0.1200000    0.0600000   2.494471e-04  1.671101e-07
    362    356   2   0.50000     0.0600000   -0.1200000   2.494471e-04  1.671101e-07
    362    360   2   0.50000     0.0600000   -0.1200000   2.494471e-04  1.671101e-07
    362    363   2   0.50000     0.0600000    0.0600000   6.128906e-05  1.496315e-08
    339    374   2   0.50000    -0.1200000    0.0600000   2.494471e-04  1.671101e-07
    339    375   2   0.50000    -0.1200000    0.0600000   2.494471e-04  1.671101e-07
    339    376   2   0.50000    -0.1200000   -0.0600000   1.015252e-03  1.866303e-06
    355    374   2   0.50000    -0.0600000    0.0600000   2.494471e-04  1.671101e-07
    355    375   2   0.50000    -0.0600000    0.0600000   2.494471e-04  1.671101e-07
    355    376   2   0.50000    -0.0600000   -0.0600000   1.015252e-03  1.866303e-06
    362    374   2   0.50000     0.0600000    0.0600000   6.128906e-05  1.496315e-08
    362    375   2   0.50000     0.0600000    0.0600000   6.128906e-05  1.496315e-08
    362    376   2   0.50000     0.0600000   -0.0600000   2.494471e-04  1.671101e-07
    354    357   2   0.50000    -0.0600000   -0.1200000   1.015252e-03  1.866303e-06
    354    364   2   0.50000    -0.0600000    0.0600000   2.494471e-04  1.671101e-07
    354    365   2   0.50000    -0.0600000    0.0600000   2.494471e-04  1.671101e-07
    360    357   2   0.50000    -0.1200000   -0.1200000   1.015252e-03  1.866303e-06
    360    364   2   0.50000    -0.1200000    0.0600000   2.494471e-04  1.671101e-07
    360    365   2   0.50000    -0.1200000    0.0600000   2.494471e-04  1.671101e-07
    363    357   2   0.50000     0.0600000   -0.1200000   2.494471e-04  1.671101e-07
    363    364   2   0.50000     0.0600000    0.0600000   6.128906e-05  1.496315e-08
    363    365   2   0.50000     0.0600000    0.0600000   6.128906e-05  1.496315e-08
    354    359   2   0.50000    -0.0600000   -0.1200000   1.015252e-03  1.866303e-06
    354    372   2   0.50000    -0.0600000    0.0600000   2.494471e-04  1.671101e-07
    354    373   2   0.50000    -0.0600000    0.0600000   2.494471e-04  1.671101e-07
    356    359   2   0.50000    -0.1200000   -0.1200000   1.015252e-03  1.866303e-06
    356    372   2   0.50000    -0.1200000    0.0600000   2.494471e-04  1.671101e-07
    356    373   2   0.50000    -0.1200000    0.0600000   2.494471e-04  1.671101e-07
    363    359   2   0.50000     0.0600000   -0.1200000   2.494471e-04  1.671101e-07
    363    372   2   0.50000     0.0600000    0.0600000   6.128906e-05  1.496315e-08
    363    373   2   0.50000     0.0600000    0.0600000   6.128906e-05  1.496315e-08
    355    358   2   0.50000    -0.0600000   -0.1200000   1.015252e-03  1.866303e-06
    355    366   2   0.50000    -0.0600000    0.0600000   2.494471e-04  1.671101e-07
    355    367   2   0.50000    -0.0600000    0.0600000   2.494471e-04  1.671101e-07
    364    358   2   0.50000     0.0600000   -0.1200000   2.494471e-04  1.671101e-07
    364    366   2   0.50000     0.0600000    0.0600000   6.128906e-05  1.496315e-08
    364    367   2   0.50000     0.0600000    0.0600000   6.128906e-05  1.496315e-08
    365    358   2   0.50000     0.0600000   -0.1200000   2.494471e-04  1.671101e-07
    365    366   2   0.50000     0.0600000    0.0600000   6.128906e-05  1.496315e-08
    365    367   2   0.50000     0.0600000    0.0600000   6.128906e-05  1.496315e-08
    356    368   2   0.50000    -0.1200000    0.0600000   2.494471e-04  1.671101e-07
    356    369   2   0.50000    -0.1200000    0.0600000   2.494471e-04  1.671101e-07
    366    359   2   0.50000     0.0600000   -0.1200000   2.494471e-04  1.671101e-07
    366    368   2   0.50000     0.0600000    0.0600000   6.128906e-05  1.496315e-08
    366    369   2   0.50000     0.0600000    0.0600000   6.128906e-05  1.496315e-08
    367    359   2   0.50000     0.0600000   -0.1200000   2.494471e-04  1.671101e-07
    367    368   2   0.50000     0.0600000    0.0600000   6.128906e-05  1.496315e-08
    367    369   2   0.50000     0.0600000    0.0600000   6.128906e-05  1.496315e-08
    357    370   2   0.50000    -0.1200000    0.0600000   2.494471e-04  1.671101e-07
    357    371   2   0.50000    -0.1200000    0.0600000   2.494471e-04  1.671101e-07
    368    360   2   0.50000     0.0600000   -0.1200000   2.494471e-04  1.671101e-07
    368    370   2   0.50000     0.0600000    0.0600000   6.128906e-05  1.496315e-08
    368    371   2   0.50000     0.0600000    0.0600000   6.128906e-05  1.496315e-08
    369    360   2   0.50000     0.0600000   -0.1200000   2.494471e-04  1.671101e-07
    369    370   2   0.50000     0.0600000    0.0600000   6.128906e-05  1.496315e-08
    369    371   2   0.50000     0.0600000    0.0600000   6.128906e-05  1.496315e-08
    358    372   2   0.50000    -0.1200000    0.0600000   2.494471e-04  1.671101e-07
    358    373   2   0.50000    -0.1200000    0.0600000   2.494471e-04  1.671101e-07
    370    355   2   0.50000     0.0600000   -0.0600000   2.494471e-04  1.671101e-07
    370    372   2   0.50000     0.0600000    0.0600000   6.128906e-05  1.496315e-08
    370    373   2   0.50000     0.0600000    0.0600000   6.128906e-05  1.496315e-08
    371    355   2   0.50000     0.0600000   -0.0600000   2.494471e-04  1.671101e-07
    371    372   2   0.50000     0.0600000    0.0600000   6.128906e-05  1.496315e-08
    371    373   2   0.50000     0.0600000    0.0600000   6.128906e-05  1.496315e-08
    354    377   2   0.50000    -0.0600000   -0.0600000   1.015252e-03  1.866303e-06
    354    383   2   0.50000    -0.0600000   -0.1200000   1.015252e-03  1.866303e-06
    354    384   2   0.50000    -0.0600000    0.0600000   2.494471e-04  1.671101e-07
    374    377   2   0.50000     0.0600000   -0.0600000   2.494471e-04  1.671101e-07
    374    383   2   0.50000     0.0600000   -0.1200000   2.494471e-04  1.671101e-07
    374    384   2   0.50000     0.0600000    0.0600000   6.128906e-05  1.496315e-08
    375    377   2   0.50000     0.0600000   -0.0600000   2.494471e-04  1.671101e-07
    375    383   2   0.50000     0.0600000   -0.1200000   2.494471e-04  1.671101e-07
    375    384   2   0.50000     0.0600000    0.0600000   6.128906e-05  1.496315e-08
    361    378   2   0.50000    -0.1200000   -0.1200000   1.015252e-03  1.866303e-06
    361    382   2   0.50000    -0.1200000   -0.1200000   1.015252e-03  1.866303e-06
    361    385   2   0.50000    -0.1200000    0.0600000   2.494471e-04  1.671101e-07
    383    378   2   0.50000    -0.1200000   -0.1200000   1.015252e-03  1.866303e-06
    383    382   2   0.50000    -0.1200000   -0.1200000   1.015252e-03  1.866303e-06
    383    385   2   0.50000    -0.1200000    0.0600000   2.494471e-04  1.671101e-07
    384    378   2   0.50000     0.0600000   -0.1200000   2.494471e-04  1.671101e-07
    384    382   2   0.50000     0.0600000   -0.1200000   2.494471e-04  1.671101e-07
    384    385   2   0.50000     0.0600000    0.0600000   6.128906e-05  1.496315e-08
    361    396   2   0.50000    -0.1200000    0.0600000   2.494471e-04  1.671101e-07
    361    397   2   0.50000    -0.1200000    0.0600000   2.494471e-04  1.671101e-07
    361    398   2   0.50000    -0.1200000   -0.0600000   1.015252e-03  1.866303e-06
    377    396   2   0.50000    -0.0600000    0.0600000   2.494471e-04  1.671101e-07
    377    397   2   0.50000    -0.0600000    0.0600000   2.494471e-04  1.671101e-07
    377    398   2   0.50000    -0.0600000   -0.0600000   1.015252e-03  1.866303e-06
    384    396   2   0.50000     0.0600000    0.0600000   6.128906e-05  1.496315e-08
    384    397   2   0.50000     0.0600000    0.0600000   6.128906e-05  1.496315e-08
    384    398   2   0.50000     0.0600000   -0.0600000   2.494471e-04  1.671101e-07
    376    379   2   0.50000    -0.0600000   -0.1200000   1.015252e-03  1.866303e-06
    376    386   2   0.50000    -0.0600000    0.0600000   2.494471e-04  1.671101e-07
    376    387   2   0.50000    -0.0600000    0.0600000   2.494471e-04  1.671101e-07
    382    379   2   0.50000    -0.1200000   -0.1200000   1.015252e-03  1.866303e-06
    382    386   2   0.50000    -0.1200000    0.0600000   2.494471e-04  1.671101e-07
    382    387   2   0.50000    -0.1200000    0.0600000   2.494471e-04  1.671101e-07
    385    379   2   0.50000     0.0600000   -0.1200000   2.494471e-04  1.671101e-07
    385    386   2   0.50000     0.0600000    0.0600000   6.128906e-05  1.496315e-08
    385    387   2   0.50000     0.0600000    0.0600000   6.128906e-05  1.496315e-08
    376    381   2   0.50000    -0.0600000   -0.1200000   1.015252e-03  1.866303e-06
    376    394   2   0.50000    -0.0600000    0.0600000   2.494471e-04  1.671101e-07
    376    395   2   0.50000    -0.0600000    0.0600000   2.494471e-04  1.671101e-07
    378    381   2   0.50000    -0.1200000   -0.1200000   1.015252e-03  1.866303e-06
    378    394   2   0.50000    -0.1200000    0.0600000   2.494471e-04  1.671101e-07
    378    395   2   0.50000    -0.1200000    0.0600000   2.494471e-04  1.671101e-07
    385    381   2   0.50000     0.0600000   -0.1200000   2.494471e-04  1.671101e-07
    385    394   2   0.50000     0.0600000    0.0600000   6.128906e-05  1.496315e-08
    385    395   2   0.50000     0.0600000    0.0600000   6.128906e-05  1.496315e-08
    377    380   2   0.50000    -0.0600000   -0.1200000   1.015252e-03  1.866303e-06
    377    388   2   0.50000    -0.0600000    0.0600000   2.494471e-04  1.671101e-07
    377    389   2   0.50000    -0.0600000    0.0600000   2.494471e-04  1.671101e-07
    386    380   2   0.50000     0.0600000   -0.1200000   2.494471e-04  1.671101e-07
    386    388   2   0.50000     0.0600000    0.0600000   6.128906e-05  1.496315e-08
    386    389   2   0.50000     0.0600000    0.0600000   6.128906e-05  1.496315e-08
    387    380   2   0.50000     0.0600000   -0.1200000   2.494471e-04  1.671101e-07
    387    388   2   0.50000     0.0600000    0.0600000   6.128906e-05  1.496315e-08
    387    389   2   0.50000     0.0600000    0.0600000   6.128906e-05  1.496315e-08
    378    390   2   0.50000    -0.1200000    0.0600000   2.494471e-04  1.671101e-07
    378    391   2   0.50000    -0.1200000    0.0600000   2.494471e-04  1.671101e-07
    388    381   2   0.50000     0.0600000   -0.1200000   2.494471e-04  1.671101e-07
    388    390   2   0.50000     0.0600000    0.0600000   6.128906e-05  1.496315e-08
    388    391   2   0.50000     0.0600000    0.0600000   6.128906e-05  1.496315e-08
    389    381   2   0.50000     0.0600000   -0.1200000   2.494471e-04  1.671101e-07
    389    390   2   0.50000     0.0600000    0.0600000   6.128906e-05  1.496315e-08
    389    391   2   0.50000     0.0600000    0.0600000   6.128906e-05  1.496315e-08
    379    392   2   0.50000    -0.1200000    0.0600000   2.494471e-04  1.671101e-07
    379    393   2   0.50000    -0.1200000    0.0600000   2.494471e-04  1.671101e-07
    390    382   2   0.50000     0.0600000   -0.1200000   2.494471e-04  1.671101e-07
    390    392   2   0.50000     0.0600000    0.0600000   6.128906e-05  1.496315e-08
    390    393   2   0.50000     0.0600000    0.0600000   6.128906e-05  1.496315e-08
    391    382   2   0.50000     0.0600000   -0.1200000   2.494471e-04  1.671101e-07
    391    392   2   0.50000     0.0600000    0.0600000   6.128906e-05  1.496315e-08
    391    393   2   0.50000     0.0600000    0.0600000   6.128906e-05  1.496315e-08
    380    394   2   0.50000    -0.1200000    0.0600000   2.494471e-04  1.671101e-07
    380    395   2   0.50000    -0.1200000    0.0600000   2.494471e-04  1.671101e-07
    392    377   2   0.50000     0.0600000   -0.0600000   2.494471e-04  1.671101e-07
    392    394   2   0.50000     0.0600000    0.0600000   6.128906e-05  1.496315e-08
    392    395   2   0.50000     0.0600000    0.0600000   6.128906e-05  1.496315e-08
    393    377   2   0.50000     0.0600000   -0.0600000   2.494471e-04  1.671101e-07
    393    394   2   0.50000     0.0600000    0.0600000   6.128906e-05  1.496315e-08
    393    395   2   0.50000     0.0600000    0.0600000   6.128906e-05  1.496315e-08
    376    399   2   0.50000    -0.0600000   -0.0600000   1.015252e-03  1.866303e-06
    376    405   2   0.50000    -0.0600000   -0.1200000   1.015252e-03  1.866303e-06
    376    406   2   0.50000    -0.0600000    0.0600000   2.494471e-04  1.671101e-07
    396    399   2   0.50000     0.0600000   -0.0600000   2.494471e-04  1.671101e-07
    396    405   2   0.50000     0.0600000   -0.1200000   2.494471e-04  1.671101e-07
    396    406   2   0.50000     0.0600000    0.0600000   6.128906e-05  1.496315e-08
    397    399   2   0.50000     0.0600000   -0.0600000   2.494471e-04  1.671101e-07
    397    405   2   0.50000     0.0600000   -0.1200000   2.494471e-04  1.671101e-07
    397    406   2   0.50000     0.0600000    0.0600000   6.128906e-05  1.496315e-08
    383    400   2   0.50000    -0.1200000   -0.1200000   1.015252e-03  1.866303e-06
    383    404   2   0.50000    -0.1200000   -0.1200000   1.015252e-03  1.866303e-06
    383    407   2   0.50000    -0.1200000    0.0600000   2.494471e-04  1.671101e-07
    405    400   2   0.50000    -0.1200000   -0.1200000   1.015252e-03  1.866303e-06
    405    404   2   0.50000    -0.1200000   -0.1200000   1.015252e-03  1.866303e-06
    405    407   2   0.50000    -0.1200000    0.0600000   2.494471e-04  1.671101e-07
    406    400   2   0.50000     0.0600000   -0.1200000   2.494471e-04  1.671101e-07
    406    404   2   0.50000     0.0600000   -0.1200000   2.494471e-04  1.671101e-07
    406    407   2   0.50000     0.0600000    0.0600000   6.128906e-05  1.496315e-08
    383    418   2   0.50000    -0.1200000    0.0600000   2.494471e-04  1.671101e-07
    383    419   2   0.50000    -0.1200000    0.0600000   2.494471e-04  1.671101e-07
    383    420   2   0.50000    -0.1200000   -0.0600000   1.015252e-03  1.866303e-06
    399    418   2   0.50000    -0.0600000    0.0600000   2.494471e-04  1.671101e-07
    399    419   2   0.50000    -0.0600000    0.0600000   2.494471e-04  1.671101e-07
    399    420   2   0.50000    -0.0600000   -0.0600000   1.015252e-03  1.866303e-06
    406    418   2   0.50000     0.0600000    0.0600000   6.128906e-05  1.496315e-08
    406    419   2   0.50000     0.0600000    0.0600000   6.128906e-05  1.496315e-08
    406    420   2   0.50000     0.0600000   -0.0600000   2.494471e-04  1.671101e-07
    398    401   2   0.50000    -0.0600000   -0.1200000   1.015252e-03  1.866303e-06
    398    408   2   0.50000    -0.0600000    0.0600000   2.494471e-04  1.671101e-07
    398    409   2   0.50000    -0.0600000    0.0600000   2.494471e-04  1.671101e-07
    404    401   2   0.50000    -0.1200000   -0.1200000   1.015252e-03  1.866303e-06
    404    408   2   0.50000    -0.1200000    0.0600000   2.494471e-04  1.671101e-07
    404    409   2   0.50000    -0.1200000    0.0600000   2.494471e-04  1.671101e-07
    407    401   2   0.50000     0.0600000   -0.1200000   2.494471e-04  1.671101e-07
    407    408   2   0.50000     0.0600000    0.0600000   6.128906e-05  1.496315e-08
    407    409   2   0.50000     0.0600000    0.0600000   6.128906e-05  1.496315e-08
    398    403   2   0.50000    -0.0600000   -0.1200000   1.015252e-03  1.866303e-06
    398    416   2   0.50000    -0.0600000    0.0600000   2.494471e-04  1.671101e-07
    398    417   2   0.50000    -0.0600000    0.0600000   2.494471e-04  1.671101e-07
    400    403   2   0.50000    -0.1200000   -0.1200000   1.015252e-03  1.866303e-06
    400    416   2   0.50000    -0.1200000    0.0600000   2.494471e-04  1.671101e-07
    400    417   2   0.50000    -0.1200000    0.0600000   2.494471e-04  1.671101e-07
    407    403   2   0.50000     0.0600000   -0.1200000   2.494471e-04  1.671101e-07
    407    416   2   0.50000     0.0600000    0.0600000   6.128906e-05  1.496315e-08
    407    417   2   0.50000     0.0600000    0.0600000   6.128906e-05  1.496315e-08
    399    402   2   0.50000    -0.0600000   -0.1200000   1.015252e-03  1.866303e-06
    399    410   2   0.50000    -0.0600000    0.0600000   2.494471e-04  1.671101e-07
    399    411   2   0.50000    -0.0600000    0.0600000   2.494471e-04  1.671101e-07
    408    402   2   0.50000     0.0600000   -0.1200000   2.494471e-04  1.671101e-07
    408    410   2   0.50000     0.0600000    0.0600000   6.128906e-05  1.496315e-08
    408    411   2   0.50000     0.0600000    0.0600000   6.128906e-05  1.496315e-08
    409    402   2   0.50000     0.0600000   -0.1200000   2.494471e-04  1.671101e-07
    409    410   2   0.50000     0.0600000    0.0600000   6.128906e-05  1.496315e-08
    409    411   2   0.50000     0.0600000    0.0600000   6.128906e-05  1.496315e-08
    400    412   2   0.50000    -0.1200000    0.0600000   2.494471e-04  1.671101e-07
    400    413   2   0.50000    -0.1200000    0.0600000   2.494471e-04  1.671101e-07
    410    403   2   0.50000     0.0600000   -0.1200000   2.494471e-04  1.671101e-07
    410    412   2   0.50000     0.0600000    0.0600000   6.128906e-05  1.496315e-08
    410    413   2   0.50000     0.0600000    0.0600000   6.128906e-05  1.496315e-08
    411    403   2   0.50000     0.0600000   -0.1200000   2.494471e-04  1.671101e-07
    411    412   2   0.50000     0.0600000    0.0600000   6.128906e-05  1.496315e-08
    411    413   2   0.50000     0.0600000    0.0600000   6.128906e-05  1.496315e-08
    401    414   2   0.50000    -0.1200000    0.0600000   2.494471e-04  1.671101e-07
    401    415   2   0.50000    -0.1200000    0.0600000   2.494471e-04  1.671101e-07
    412    404   2   0.50000     0.0600000   -0.1200000   2.494471e-04  1.671101e-07
    412    414   2   0.50000     0.0600000    0.0600000   6.128906e-05  1.496315e-08
    412    415   2   0.50000     0.0600000    0.0600000   6.128906e-05  1.496315e-08
    413    404   2   0.50000     0.0600000   -0.1200000   2.494471e-04  1.671101e-07
    413    414   2   0.50000     0.0600000    0.0600000   6.128906e-05  1.496315e-08
    413    415   2   0.50000     0.0600000    0.0600000   6.128906e-05  1.496315e-08
    402    416   2   0.50000    -0.1200000    0.0600000   2.494471e-04  1.671101e-07
    402    417   2   0.50000    -0.1200000    0.0600000   2.494471e-04  1.671101e-07
    414    399   2   0.50000     0.0600000   -0.0600000   2.494471e-04  1.671101e-07
    414    416   2   0.50000     0.0600000    0.0600000   6.128906e-05  1.496315e-08
    414    417   2   0.50000     0.0600000    0.0600000   6.128906e-05  1.496315e-08
    415    399   2   0.50000     0.0600000   -0.0600000   2.494471e-04  1.671101e-07
    415    416   2   0.50000     0.0600000    0.0600000   6.128906e-05  1.496315e-08
    415    417   2   0.50000     0.0600000    0.0600000   6.128906e-05  1.496315e-08
    398    421   2   0.50000    -0.0600000   -0.0600000   1.015252e-03  1.866303e-06
    398    427   2   0.50000    -0.0600000   -0.1800000   1.015252e-03  1.866303e-06
    398    428   2   0.50000    -0.0600000    0.0600000   2.494471e-04  1.671101e-07
    418    421   2   0.50000     0.0600000   -0.0600000   2.494471e-04  1.671101e-07
    418    427   2   0.50000     0.0600000   -0.1800000   2.494471e-04  1.671101e-07
    418    428   2   0.50000     0.0600000    0.0600000   6.128906e-05  1.496315e-08
    419    421   2   0.50000     0.0600000   -0.0600000   2.494471e-04  1.671101e-07
    419    427   2   0.50000     0.0600000   -0.1800000   2.494471e-04  1.671101e-07
    419    428   2   0.50000     0.0600000    0.0600000   6.128906e-05  1.496315e-08
    405    422   2   0.50000    -0.1200000   -0.1200000   1.015252e-03  1.866303e-06
    405    426   2   0.50000    -0.1200000   -0.1200000   1.015252e-03  1.866303e-06
    405    429   2   0.50000    -0.1200000    0.0600000   2.494471e-04  1.671101e-07
    427    422   2   0.50000    -0.1800000   -0.1200000   1.015252e-03  1.866303e-06
    427    426   2   0.50000    -0.1800000   -0.1200000   1.015252e-03  1.866303e-06
    427    429   2   0.50000    -0.1800000    0.0600000   2.494471e-04  1.671101e-07
    428    422   2   0.50000     0.0600000   -0.1200000   2.494471e-04  1.671101e-07
    428    426   2   0.50000     0.0600000   -0.1200000   2.494471e-04  1.671101e-07
    428    429   2   0.50000     0.0600000    0.0600000   6.128906e-05  1.496315e-08
    405    440   2   0.50000    -0.1200000    0.0600000   2.494471e-04  1.671101e-07
    405    441   2   0.50000    -0.1200000    0.0600000   2.494471e-04  1.671101e-07
    405    442   2   0.50000    -0.1200000    0.0600000   2.494471e-04  1.671101e-07
    421    440   2   0.50000    -0.0600000    0.0600000   2.494471e-04  1.671101e-07
    421    441   2   0.50000    -0.0600000    0.0600000   2.494471e-04  1.671101e-07
    421    442   2   0.50000    -0.0600000    0.0600000   2.494471e-04  1.671101e-07
    428    440   2   0.50000     0.0600000    0.0600000   6.128906e-05  1.496315e-08
    428    441   2   0.50000     0.0600000    0.0600000   6.128906e-05  1.496315e-08
    428    442   2   0.50000     0.0600000    0.0600000   6.128906e-05  1.496315e-08
    420    423   2   0.50000    -0.0600000   -0.1200000   1.015252e-03  1.866303e-06
    420    430   2   0.50000    -0.0600000    0.0600000   2.494471e-04  1.671101e-07
    420    431   2   0.50000    -0.0600000    0.0600000   2.494471e-04  1.671101e-07
    426    423   2   0.50000    -0.1200000   -0.1200000   1.015252e-03  1.866303e-06
    426    430   2   0.50000    -0.1200000    0.0600000   2.494471e-04  1.671101e-07
    426    431   2   0.50000    -0.1200000    0.0600000   2.494471e-04  1.671101e-07
    429    423   2   0.50000     0.0600000   -0.1200000   2.494471e-04  1.671101e-07
    429    430   2   0.50000     0.0600000    0.0600000   6.128906e-05  1.496315e-08
    429    431   2   0.50000     0.0600000    0.0600000   6.128906e-05  1.496315e-08
    420    425   2   0.50000    -0.0600000   -0.1200000   1.015252e-03  1.866303e-06
    420    438   2   0.50000    -0.0600000    0.0600000   2.494471e-04  1.671101e-07
    420    439   2   0.50000    -0.0600000    0.0600000   2.494471e-04  1.671101e-07
    422    425   2   0.50000    -0.1200000   -0.1200000   1.015252e-03  1.866303e-06
    422    438   2   0.50000    -0.1200000    0.0600000   2.494471e-04  1.671101e-07
    422    439   2   0.50000    -0.1200000    0.0600000   2.494471e-04  1.671101e-07
    429    425   2   0.50000     0.0600000   -0.1200000   2.494471e-04  1.671101e-07
    429    438   2   0.50000     0.0600000    0.0600000   6.128906e-05  1.496315e-08
    429    439   2   0.50000     0.0600000    0.0600000   6.128906e-05  1.496315e-08
    421    424   2   0.50000    -0.0600000   -0.1200000   1.015252e-03  1.866303e-06
    421    432   2   0.50000    -0.0600000    0.0600000   2.494471e-04  1.671101e-07
    421    433   2   0.50000    -0.0600000    0.0600000   2.494471e-04  1.671101e-07
    430    424   2   0.50000     0.0600000   -0.1200000   2.494471e-04  1.671101e-07
    430    432   2   0.50000     0.0600000    0.0600000   6.128906e-05  1.496315e-08
    430    433   2   0.50000     0.0600000    0.0600000   6.128906e-05  1.496315e-08
    431    424   2   0.50000     0.0600000   -0.1200000   2.494471e-04  1.671101e-07
    431    432   2   0.50000     0.0600000    0.0600000   6.128906e-05  1.496315e-08
    431    433   2   0.50000     0.0600000    0.0600000   6.128906e-05  1.496315e-08
    422    434   2   0.50000    -0.1200000    0.0600000   2.494471e-04  1.671101e-07
    422    435   2   0.50000    -0.1200000    0.0600000   2.494471e-04  1.671101e-07
    432    425   2   0.50000     0.0600000   -0.1200000   2.494471e-04  1.671101e-07
    432    434   2   0.50000     0.0600000    0.0600000   6.128906e-05  1.496315e-08
    432    435   2   0.50000     0.0600000    0.0600000   6.128906e-05  1.496315e-08
    433    425   2   0.50000     0.0600000   -0.1200000   2.494471e-04  1.671101e-07
    433    434   2   0.50000     0.0600000    0.0600000   6.128906e-05  1.496315e-08
    433    435   2   0.50000     0.0600000    0.0600000   6.128906e-05  1.496315e-08
    423    436   2   0.50000    -0.1200000    0.0600000   2.494471e-04  1.671101e-07
    423    437   2   0.50000    -0.1200000    0.0600000   2.494471e-04  1.671101e-07
    434    426   2   0.50000     0.0600000   -0.1200000   2.494471e-04  1.671101e-07
    434    436   2   0.50000     0.0600000    0.0600000   6.128906e-05  1.496315e-08
    434    437   2   0.50000     0.0600000    0.0600000   6.128906e-05  1.496315e-08
    435    426   2   0.50000     0.0600000   -0.1200000   2.494471e-04  1.671101e-07
    435    436   2   0.50000     0.0600000    0.0600000   6.128906e-05  1.496315e-08
    435    437   2   0.50000     0.0600000    0.0600000   6.128906e-05  1.496315e-08
    424    438   2   0.50000    -0.1200000    0.0600000   2.494471e-04  1.671101e-07
    424    439   2   0.50000    -0.1200000    0.0600000   2.494471e-04  1.671101e-07
    436    421   2   0.50000     0.0600000   -0.0600000   2.494471e-04  1.671101e-07
    436    438   2   0.50000     0.0600000    0.0600000   6.128906e-05  1.496315e-08
    436    439   2   0.50000     0.0600000    0.0600000   6.128906e-05  1.496315e-08
    437    421   2   0.50000     0.0600000   -0.0600000   2.494471e-04  1.671101e-07
    437    438   2   0.50000     0.0600000    0.0600000   6.128906e-05  1.496315e-08
    437    439   2   0.50000     0.0600000    0.0600000   6.128906e-05  1.496315e-08

[ angles ]
; ai  aj  ak
      2      1      8   1    112.7000    488.2728
      2      1      9   1    110.7000    313.8000
      2      1     23   1    110.7000    313.8000
      8      1      9   1    110.7000    313.8000
      8      1     23   1    110.7000    313.8000
      9      1     23   1    107.8000    276.1440
      1      2      3   1    112.7000    488.2728
      1      2      7   1    112.7000    488.2728
      1      2     10   1    110.7000    313.8000
      3      2      7   1    112.7000    488.2728
      3      2     10   1    110.7000    313.8000
      7      2     10   1    110.7000    313.8000
      2      3      4   1    112.7000    488.2728
      2      3     11   1    110.7000    313.8000
      2      3     12   1    110.7000    313.8000
      4      3     11   1    110.7000    313.8000
      4      3     12   1    110.7000    313.8000
     11      3     12   1    107.8000    276.1440
      3      4      5   1    112.7000    488.2728
      3      4     13   1    110.7000    313.8000
      3      4     14   1    110.7000    313.8000
      5      4     13   1    110.7000    313.8000
      5      4     14   1    110.7000    313.8000
     13      4     14   1    107.8000    276.1440
      4      5      6   1    112.7000    488.2728
      4      5     15   1    110.7000    313.8000
      4      5     16   1    110.7000    313.8000
      6      5     15   1    110.7000    313.8000
      6      5     16   1    110.7000    313.8000
     15      5     16   1    107.8000    276.1440
      5      6      7   1    112.7000    488.2728
      5      6     17   1    110.7000    313.8000
      5      6     18   1    110.7000    313.8000
      7      6     17   1    110.7000    313.8000
      7      6     18   1    110.7000    313.8000
     17      6     18   1    107.8000    276.1440
      2      7      6   1    112.7000    488.2728
      2      7     19   1    110.7000    313.8000
      2      7     20   1    110.7000    313.8000
      6      7     19   1    110.7000    313.8000
      6      7     20   1    110.7000    313.8000
     19      7     20   1    107.8000    276.1440
      1      8     21   1    110.7000    313.8000
      1      8     22   1    110.7000    313.8000
      1      8     24   1    112.7000    488.2728
     21      8     22   1    107.8000    276.1440
     21      8     24   1    110.7000    313.8000
     22      8     24   1    110.7000    313.8000
      8     24     25   1    112.7000    488.2728
      8     24     31   1    112.7000    488.2728
      8     24     32   1    110.7000    313.8000
     25     24     31   1    112.7000    488.2728
     25     24     32   1    110.7000    313.8000
     31     24     32   1    110.7000    313.8000
     24     25     26   1    112.7000    488.2728
     24     25     30   1    112.7000    488.2728
     24     25     33   1    110.7000    313.8000
     26     25     30   1    112.7000    488.2728
     26     25     33   1    110.7000    313.8000
     30     25     33   1    110.7000    313.8000
     25     26     27   1    112.7000    488.2728
     25     26     34   1    110.7000    313.8000
     25     26     35   1    110.7000    313.8000
     27     26     34   1    110.7000    313.8000
     27     26     35   1    110.7000    313.8000
     34     26     35   1    107.8000    276.1440
     26     27     28   1    112.7000    488.2728
     26     27     36   1    110.7000    313.8000
     26     27     37   1    110.7000    313.8000
     28     27     36   1    110.7000    313.8000
     28     27     37   1    110.7000    313.8000
     36     27     37   1    107.8000    276.1440
     27     28     29   1    112.7000    488.2728
     27     28     38   1    110.7000    313.8000
     27     28     39   1    110.7000    313.8000
     29     28     38   1    110.7000    313.8000
     29     28     39   1    110.7000    313.8000
     38     28     39   1    107.8000    276.1440
     28     29     30   1    112.7000    488.2728
     28     29     40   1    110.7000    313.8000
     28     29     41   1    110.7000    313.8000
     30     29     40   1    110.7000    313.8000
     30     29     41   1    110.7000    313.8000
     40     29     41   1    107.8000    276.1440
     25     30     29   1    112.7000    488.2728
     25     30     42   1    110.7000    313.8000
     25     30     43   1    110.7000    313.8000
     29     30     42   1    110.7000    313.8000
     29     30     43   1    110.7000    313.8000
     42     30     43   1    107.8000    276.1440
     24     31     44   1    110.7000    313.8000
     24     31     45   1    110.7000    313.8000
     24     31     46   1    112.7000    488.2728
     44     31     45   1    107.8000    276.1440
     44     31     46   1    110.7000    313.8000
     45     31     46   1    110.7000    313.8000
     31     46     47   1    112.7000    488.2728
     31     46     53   1    112.7000    488.2728
     31     46     54   1    110.7000    313.8000
     47     46     53   1    112.7000    488.2728
     47     46     54   1    110.7000    313.8000
     53     46     54   1    110.7000    313.8000
     46     47     48   1    112.7000    488.2728
     46     47     52   1    112.7000    488.2728
     46     47     55   1    110.7000    313.8000
     48     47     52   1    112.7000    488.2728
     48     47     55   1    110.7000    313.8000
     52     47     55   1    110.7000    313.8000
     47     48     49   1    112.7000    488.2728
     47     48     56   1    110.7000    313.8000
     47     48     57   1    110.7000    313.8000
     49     48     56   1    110.7000    313.8000
     49     48     57   1    110.7000    313.8000
     56     48     57   1    107.8000    276.1440
     48     49     50   1    112.7000    488.2728
     48     49     58   1    110.7000    313.8000
     48     49     59   1    110.7000    313.8000
     50     49     58   1    110.7000    313.8000
     50     49     59   1    110.7000    313.8000
     58     49     59   1    107.8000    276.1440
     49     50     51   1    112.7000    488.2728
     49     50     60   1    110.7000    313.8000
     49     50     61   1    110.7000    313.8000
     51     50     60   1    110.7000    313.8000
     51     50     61   1    110.7000    313.8000
     60     50     61   1    107.8000    276.1440
     50     51     52   1    112.7000    488.2728
     50     51     62   1    110.7000    313.8000
     50     51     63   1    110.7000    313.8000
     52     51     62   1    110.7000    313.8000
     52     51     63   1    110.7000    313.8000
     62     51     63   1    107.8000    276.1440
     47     52     51   1    112.7000    488.2728
     47     52     64   1    110.7000    313.8000
     47     52     65   1    110.7000    313.8000
     51     52     64   1    110.7000    313.8000
     51     52     65   1    110.7000    313.8000
     64     52     65   1    107.8000    276.1440
     46     53     66   1    110.7000    313.8000
     46     53     67   1    110.7000    313.8000
     46     53     68   1    112.7000    488.2728
     66     53     67   1    107.8000    276.1440
     66     53     68   1    110.7000    313.8000
     67     53     68   1    110.7000    313.8000
     53     68     69   1    112.7000    488.2728
     53     68     75   1    112.7000    488.2728
     53     68     76   1    110.7000    313.8000
     69     68     75   1    112.7000    488.2728
     69     68     76   1    110.7000    313.8000
     75     68     76   1    110.7000    313.8000
     68     69     70   1    112.7000    488.2728
     68     69     74   1    112.7000    488.2728
     68     69     77   1    110.7000    313.8000
     70     69     74   1    112.7000    488.2728
     70     69     77   1    110.7000    313.8000
     74     69     77   1    110.7000    313.8000
     69     70     71   1    112.7000    488.2728
     69     70     78   1    110.7000    313.8000
     69     70     79   1    110.7000    313.8000
     71     70     78   1    110.7000    313.8000
     71     70     79   1    110.7000    313.8000
     78     70     79   1    107.8000    276.1440
     70     71     72   1    112.7000    488.2728
     70     71     80   1    110.7000    313.8000
     70     71     81   1    110.7000    313.8000
     72     71     80   1    110.7000    313.8000
     72     71     81   1    110.7000    313.8000
     80     71     81   1    107.8000    276.1440
     71     72     73   1    112.7000    488.2728
     71     72     82   1    110.7000    313.8000
     71     72     83   1    110.7000    313.8000
     73     72     82   1    110.7000    313.8000
     73     72     83   1    110.7000    313.8000
     82     72     83   1    107.8000    276.1440
     72     73     74   1    112.7000    488.2728
     72     73     84   1    110.7000    313.8000
     72     73     85   1    110.7000    313.8000
     74     73     84   1    110.7000    313.8000
     74     73     85   1    110.7000    313.8000
     84     73     85   1    107.8000    276.1440
     69     74     73   1    112.7000    488.2728
     69     74     86   1    110.7000    313.8000
     69     74     87   1    110.7000    313.8000
     73     74     86   1    110.7000    313.8000
     73     74     87   1    110.7000    313.8000
     86     74     87   1    107.8000    276.1440
     68     75     88   1    110.7000    313.8000
     68     75     89   1    110.7000    313.8000
     68     75     90   1    112.7000    488.2728
     88     75     89   1    107.8000    276.1440
     88     75     90   1    110.7000    313.8000
     89     75     90   1    110.7000    313.8000
     75     90     91   1    112.7000    488.2728
     75     90     97   1    112.7000    488.2728
     75     90     98   1    110.7000    313.8000
     91     90     97   1    112.7000    488.2728
     91     90     98   1    110.7000    313.8000
     97     90     98   1    110.7000    313.8000
     90     91     92   1    112.7000    488.2728
     90     91     96   1    112.7000    488.2728
     90     91     99   1    110.7000    313.8000
     92     91     96   1    112.7000    488.2728
     92     91     99   1    110.7000    313.8000
     96     91     99   1    110.7000    313.8000
     91     92     93   1    112.7000    488.2728
     91     92    100   1    110.7000    313.8000
     91     92    101   1    110.7000    313.8000
     93     92    100   1    110.7000    313.8000
     93     92    101   1    110.7000    313.8000
    100     92    101   1    107.8000    276.1440
     92     93     94   1    112.7000    488.2728
     92     93    102   1    110.7000    313.8000
     92     93    103   1    110.7000    313.8000
     94     93    102   1    110.7000    313.8000
     94     93    103   1    110.7000    313.8000
    102     93    103   1    107.8000    276.1440
     93     94     95   1    112.7000    488.2728
     93     94    104   1    110.7000    313.8000
     93     94    105   1    110.7000    313.8000
     95     94    104   1    110.7000    313.8000
     95     94    105   1    110.7000    313.8000
    104     94    105   1    107.8000    276.1440
     94     95     96   1    112.7000    488.2728
     94     95    106   1    110.7000    313.8000
     94     95    107   1    110.7000    313.8000
     96     95    106   1    110.7000    313.8000
     96     95    107   1    110.7000    313.8000
    106     95    107   1    107.8000    276.1440
     91     96     95   1    112.7000    488.2728
     91     96    108   1    110.7000    313.8000
     91     96    109   1    110.7000    313.8000
     95     96    108   1    110.7000    313.8000
     95     96    109   1    110.7000    313.8000
    108     96    109   1    107.8000    276.1440
     90     97    110   1    110.7000    313.8000
     90     97    111   1    110.7000    313.8000
     90     97    112   1    112.7000    488.2728
    110     97    111   1    107.8000    276.1440
    110     97    112   1    110.7000    313.8000
    111     97    112   1    110.7000    313.8000
     97    112    113   1    112.7000    488.2728
     97    112    119   1    112.7000    488.2728
     97    112    120   1    110.7000    313.8000
    113    112    119   1    112.7000    488.2728
    113    112    120   1    110.7000    313.8000
    119    112    120   1    110.7000    313.8000
    112    113    114   1    112.7000    488.2728
    112    113    118   1    112.7000    488.2728
    112    113    121   1    110.7000    313.8000
    114    113    118   1    112.7000    488.2728
    114    113    121   1    110.7000    313.8000
    118    113    121   1    110.7000    313.8000
    113    114    115   1    112.7000    488.2728
    113    114    122   1    110.7000    313.8000
    113    114    123   1    110.7000    313.8000
    115    114    122   1    110.7000    313.8000
    115    114    123   1    110.7000    313.8000
    122    114    123   1    107.8000    276.1440
    114    115    116   1    112.7000    488.2728
    114    115    124   1    110.7000    313.8000
    114    115    125   1    110.7000    313.8000
    116    115    124   1    110.7000    313.8000
    116    115    125   1    110.7000    313.8000
    124    115    125   1    107.8000    276.1440
    115    116    117   1    112.7000    488.2728
    115    116    126   1    110.7000    313.8000
    115    116    127   1    110.7000    313.8000
    117    116    126   1    110.7000    313.8000
    117    116    127   1    110.7000    313.8000
    126    116    127   1    107.8000    276.1440
    116    117    118   1    112.7000    488.2728
    116    117    128   1    110.7000    313.8000
    116    117    129   1    110.7000    313.8000
    118    117    128   1    110.7000    313.8000
    118    117    129   1    110.7000    313.8000
    128    117    129   1    107.8000    276.1440
    113    118    117   1    112.7000    488.2728
    113    118    130   1    110.7000    313.8000
    113    118    131   1    110.7000    313.8000
    117    118    130   1    110.7000    313.8000
    117    118    131   1    110.7000    313.8000
    130    118    131   1    107.8000    276.1440
    112    119    132   1    110.7000    313.8000
    112    119    133   1    110.7000    313.8000
    112    119    134   1    112.7000    488.2728
    132    119    133   1    107.8000    276.1440
    132    119    134   1    110.7000    313.8000
    133    119    134   1    110.7000    313.8000
    119    134    135   1    112.7000    488.2728
    119    134    141   1    112.7000    488.2728
    119    134    142   1    110.7000    313.8000
    135    134    141   1    112.7000    488.2728
    135    134    142   1    110.7000    313.8000
    141    134    142   1    110.7000    313.8000
    134    135    136   1    112.7000    488.2728
    134    135    140   1    112.7000    488.2728
    134    135    143   1    110.7000    313.8000
    136    135    140   1    112.7000    488.2728
    136    135    143   1    110.7000    313.8000
    140    135    143   1    110.7000    313.8000
    135    136    137   1    112.7000    488.2728
    135    136    144   1    110.7000    313.8000
    135    136    145   1    110.7000    313.8000
    137    136    144   1    110.7000    313.8000
    137    136    145   1    110.7000    313.8000
    144    136    145   1    107.8000    276.1440
    136    137    138   1    112.7000    488.2728
    136    137    146   1    110.7000    313.8000
    136    137    147   1    110.7000    313.8000
    138    137    146   1    110.7000    313.8000
    138    137    147   1    110.7000    313.8000
    146    137    147   1    107.8000    276.1440
    137    138    139   1    112.7000    488.2728
    137    138    148   1    110.7000    313.8000
    137    138    149   1    110.7000    313.8000
    139    138    148   1    110.7000    313.8000
    139    138    149   1    110.7000    313.8000
    148    138    149   1    107.8000    276.1440
    138    139    140   1    112.7000    488.2728
    138    139    150   1    110.7000    313.8000
    138    139    151   1    110.7000    313.8000
    140    139    150   1    110.7000    313.8000
    140    139    151   1    110.7000    313.8000
    150    139    151   1    107.8000    276.1440
    135    140    139   1    112.7000    488.2728
    135    140    152   1    110.7000    313.8000
    135    140    153   1    110.7000    313.8000
    139    140    152   1    110.7000    313.8000
    139    140    153   1    110.7000    313.8000
    152    140    153   1    107.8000    276.1440
    134    141    154   1    110.7000    313.8000
    134    141    155   1    110.7000    313.8000
    134    141    156   1    112.7000    488.2728
    154    141    155   1    107.8000    276.1440
    154    141    156   1    110.7000    313.8000
    155    141    156   1    110.7000    313.8000
    141    156    157   1    112.7000    488.2728
    141    156    163   1    112.7000    488.2728
    141    156    164   1    110.7000    313.8000
    157    156    163   1    112.7000    488.2728
    157    156    164   1    110.7000    313.8000
    163    156    164   1    110.7000    313.8000
    156    157    158   1    112.7000    488.2728
    156    157    162   1    112.7000    488.2728
    156    157    165   1    110.7000    313.8000
    158    157    162   1    112.7000    488.2728
    158    157    165   1    110.7000    313.8000
    162    157    165   1    110.7000    313.8000
    157    158    159   1    112.7000    488.2728
    157    158    166   1    110.7000    313.8000
    157    158    167   1    110.7000    313.8000
    159    158    166   1    110.7000    313.8000
    159    158    167   1    110.7000    313.8000
    166    158    167   1    107.8000    276.1440
    158    159    160   1    112.7000    488.2728
    158    159    168   1    110.7000    313.8000
    158    159    169   1    110.7000    313.8000
    160    159    168   1    110.7000    313.8000
    160    159    169   1    110.7000    313.8000
    168    159    169   1    107.8000    276.1440
    159    160    161   1    112.7000    488.2728
    159    160    170   1    110.7000    313.8000
    159    160    171   1    110.7000    313.8000
    161    160    170   1    110.7000    313.8000
    161    160    171   1    110.7000    313.8000
    170    160    171   1    107.8000    276.1440
    160    161    162   1    112.7000    488.2728
    160    161    172   1    110.7000    313.8000
    160    161    173   1    110.7000    313.8000
    162    161    172   1    110.7000    313.8000
    162    161    173   1    110.7000    313.8000
    172    161    173   1    107.8000    276.1440
    157    162    161   1    112.7000    488.2728
    157    162    174   1    110.7000    313.8000
    157    162    175   1    110.7000    313.8000
    161    162    174   1    110.7000    313.8000
    161    162    175   1    110.7000    313.8000
    174    162    175   1    107.8000    276.1440
    156    163    176   1    110.7000    313.8000
    156    163    177   1    110.7000    313.8000
    156    163    178   1    112.7000    488.2728
    176    163    177   1    107.8000    276.1440
    176    163    178   1    110.7000    313.8000
    177    163    178   1    110.7000    313.8000
    163    178    179   1    112.7000    488.2728
    163    178    185   1    112.7000    488.2728
    163    178    186   1    110.7000    313.8000
    179    178    185   1    112.7000    488.2728
    179    178    186   1    110.7000    313.8000
    185    178    186   1    110.7000    313.8000
    178    179    180   1    112.7000    488.2728
    178    179    184   1    112.7000    488.2728
    178    179    187   1    110.7000    313.8000
    180    179    184   1    112.7000    488.2728
    180    179    187   1    110.7000    313.8000
    184    179    187   1    110.7000    313.8000
    179    180    181   1    112.7000    488.2728
    179    180    188   1    110.7000    313.8000
    179    180    189   1    110.7000    313.8000
    181    180    188   1    110.7000    313.8000
    181    180    189   1    110.7000    313.8000
    188    180    189   1    107.8000    276.1440
    180    181    182   1    112.7000    488.2728
    180    181    190   1    110.7000    313.8000
    180    181    191   1    110.7000    313.8000
    182    181    190   1    110.7000    313.8000
    182    181    191   1    110.7000    313.8000
    190    181    191   1    107.8000    276.1440
    181    182    183   1    112.7000    488.2728
    181    182    192   1    110.7000    313.8000
    181    182    193   1    110.7000    313.8000
    183    182    192   1    110.7000    313.8000
    183    182    193   1    110.7000    313.8000
    192    182    193   1    107.8000    276.1440
    182    183    184   1    112.7000    488.2728
    182    183    194   1    110.7000    313.8000
    182    183    195   1    110.7000    313.8000
    184    183    194   1    110.7000    313.8000
    184    183    195   1    110.7000    313.8000
    194    183    195   1    107.8000    276.1440
    179    184    183   1    112.7000    488.2728
    179    184    196   1    110.7000    313.8000
    179    184    197   1    110.7000    313.8000
    183    184    196   1    110.7000    313.8000
    183    184    197   1    110.7000    313.8000
    196    184    197   1    107.8000    276.1440
    178    185    198   1    110.7000    313.8000
    178    185    199   1    110.7000    313.8000
    178    185    200   1    112.7000    488.2728
    198    185    199   1    107.8000    276.1440
    198    185    200   1    110.7000    313.8000
    199    185    200   1    110.7000    313.8000
    185    200    201   1    112.7000    488.2728
    185    200    207   1    112.7000    488.2728
    185    200    208   1    110.7000    313.8000
    201    200    207   1    112.7000    488.2728
    201    200    208   1    110.7000    313.8000
    207    200    208   1    110.7000    313.8000
    200    201    202   1    112.7000    488.2728
    200    201    206   1    112.7000    488.2728
    200    201    209   1    110.7000    313.8000
    202    201    206   1    112.7000    488.2728
    202    201    209   1    110.7000    313.8000
    206    201    209   1    110.7000    313.8000
    201    202    203   1    112.7000    488.2728
    201    202    210   1    110.7000    313.8000
    201    202    211   1    110.7000    313.8000
    203    202    210   1    110.7000    313.8000
    203    202    211   1    110.7000    313.8000
    210    202    211   1    107.8000    276.1440
    202    203    204   1    112.7000    488.2728
    202    203    212   1    110.7000    313.8000
    202    203    213   1    110.7000    313.8000
    204    203    212   1    110.7000    313.8000
    204    203    213   1    110.7000    313.8000
    212    203    213   1    107.8000    276.1440
    203    204    205   1    112.7000    488.2728
    203    204    214   1    110.7000    313.8000
    203    204    215   1    110.7000    313.8000
    205    204    214   1    110.7000    313.8000
    205    204    215   1    110.7000    313.8000
    214    204    215   1    107.8000    276.1440
    204    205    206   1    112.7000    488.2728
    204    205    216   1    110.7000    313.8000
    204    205    217   1    110.7000    313.8000
    206    205    216   1    110.7000    313.8000
    206    205    217   1    110.7000    313.8000
    216    205    217   1    107.8000    276.1440
    201    206    205   1    112.7000    488.2728
    201    206    218   1    110.7000    313.8000
    201    206    219   1    110.7000    313.8000
    205    206    218   1    110.7000    313.8000
    205    206    219   1    110.7000    313.8000
    218    206    219   1    107.8000    276.1440
    200    207    220   1    110.7000    313.8000
    200    207    221   1    110.7000    313.8000
    200    207    222   1    112.7000    488.2728
    220    207    221   1    107.8000    276.1440
    220    207    222   1    110.7000    313.8000
    221    207    222   1    110.7000    313.8000
    207    222    223   1    112.7000    488.2728
    207    222    229   1    112.7000    488.2728
    207    222    230   1    110.7000    313.8000
    223    222    229   1    112.7000    488.2728
    223    222    230   1    110.7000    313.8000
    229    222    230   1    110.7000    313.8000
    222    223    224   1    112.7000    488.2728
    222    223    228   1    112.7000    488.2728
    222    223    231   1    110.7000    313.8000
    224    223    228   1    112.7000    488.2728
    224    223    231   1    110.7000    313.8000
    228    223    231   1    110.7000    313.8000
    223    224    225   1    112.7000    488.2728
    223    224    232   1    110.7000    313.8000
    223    224    233   1    110.7000    313.8000
    225    224    232   1    110.7000    313.8000
    225    224    233   1    110.7000    313.8000
    232    224    233   1    107.8000    276.1440
    224    225    226   1    112.7000    488.2728
    224    225    234   1    110.7000    313.8000
    224    225    235   1    110.7000    313.8000
    226    225    234   1    110.7000    313.8000
    226    225    235   1    110.7000    313.8000
    234    225    235   1    107.8000    276.1440
    225    226    227   1    112.7000    488.2728
    225    226    236   1    110.7000    313.8000
    225    226    237   1    110.7000    313.8000
    227    226    236   1    110.7000    313.8000
    227    226    237   1    110.7000    313.8000
    236    226    237   1    107.8000    276.1440
    226    227    228   1    112.7000    488.2728
    226    227    238   1    110.7000    313.8000
    226    227    239   1    110.7000    313.8000
    228    227    238   1    110.7000    313.8000
    228    227    239   1    110.7000    313.8000
    238    227    239   1    107.8000    276.1440
    223    228    227   1    112.7000    488.2728
    223    228    240   1    110.7000    313.8000
    223    228    241   1    110.7000    313.8000
    227    228    240   1    110.7000    313.8000
    227    228    241   1    110.7000    313.8000
    240    228    241   1    107.8000    276.1440
    222    229    242   1    110.7000    313.8000
    222    229    243   1    110.7000    313.8000
    222    229    244   1    112.7000    488.2728
    242    229    243   1    107.8000    276.1440
    242    229    244   1    110.7000    313.8000
    243    229    244   1    110.7000    313.8000
    229    244    245   1    112.7000    488.2728
    229    244    251   1    112.7000    488.2728
    229    244    252   1    110.7000    313.8000
    245    244    251   1    112.7000    488.2728
    245    244    252   1    110.7000    313.8000
    251    244    252   1    110.7000    313.8000
    244    245    246   1    112.7000    488.2728
    244    245    250   1    112.7000    488.2728
    244    245    253   1    110.7000    313.8000
    246    245    250   1    112.7000    488.2728
    246    245    253   1    110.7000    313.8000
    250    245    253   1    110.7000    313.8000
    245    246    247   1    112.7000    488.2728
    245    246    254   1    110.7000    313.8000
    245    246    255   1    110.7000    313.8000
    247    246    254   1    110.7000    313.8000
    247    246    255   1    110.7000    313.8000
    254    246    255   1    107.8000    276.1440
    246    247    248   1    112.7000    488.2728
    246    247    256   1    110.7000    313.8000
    246    247    257   1    110.7000    313.8000
    248    247    256   1    110.7000    313.8000
    248    247    257   1    110.7000    313.8000
    256    247    257   1    107.8000    276.1440
    247    248    249   1    112.7000    488.2728
    247    248    258   1    110.7000    313.8000
    247    248    259   1    110.7000    313.8000
    249    248    258   1    110.7000    313.8000
    249    248    259   1    110.7000    313.8000
    258    248    259   1    107.8000    276.1440
    248    249    250   1    112.7000    488.2728
    248    249    260   1    110.7000    313.8000
    248    249    261   1    110.7000    313.8000
    250    249    260   1    110.7000    313.8000
    250    249    261   1    110.7000    313.8000
    260    249    261   1    107.8000    276.1440
    245    250    249   1    112.7000    488.2728
    245    250    262   1    110.7000    313.8000
    245    250    263   1    110.7000    313.8000
    249    250    262   1    110.7000    313.8000
    249    250    263   1    110.7000    313.8000
    262    250    263   1    107.8000    276.1440
    244    251    264   1    110.7000    313.8000
    244    251    265   1    110.7000    313.8000
    244    251    266   1    112.7000    488.2728
    264    251    265   1    107.8000    276.1440
    264    251    266   1    110.7000    313.8000
    265    251    266   1    110.7000    313.8000
    251    266    267   1    112.7000    488.2728
    251    266    273   1    112.7000    488.2728
    251    266    274   1    110.7000    313.8000
    267    266    273   1    112.7000    488.2728
    267    266    274   1    110.7000    313.8000
    273    266    274   1    110.7000    313.8000
    266    267    268   1    112.7000    488.2728
    266    267    272   1    112.7000    488.2728
    266    267    275   1    110.7000    313.8000
    268    267    272   1    112.7000    488.2728
    268    267    275   1    110.7000    313.8000
    272    267    275   1    110.7000    313.8000
    267    268    269   1    112.7000    488.2728
    267    268    276   1    110.7000    313.8000
    267    268    277   1    110.7000    313.8000
    269    268    276   1    110.7000    313.8000
    269    268    277   1    110.7000    313.8000
    276    268    277   1    107.8000    276.1440
    268    269    270   1    112.7000    488.2728
    268    269    278   1    110.7000    313.8000
    268    269    279   1    110.7000    313.8000
    270    269    278   1    110.7000    313.8000
    270    269    279   1    110.7000    313.8000
    278    269    279   1    107.8000    276.1440
    269    270    271   1    112.7000    488.2728
    269    270    280   1    110.7000    313.8000
    269    270    281   1    110.7000    313.8000
    271    270    280   1    110.7000    313.8000
    271    270    281   1    110.7000    313.8000
    280    270    281   1    107.8000    276.1440
    270    271    272   1    112.7000    488.2728
    270    271    282   1    110.7000    313.8000
    270    271    283   1    110.7000    313.8000
    272    271    282   1    110.7000    313.8000
    272    271    283   1    110.7000    313.8000
    282    271    283   1    107.8000    276.1440
    267    272    271   1    112.7000    488.2728
    267    272    284   1    110.7000    313.8000
    267    272    285   1    110.7000    313.8000
    271    272    284   1    110.7000    313.8000
    271    272    285   1    110.7000    313.8000
    284    272    285   1    107.8000    276.1440
    266    273    286   1    110.7000    313.8000
    266    273    287   1    110.7000    313.8000
    266    273    288   1    112.7000    488.2728
    286    273    287   1    107.8000    276.1440
    286    273    288   1    110.7000    313.8000
    287    273    288   1    110.7000    313.8000
    273    288    289   1    112.7000    488.2728
    273    288    295   1    112.7000    488.2728
    273    288    296   1    110.7000    313.8000
    289    288    295   1    112.7000    488.2728
    289    288    296   1    110.7000    313.8000
    295    288    296   1    110.7000    313.8000
    288    289    290   1    112.7000    488.2728
    288    289    294   1    112.7000    488.2728
    288    289    297   1    110.7000    313.8000
    290    289    294   1    112.7000    488.2728
    290    289    297   1    110.7000    313.8000
    294    289    297   1    110.7000    313.8000
    289    290    291   1    112.7000    488.2728
    289    290    298   1    110.7000    313.8000
    289    290    299   1    110.7000    313.8000
    291    290    298   1    110.7000    313.8000
    291    290    299   1    110.7000    313.8000
    298    290    299   1    107.8000    276.1440
    290    291    292   1    112.7000    488.2728
    290    291    300   1    110.7000    313.8000
    290    291    301   1    110.7000    313.8000
    292    291    300   1    110.7000    313.8000
    292    291    301   1    110.7000    313.8000
    300    291    301   1    107.8000    276.1440
    291    292    293   1    112.7000    488.2728
    291    292    302   1    110.7000    313.8000
    291    292    303   1    110.7000    313.8000
    293    292    302   1    110.7000    313.8000
    293    292    303   1    110.7000    313.8000
    302    292    303   1    107.8000    276.1440
    292    293    294   1    112.7000    488.2728
    292    293    304   1    110.7000    313.8000
    292    293    305   1    110.7000    313.8000
    294    293    304   1    110.7000    313.8000
    294    293    305   1    110.7000    313.8000
    304    293    305   1    107.8000    276.1440
    289    294    293   1    112.7000    488.2728
    289    294    306   1    110.7000    313.8000
    289    294    307   1    110.7000    313.8000
    293    294    306   1    110.7000    313.8000
    293    294    307   1    110.7000    313.8000
    306    294    307   1    107.8000    276.1440
    288    295    308   1    110.7000    313.8000
    288    295    309   1    110.7000    313.8000
    288    295    310   1    112.7000    488.2728
    308    295    309   1    107.8000    276.1440
    308    295    310   1    110.7000    313.8000
    309    295    310   1    110.7000    313.8000
    295    310    311   1    112.7000    488.2728
    295    310    317   1    112.7000    488.2728
    295    310    318   1    110.7000    313.8000
    311    310    317   1    112.7000    488.2728
    311    310    318   1    110.7000    313.8000
    317    310    318   1    110.7000    313.8000
    310    311    312   1    112.7000    488.2728
    310    311    316   1    112.7000    488.2728
    310    311    319   1    110.7000    313.8000
    312    311    316   1    112.7000    488.2728
    312    311    319   1    110.7000    313.8000
    316    311    319   1    110.7000    313.8000
    311    312    313   1    112.7000    488.2728
    311    312    320   1    110.7000    313.8000
    311    312    321   1    110.7000    313.8000
    313    312    320   1    110.7000    313.8000
    313    312    321   1    110.7000    313.8000
    320    312    321   1    107.8000    276.1440
    312    313    314   1    112.7000    488.2728
    312    313    322   1    110.7000    313.8000
    312    313    323   1    110.7000    313.8000
    314    313    322   1    110.7000    313.8000
    314    313    323   1    110.7000    313.8000
    322    313    323   1    107.8000    276.1440
    313    314    315   1    112.7000    488.2728
    313    314    324   1    110.7000    313.8000
    313    314    325   1    110.7000    313.8000
    315    314    324   1    110.7000    313.8000
    315    314    325   1    110.7000    313.8000
    324    314    325   1    107.8000    276.1440
    314    315    316   1    112.7000    488.2728
    314    315    326   1    110.7000    313.8000
    314    315    327   1    110.7000    313.8000
    316    315    326   1    110.7000    313.8000
    316    315    327   1    110.7000    313.8000
    326    315    327   1    107.8000    276.1440
    311    316    315   1    112.7000    488.2728
    311    316    328   1    110.7000    313.8000
    311    316    329   1    110.7000    313.8000
    315    316    328   1    110.7000    313.8000
    315    316    329   1    110.7000    313.8000
    328    316    329   1    107.8000    276.1440
    310    317    330   1    110.7000    313.8000
    310    317    331   1    110.7000    313.8000
    310    317    332   1    112.7000    488.2728
    330    317    331   1    107.8000    276.1440
    330    317    332   1    110.7000    313.8000
    331    317    332   1    110.7000    313.8000
    317    332    333   1    112.7000    488.2728
    317    332    339   1    112.7000    488.2728
    317    332    340   1    110.7000    313.8000
    333    332    339   1    112.7000    488.2728
    333    332    340   1    110.7000    313.8000
    339    332    340   1    110.7000    313.8000
    332    333    334   1    112.7000    488.2728
    332    333    338   1    112.7000    488.2728
    332    333    341   1    110.7000    313.8000
    334    333    338   1    112.7000    488.2728
    334    333    341   1    110.7000    313.8000
    338    333    341   1    110.7000    313.8000
    333    334    335   1    112.7000    488.2728
    333    334    342   1    110.7000    313.8000
    333    334    343   1    110.7000    313.8000
    335    334    342   1    110.7000    313.8000
    335    334    343   1    110.7000    313.8000
    342    334    343   1    107.8000    276.1440
    334    335    336   1    112.7000    488.2728
    334    335    344   1    110.7000    313.8000
    334    335    345   1    110.7000    313.8000
    336    335    344   1    110.7000    313.8000
    336    335    345   1    110.7000    313.8000
    344    335    345   1    107.8000    276.1440
    335    336    337   1    112.7000    488.2728
    335    336    346   1    110.7000    313.8000
    335    336    347   1    110.7000    313.8000
    337    336    346   1    110.7000    313.8000
    337    336    347   1    110.7000    313.8000
    346    336    347   1    107.8000    276.1440
    336    337    338   1    112.7000    488.2728
    336    337    348   1    110.7000    313.8000
    336    337    349   1    110.7000    313.8000
    338    337    348   1    110.7000    313.8000
    338    337    349   1    110.7000    313.8000
    348    337    349   1    107.8000    276.1440
    333    338    337   1    112.7000    488.2728
    333    338    350   1    110.7000    313.8000
    333    338    351   1    110.7000    313.8000
    337    338    350   1    110.7000    313.8000
    337    338    351   1    110.7000    313.8000
    350    338    351   1    107.8000    276.1440
    332    339    352   1    110.7000    313.8000
    332    339    353   1    110.7000    313.8000
    332    339    354   1    112.7000    488.2728
    352    339    353   1    107.8000    276.1440
    352    339    354   1    110.7000    313.8000
    353    339    354   1    110.7000    313.8000
    339    354    355   1    112.7000    488.2728
    339    354    361   1    112.7000    488.2728
    339    354    362   1    110.7000    313.8000
    355    354    361   1    112.7000    488.2728
    355    354    362   1    110.7000    313.8000
    361    354    362   1    110.7000    313.8000
    354    355    356   1    112.7000    488.2728
    354    355    360   1    112.7000    488.2728
    354    355    363   1    110.7000    313.8000
    356    355    360   1    112.7000    488.2728
    356    355    363   1    110.7000    313.8000
    360    355    363   1    110.7000    313.8000
    355    356    357   1    112.7000    488.2728
    355    356    364   1    110.7000    313.8000
    355    356    365   1    110.7000    313.8000
    357    356    364   1    110.7000    313.8000
    357    356    365   1    110.7000    313.8000
    364    356    365   1    107.8000    276.1440
    356    357    358   1    112.7000    488.2728
    356    357    366   1    110.7000    313.8000
    356    357    367   1    110.7000    313.8000
    358    357    366   1    110.7000    313.8000
    358    357    367   1    110.7000    313.8000
    366    357    367   1    107.8000    276.1440
    357    358    359   1    112.7000    488.2728
    357    358    368   1    110.7000    313.8000
    357    358    369   1    110.7000    313.8000
    359    358    368   1    110.7000    313.8000
    359    358    369   1    110.7000    313.8000
    368    358    369   1    107.8000    276.1440
    358    359    360   1    112.7000    488.2728
    358    359    370   1    110.7000    313.8000
    358    359    371   1    110.7000    313.8000
    360    359    370   1    110.7000    313.8000
    360    359    371   1    110.7000    313.8000
    370    359    371   1    107.8000    276.1440
    355    360    359   1    112.7000    488.2728
    355    360    372   1    110.7000    313.8000
    355    360    373   1    110.7000    313.8000
    359    360    372   1    110.7000    313.8000
    359    360    373   1    110.7000    313.8000
    372    360    373   1    107.8000    276.1440
    354    361    374   1    110.7000    313.8000
    354    361    375   1    110.7000    313.8000
    354    361    376   1    112.7000    488.2728
    374    361    375   1    107.8000    276.1440
    374    361    376   1    110.7000    313.8000
    375    361    376   1    110.7000    313.8000
    361    376    377   1    112.7000    488.2728
    361    376    383   1    112.7000    488.2728
    361    376    384   1    110.7000    313.8000
    377    376    383   1    112.7000    488.2728
    377    376    384   1    110.7000    313.8000
    383    376    384   1    110.7000    313.8000
    376    377    378   1    112.7000    488.2728
    376    377    382   1    112.7000    488.2728
    376    377    385   1    110.7000    313.8000
    378    377    382   1    112.7000    488.2728
    378    377    385   1    110.7000    313.8000
    382    377    385   1    110.7000    313.8000
    377    378    379   1    112.7000    488.2728
    377    378    386   1    110.7000    313.8000
    377    378    387   1    110.7000    313.8000
    379    378    386   1    110.7000    313.8000
    379    378    387   1    110.7000    313.8000
    386    378    387   1    107.8000    276.1440
    378    379    380   1    112.7000    488.2728
    378    379    388   1    110.7000    313.8000
    378    379    389   1    110.7000    313.8000
    380    379    388   1    110.7000    313.8000
    380    379    389   1    110.7000    313.8000
    388    379    389   1    107.8000    276.1440
    379    380    381   1    112.7000    488.2728
    379    380    390   1    110.7000    313.8000
    379    380    391   1    110.7000    313.8000
    381    380    390   1    110.7000    313.8000
    381    380    391   1    110.7000    313.8000
    390    380    391   1    107.8000    276.1440
    380    381    382   1    112.7000    488.2728
    380    381    392   1    110.7000    313.8000
    380    381    393   1    110.7000    313.8000
    382    381    392   1    110.7000    313.8000
    382    381    393   1    110.7000    313.8000
    392    381    393   1    107.8000    276.1440
    377    382    381   1    112.7000    488.2728
    377    382    394   1    110.7000    313.8000
    377    382    395   1    110.7000    313.8000
    381    382    394   1    110.7000    313.8000
    381    382    395   1    110.7000    313.8000
    394    382    395   1    107.8000    276.1440
    376    383    396   1    110.7000    313.8000
    376    383    397   1    110.7000    313.8000
    376    383    398   1    112.7000    488.2728
    396    383    397   1    107.8000    276.1440
    396    383    398   1    110.7000    313.8000
    397    383    398   1    110.7000    313.8000
    383    398    399   1    112.7000    488.2728
    383    398    405   1    112.7000    488.2728
    383    398    406   1    110.7000    313.8000
    399    398    405   1    112.7000    488.2728
    399    398    406   1    110.7000    313.8000
    405    398    406   1    110.7000    313.8000
    398    399    400   1    112.7000    488.2728
    398    399    404   1    112.7000    488.2728
    398    399    407   1    110.7000    313.8000
    400    399    404   1    112.7000    488.2728
    400    399    407   1    110.7000    313.8000
    404    399    407   1    110.7000    313.8000
    399    400    401   1    112.7000    488.2728
    399    400    408   1    110.7000    313.8000
    399    400    409   1    110.7000    313.8000
    401    400    408   1    110.7000    313.8000
    401    400    409   1    110.7000    313.8000
    408    400    409   1    107.8000    276.1440
    400    401    402   1    112.7000    488.2728
    400    401    410   1    110.7000    313.8000
    400    401    411   1    110.7000    313.8000
    402    401    410   1    110.7000    313.8000
    402    401    411   1    110.7000    313.8000
    410    401    411   1    107.8000    276.1440
    401    402    403   1    112.7000    488.2728
    401    402    412   1    110.7000    313.8000
    401    402    413   1    110.7000    313.8000
    403    402    412   1    110.7000    313.8000
    403    402    413   1    110.7000    313.8000
    412    402    413   1    107.8000    276.1440
    402    403    404   1    112.7000    488.2728
    402    403    414   1    110.7000    313.8000
    402    403    415   1    110.7000    313.8000
    404    403    414   1    110.7000    313.8000
    404    403    415   1    110.7000    313.8000
    414    403    415   1    107.8000    276.1440
    399    404    403   1    112.7000    488.2728
    399    404    416   1    110.7000    313.8000
    399    404    417   1    110.7000    313.8000
    403    404    416   1    110.7000    313.8000
    403    404    417   1    110.7000    313.8000
    416    404    417   1    107.8000    276.1440
    398    405    418   1    110.7000    313.8000
    398    405    419   1    110.7000    313.8000
    398    405    420   1    112.7000    488.2728
    418    405    419   1    107.8000    276.1440
    418    405    420   1    110.7000    313.8000
    419    405    420   1    110.7000    313.8000
    405    420    421   1    112.7000    488.2728
    405    420    427   1    112.7000    488.2728
    405    420    428   1    110.7000    313.8000
    421    420    427   1    112.7000    488.2728
    421    420    428   1    110.7000    313.8000
    427    420    428   1    110.7000    313.8000
    420    421    422   1    112.7000    488.2728
    420    421    426   1    112.7000    488.2728
    420    421    429   1    110.7000    313.8000
    422    421    426   1    112.7000    488.2728
    422    421    429   1    110.7000    313.8000
    426    421    429   1    110.7000    313.8000
    421    422    423   1    112.7000    488.2728
    421    422    430   1    110.7000    313.8000
    421    422    431   1    110.7000    313.8000
    423    422    430   1    110.7000    313.8000
    423    422    431   1    110.7000    313.8000
    430    422    431   1    107.8000    276.1440
    422    423    424   1    112.7000    488.2728
    422    423    432   1    110.7000    313.8000
    422    423    433   1    110.7000    313.8000
    424    423    432   1    110.7000    313.8000
    424    423    433   1    110.7000    313.8000
    432    423    433   1    107.8000    276.1440
    423    424    425   1    112.7000    488.2728
    423    424    434   1    110.7000    313.8000
    423    424    435   1    110.7000    313.8000
    425    424    434   1    110.7000    313.8000
    425    424    435   1    110.7000    313.8000
    434    424    435   1    107.8000    276.1440
    424    425    426   1    112.7000    488.2728
    424    425    436   1    110.7000    313.8000
    424    425    437   1    110.7000    313.8000
    426    425    436   1    110.7000    313.8000
    426    425    437   1    110.7000    313.8000
    436    425    437   1    107.8000    276.1440
    421    426    425   1    112.7000    488.2728
    421    426    438   1    110.7000    313.8000
    421    426    439   1    110.7000    313.8000
    425    426    438   1    110.7000    313.8000
    425    426    439   1    110.7000    313.8000
    438    426    439   1    107.8000    276.1440
    420    427    440   1    110.7000    313.8000
    420    427    441   1    110.7000    313.8000
    420    427    442   1    110.7000    313.8000
    440    427    441   1    107.8000    276.1440
    440    427    442   1    107.8000    276.1440
    441    427    442   1    107.8000    276.1440

[ dihedrals ]
; Proper dihedrals
      8      1      2      3   5     4.74884    -0.63178     1.67360  0.0
      8      1      2      7   5     4.74884    -0.63178     1.67360  0.0
      8      1      2     10   5     0.00000     0.00000     1.25520  0.0
      9      1      2      3   5     0.00000     0.00000     1.25520  0.0
      9      1      2      7   5     0.00000     0.00000     1.25520  0.0
      9      1      2     10   5     0.00000     0.00000     1.25520  0.0
     23      1      2      3   5     0.00000     0.00000     1.25520  0.0
     23      1      2      7   5     0.00000     0.00000     1.25520  0.0
     23      1      2     10   5     0.00000     0.00000     1.25520  0.0
      2      1      8     21   5     0.00000     0.00000     1.25520  0.0
      2      1      8     22   5     0.00000     0.00000     1.25520  0.0
      2      1      8     24   5     4.74884    -0.63178     1.67360  0.0
      9      1      8     21   5     0.00000     0.00000     1.25520  0.0
      9      1      8     22   5     0.00000     0.00000     1.25520  0.0
      9      1      8     24   5     0.00000     0.00000     1.25520  0.0
     23      1      8     21   5     0.00000     0.00000     1.25520  0.0
     23      1      8     22   5     0.00000     0.00000     1.25520  0.0
     23      1      8     24   5     0.00000     0.00000     1.25520  0.0
      1      2      3      4   5     4.74884    -0.63178     1.67360  0.0
      1      2      3     11   5     0.00000     0.00000     1.25520  0.0
      1      2      3     12   5     0.00000     0.00000     1.25520  0.0
      7      2      3      4   5     4.74884    -0.63178     1.67360  0.0
      7      2      3     11   5     0.00000     0.00000     1.25520  0.0
      7      2      3     12   5     0.00000     0.00000     1.25520  0.0
     10      2      3      4   5     0.00000     0.00000     1.25520  0.0
     10      2      3     11   5     0.00000     0.00000     1.25520  0.0
     10      2      3     12   5     0.00000     0.00000     1.25520  0.0
      1      2      7      6   5     4.74884    -0.63178     1.67360  0.0
      1      2      7     19   5     0.00000     0.00000     1.25520  0.0
      1      2      7     20   5     0.00000     0.00000     1.25520  0.0
      3      2      7      6   5     4.74884    -0.63178     1.67360  0.0
      3      2      7     19   5     0.00000     0.00000     1.25520  0.0
      3      2      7     20   5     0.00000     0.00000     1.25520  0.0
     10      2      7      6   5     0.00000     0.00000     1.25520  0.0
     10      2      7     19   5     0.00000     0.00000     1.25520  0.0
     10      2      7     20   5     0.00000     0.00000     1.25520  0.0
      2      3      4      5   5     4.74884    -0.63178     1.67360  0.0
      2      3      4     13   5     0.00000     0.00000     1.25520  0.0
      2      3      4     14   5     0.00000     0.00000     1.25520  0.0
     11      3      4      5   5     0.00000     0.00000     1.25520  0.0
     11      3      4     13   5     0.00000     0.00000     1.25520  0.0
     11      3      4     14   5     0.00000     0.00000     1.25520  0.0
     12      3      4      5   5     0.00000     0.00000     1.25520  0.0
     12      3      4     13   5     0.00000     0.00000     1.25520  0.0
     12      3      4     14   5     0.00000     0.00000     1.25520  0.0
      3      4      5      6   5     4.74884    -0.63178     1.67360  0.0
      3      4      5     15   5     0.00000     0.00000     1.25520  0.0
      3      4      5     16   5     0.00000     0.00000     1.25520  0.0
     13      4      5      6   5     0.00000     0.00000     1.25520  0.0
     13      4      5     15   5     0.00000     0.00000     1.25520  0.0
     13      4      5     16   5     0.00000     0.00000     1.25520  0.0
     14      4      5      6   5     0.00000     0.00000     1.25520  0.0
     14      4      5     15   5     0.00000     0.00000     1.25520  0.0
     14      4      5     16   5     0.00000     0.00000     1.25520  0.0
      4      5      6      7   5     4.74884    -0.63178     1.67360  0.0
      4      5      6     17   5     0.00000     0.00000     1.25520  0.0
      4      5      6     18   5     0.00000     0.00000     1.25520  0.0
     15      5      6      7   5     0.00000     0.00000     1.25520  0.0
     15      5      6     17   5     0.00000     0.00000     1.25520  0.0
     15      5      6     18   5     0.00000     0.00000     1.25520  0.0
     16      5      6      7   5     0.00000     0.00000     1.25520  0.0
     16      5      6     17   5     0.00000     0.00000     1.25520  0.0
     16      5      6     18   5     0.00000     0.00000     1.25520  0.0
      5      6      7      2   5     4.74884    -0.63178     1.67360  0.0
      5      6      7     19   5     0.00000     0.00000     1.25520  0.0
      5      6      7     20   5     0.00000     0.00000     1.25520  0.0
     17      6      7      2   5     0.00000     0.00000     1.25520  0.0
     17      6      7     19   5     0.00000     0.00000     1.25520  0.0
     17      6      7     20   5     0.00000     0.00000     1.25520  0.0
     18      6      7      2   5     0.00000     0.00000     1.25520  0.0
     18      6      7     19   5     0.00000     0.00000     1.25520  0.0
     18      6      7     20   5     0.00000     0.00000     1.25520  0.0
      1      8     24     25   5     4.74884    -0.63178     1.67360  0.0
      1      8     24     31   5     4.74884    -0.63178     1.67360  0.0
      1      8     24     32   5     0.00000     0.00000     1.25520  0.0
     21      8     24     25   5     0.00000     0.00000     1.25520  0.0
     21      8     24     31   5     0.00000     0.00000     1.25520  0.0
     21      8     24     32   5     0.00000     0.00000     1.25520  0.0
     22      8     24     25   5     0.00000     0.00000     1.25520  0.0
     22      8     24     31   5     0.00000     0.00000     1.25520  0.0
     22      8     24     32   5     0.00000     0.00000     1.25520  0.0
      8     24     25     26   5     4.74884    -0.63178     1.67360  0.0
      8     24     25     30   5     4.74884    -0.63178     1.67360  0.0
      8     24     25     33   5     0.00000     0.00000     1.25520  0.0
     31     24     25     26   5     4.74884    -0.63178     1.67360  0.0
     31     24     25     30   5     4.74884    -0.63178     1.67360  0.0
     31     24     25     33   5     0.00000     0.00000     1.25520  0.0
     32     24     25     26   5     0.00000     0.00000     1.25520  0.0
     32     24     25     30   5     0.00000     0.00000     1.25520  0.0
     32     24     25     33   5     0.00000     0.00000     1.25520  0.0
      8     24     31     44   5     0.00000     0.00000     1.25520  0.0
      8     24     31     45   5     0.00000     0.00000     1.25520  0.0
      8     24     31     46   5     4.74884    -0.63178     1.67360  0.0
     25     24     31     44   5     0.00000     0.00000     1.25520  0.0
     25     24     31     45   5     0.00000     0.00000     1.25520  0.0
     25     24     31     46   5     4.74884    -0.63178     1.67360  0.0
     32     24     31     44   5     0.00000     0.00000     1.25520  0.0
     32     24     31     45   5     0.00000     0.00000     1.25520  0.0
     32     24     31     46   5     0.00000     0.00000     1.25520  0.0
     24     25     26     27   5     4.74884    -0.63178     1.67360  0.0
     24     25     26     34   5     0.00000     0.00000     1.25520  0.0
     24     25     26     35   5     0.00000     0.00000     1.25520  0.0
     30     25     26     27   5     4.74884    -0.63178     1.67360  0.0
     30     25     26     34   5     0.00000     0.00000     1.25520  0.0
     30     25     26     35   5     0.00000     0.00000     1.25520  0.0
     33     25     26     27   5     0.00000     0.00000     1.25520  0.0
     33     25     26     34   5     0.00000     0.00000     1.25520  0.0
     33     25     26     35   5     0.00000     0.00000     1.25520  0.0
     24     25     30     29   5     4.74884    -0.63178     1.67360  0.0
     24     25     30     42   5     0.00000     0.00000     1.25520  0.0
     24     25     30     43   5     0.00000     0.00000     1.25520  0.0
     26     25     30     29   5     4.74884    -0.63178     1.67360  0.0
     26     25     30     42   5     0.00000     0.00000     1.25520  0.0
     26     25     30     43   5     0.00000     0.00000     1.25520  0.0
     33     25     30     29   5     0.00000     0.00000     1.25520  0.0
     33     25     30     42   5     0.00000     0.00000     1.25520  0.0
     33     25     30     43   5     0.00000     0.00000     1.25520  0.0
     25     26     27     28   5     4.74884    -0.63178     1.67360  0.0
     25     26     27     36   5     0.00000     0.00000     1.25520  0.0
     25     26     27     37   5     0.00000     0.00000     1.25520  0.0
     34     26     27     28   5     0.00000     0.00000     1.25520  0.0
     34     26     27     36   5     0.00000     0.00000     1.25520  0.0
     34     26     27     37   5     0.00000     0.00000     1.25520  0.0
     35     26     27     28   5     0.00000     0.00000     1.25520  0.0
     35     26     27     36   5     0.00000     0.00000     1.25520  0.0
     35     26     27     37   5     0.00000     0.00000     1.25520  0.0
     26     27     28     29   5     4.74884    -0.63178     1.67360  0.0
     26     27     28     38   5     0.00000     0.00000     1.25520  0.0
     26     27     28     39   5     0.00000     0.00000     1.25520  0.0
     36     27     28     29   5     0.00000     0.00000     1.25520  0.0
     36     27     28     38   5     0.00000     0.00000     1.25520  0.0
     36     27     28     39   5     0.00000     0.00000     1.25520  0.0
     37     27     28     29   5     0.00000     0.00000     1.25520  0.0
     37     27     28     38   5     0.00000     0.00000     1.25520  0.0
     37     27     28     39   5     0.00000     0.00000     1.25520  0.0
     27     28     29     30   5     4.74884    -0.63178     1.67360  0.0
     27     28     29     40   5     0.00000     0.00000     1.25520  0.0
     27     28     29     41   5     0.00000     0.00000     1.25520  0.0
     38     28     29     30   5     0.00000     0.00000     1.25520  0.0
     38     28     29     40   5     0.00000     0.00000     1.25520  0.0
     38     28     29     41   5     0.00000     0.00000     1.25520  0.0
     39     28     29     30   5     0.00000     0.00000     1.25520  0.0
     39     28     29     40   5     0.00000     0.00000     1.25520  0.0
     39     28     29     41   5     0.00000     0.00000     1.25520  0.0
     28     29     30     25   5     4.74884    -0.63178     1.67360  0.0
     28     29     30     42   5     0.00000     0.00000     1.25520  0.0
     28     29     30     43   5     0.00000     0.00000     1.25520  0.0
     40     29     30     25   5     0.00000     0.00000     1.25520  0.0
     40     29     30     42   5     0.00000     0.00000     1.25520  0.0
     40     29     30     43   5     0.00000     0.00000     1.25520  0.0
     41     29     30     25   5     0.00000     0.00000     1.25520  0.0
     41     29     30     42   5     0.00000     0.00000     1.25520  0.0
     41     29     30     43   5     0.00000     0.00000     1.25520  0.0
     24     31     46     47   5     4.74884    -0.63178     1.67360  0.0
     24     31     46     53   5     4.74884    -0.63178     1.67360  0.0
     24     31     46     54   5     0.00000     0.00000     1.25520  0.0
     44     31     46     47   5     0.00000     0.00000     1.25520  0.0
     44     31     46     53   5     0.00000     0.00000     1.25520  0.0
     44     31     46     54   5     0.00000     0.00000     1.25520  0.0
     45     31     46     47   5     0.00000     0.00000     1.25520  0.0
     45     31     46     53   5     0.00000     0.00000     1.25520  0.0
     45     31     46     54   5     0.00000     0.00000     1.25520  0.0
     31     46     47     48   5     4.74884    -0.63178     1.67360  0.0
     31     46     47     52   5     4.74884    -0.63178     1.67360  0.0
     31     46     47     55   5     0.00000     0.00000     1.25520  0.0
     53     46     47     48   5     4.74884    -0.63178     1.67360  0.0
     53     46     47     52   5     4.74884    -0.63178     1.67360  0.0
     53     46     47     55   5     0.00000     0.00000     1.25520  0.0
     54     46     47     48   5     0.00000     0.00000     1.25520  0.0
     54     46     47     52   5     0.00000     0.00000     1.25520  0.0
     54     46     47     55   5     0.00000     0.00000     1.25520  0.0
     31     46     53     66   5     0.00000     0.00000     1.25520  0.0
     31     46     53     67   5     0.00000     0.00000     1.25520  0.0
     31     46     53     68   5     4.74884    -0.63178     1.67360  0.0
     47     46     53     66   5     0.00000     0.00000     1.25520  0.0
     47     46     53     67   5     0.00000     0.00000     1.25520  0.0
     47     46     53     68   5     4.74884    -0.63178     1.67360  0.0
     54     46     53     66   5     0.00000     0.00000     1.25520  0.0
     54     46     53     67   5     0.00000     0.00000     1.25520  0.0
     54     46     53     68   5     0.00000     0.00000     1.25520  0.0
     46     47     48     49   5     4.74884    -0.63178     1.67360  0.0
     46     47     48     56   5     0.00000     0.00000     1.25520  0.0
     46     47     48     57   5     0.00000     0.00000     1.25520  0.0
     52     47     48     49   5     4.74884    -0.63178     1.67360  0.0
     52     47     48     56   5     0.00000     0.00000     1.25520  0.0
     52     47     48     57   5     0.00000     0.00000     1.25520  0.0
     55     47     48     49   5     0.00000     0.00000     1.25520  0.0
     55     47     48     56   5     0.00000     0.00000     1.25520  0.0
     55     47     48     57   5     0.00000     0.00000     1.25520  0.0
     46     47     52     51   5     4.74884    -0.63178     1.67360  0.0
     46     47     52     64   5     0.00000     0.00000     1.25520  0.0
     46     47     52     65   5     0.00000     0.00000     1.25520  0.0
     48     47     52     51   5     4.74884    -0.63178     1.67360  0.0
     48     47     52     64   5     0.00000     0.00000     1.25520  0.0
     48     47     52     65   5     0.00000     0.00000     1.25520  0.0
     55     47     52     51   5     0.00000     0.00000     1.25520  0.0
     55     47     52     64   5     0.00000     0.00000     1.25520  0.0
     55     47     52     65   5     0.00000     0.00000     1.25520  0.0
     47     48     49     50   5     4.74884    -0.63178     1.67360  0.0
     47     48     49     58   5     0.00000     0.00000     1.25520  0.0
     47     48     49     59   5     0.00000     0.00000     1.25520  0.0
     56     48     49     50   5     0.00000     0.00000     1.25520  0.0
     56     48     49     58   5     0.00000     0.00000     1.25520  0.0
     56     48     49     59   5     0.00000     0.00000     1.25520  0.0
     57     48     49     50   5     0.00000     0.00000     1.25520  0.0
     57     48     49     58   5     0.00000     0.00000     1.25520  0.0
     57     48     49     59   5     0.00000     0.00000     1.25520  0.0
     48     49     50     51   5     4.74884    -0.63178     1.67360  0.0
     48     49     50     60   5     0.00000     0.00000     1.25520  0.0
     48     49     50     61   5     0.00000     0.00000     1.25520  0.0
     58     49     50     51   5     0.00000     0.00000     1.25520  0.0
     58     49     50     60   5     0.00000     0.00000     1.25520  0.0
     58     49     50     61   5     0.00000     0.00000     1.25520  0.0
     59     49     50     51   5     0.00000     0.00000     1.25520  0.0
     59     49     50     60   5     0.00000     0.00000     1.25520  0.0
     59     49     50     61   5     0.00000     0.00000     1.25520  0.0
     49     50     51     52   5     4.74884    -0.63178     1.67360  0.0
     49     50     51     62   5     0.00000     0.00000     1.25520  0.0
     49     50     51     63   5     0.00000     0.00000     1.25520  0.0
     60     50     51     52   5     0.00000     0.00000     1.25520  0.0
     60     50     51     62   5     0.00000     0.00000     1.25520  0.0
     60     50     51     63   5     0.00000     0.00000     1.25520  0.0
     61     50     51     52   5     0.00000     0.00000     1.25520  0.0
     61     50     51     62   5     0.00000     0.00000     1.25520  0.0
     61     50     51     63   5     0.00000     0.00000     1.25520  0.0
     50     51     52     47   5     4.74884    -0.63178     1.67360  0.0
     50     51     52     64   5     0.00000     0.00000     1.25520  0.0
     50     51     52     65   5     0.00000     0.00000     1.25520  0.0
     62     51     52     47   5     0.00000     0.00000     1.25520  0.0
     62     51     52     64   5     0.00000     0.00000     1.25520  0.0
     62     51     52     65   5     0.00000     0.00000     1.25520  0.0
     63     51     52     47   5     0.00000     0.00000     1.25520  0.0
     63     51     52     64   5     0.00000     0.00000     1.25520  0.0
     63     51     52     65   5     0.00000     0.00000     1.25520  0.0
     46     53     68     69   5     4.74884    -0.63178     1.67360  0.0
     46     53     68     75   5     4.74884    -0.63178     1.67360  0.0
     46     53     68     76   5     0.00000     0.00000     1.25520  0.0
     66     53     68     69   5     0.00000     0.00000     1.25520  0.0
     66     53     68     75   5     0.00000     0.00000     1.25520  0.0
     66     53     68     76   5     0.00000     0.00000     1.25520  0.0
     67     53     68     69   5     0.00000     0.00000     1.25520  0.0
     67     53     68     75   5     0.00000     0.00000     1.25520  0.0
     67     53     68     76   5     0.00000     0.00000     1.25520  0.0
     53     68     69     70   5     4.74884    -0.63178     1.67360  0.0
     53     68     69     74   5     4.74884    -0.63178     1.67360  0.0
     53     68     69     77   5     0.00000     0.00000     1.25520  0.0
     75     68     69     70   5     4.74884    -0.63178     1.67360  0.0
     75     68     69     74   5     4.74884    -0.63178     1.67360  0.0
     75     68     69     77   5     0.00000     0.00000     1.25520  0.0
     76     68     69     70   5     0.00000     0.00000     1.25520  0.0
     76     68     69     74   5     0.00000     0.00000     1.25520  0.0
     76     68     69     77   5     0.00000     0.00000     1.25520  0.0
     53     68     75     88   5     0.00000     0.00000     1.25520  0.0
     53     68     75     89   5     0.00000     0.00000     1.25520  0.0
     53     68     75     90   5     4.74884    -0.63178     1.67360  0.0
     69     68     75     88   5     0.00000     0.00000     1.25520  0.0
     69     68     75     89   5     0.00000     0.00000     1.25520  0.0
     69     68     75     90   5     4.74884    -0.63178     1.67360  0.0
     76     68     75     88   5     0.00000     0.00000     1.25520  0.0
     76     68     75     89   5     0.00000     0.00000     1.25520  0.0
     76     68     75     90   5     0.00000     0.00000     1.25520  0.0
     68     69     70     71   5     4.74884    -0.63178     1.67360  0.0
     68     69     70     78   5     0.00000     0.00000     1.25520  0.0
     68     69     70     79   5     0.00000     0.00000     1.25520  0.0
     74     69     70     71   5     4.74884    -0.63178     1.67360  0.0
     74     69     70     78   5     0.00000     0.00000     1.25520  0.0
     74     69     70     79   5     0.00000     0.00000     1.25520  0.0
     77     69     70     71   5     0.00000     0.00000     1.25520  0.0
     77     69     70     78   5     0.00000     0.00000     1.25520  0.0
     77     69     70     79   5     0.00000     0.00000     1.25520  0.0
     68     69     74     73   5     4.74884    -0.63178     1.67360  0.0
     68     69     74     86   5     0.00000     0.00000     1.25520  0.0
     68     69     74     87   5     0.00000     0.00000     1.25520  0.0
     70     69     74     73   5     4.74884    -0.63178     1.67360  0.0
     70     69     74     86   5     0.00000     0.00000     1.25520  0.0
     70     69     74     87   5     0.00000     0.00000     1.25520  0.0
     77     69     74     73   5     0.00000     0.00000     1.25520  0.0
     77     69     74     86   5     0.00000     0.00000     1.25520  0.0
     77     69     74     87   5     0.00000     0.00000     1.25520  0.0
     69     70     71     72   5     4.74884    -0.63178     1.67360  0.0
     69     70     71     80   5     0.00000     0.00000     1.25520  0.0
     69     70     71     81   5     0.00000     0.00000     1.25520  0.0
     78     70     71     72   5     0.00000     0.00000     1.25520  0.0
     78     70     71     80   5     0.00000     0.00000     1.25520  0.0
     78     70     71     81   5     0.00000     0.00000     1.25520  0.0
     79     70     71     72   5     0.00000     0.00000     1.25520  0.0
     79     70     71     80   5     0.00000     0.00000     1.25520  0.0
     79     70     71     81   5     0.00000     0.00000     1.25520  0.0
     70     71     72     73   5     4.74884    -0.63178     1.67360  0.0
     70     71     72     82   5     0.00000     0.00000     1.25520  0.0
     70     71     72     83   5     0.00000     0.00000     1.25520  0.0
     80     71     72     73   5     0.00000     0.00000     1.25520  0.0
     80     71     72     82   5     0.00000     0.00000     1.25520  0.0
     80     71     72     83   5     0.00000     0.00000     1.25520  0.0
     81     71     72     73   5     0.00000     0.00000     1.25520  0.0
     81     71     72     82   5     0.00000     0.00000     1.25520  0.0
     81     71     72     83   5     0.00000     0.00000     1.25520  0.0
     71     72     73     74   5     4.74884    -0.63178     1.67360  0.0
     71     72     73     84   5     0.00000     0.00000     1.25520  0.0
     71     72     73     85   5     0.00000     0.00000     1.25520  0.0
     82     72     73     74   5     0.00000     0.00000     1.25520  0.0
     82     72     73     84   5     0.00000     0.00000     1.25520  0.0
     82     72     73     85   5     0.00000     0.00000     1.25520  0.0
     83     72     73     74   5     0.00000     0.00000     1.25520  0.0
     83     72     73     84   5     0.00000     0.00000     1.25520  0.0
     83     72     73     85   5     0.00000     0.00000     1.25520  0.0
     72     73     74     69   5     4.74884    -0.63178     1.67360  0.0
     72     73     74     86   5     0.00000     0.00000     1.25520  0.0
     72     73     74     87   5     0.00000     0.00000     1.25520  0.0
     84     73     74     69   5     0.00000     0.00000     1.25520  0.0
     84     73     74     86   5     0.00000     0.00000     1.25520  0.0
     84     73     74     87   5     0.00000     0.00000     1.25520  0.0
     85     73     74     69   5     0.00000     0.00000     1.25520  0.0
     85     73     74     86   5     0.00000     0.00000     1.25520  0.0
     85     73     74     87   5     0.00000     0.00000     1.25520  0.0
     68     75     90     91   5     4.74884    -0.63178     1.67360  0.0
     68     75     90     97   5     4.74884    -0.63178     1.67360  0.0
     68     75     90     98   5     0.00000     0.00000     1.25520  0.0
     88     75     90     91   5     0.00000     0.00000     1.25520  0.0
     88     75     90     97   5     0.00000     0.00000     1.25520  0.0
     88     75     90     98   5     0.00000     0.00000     1.25520  0.0
     89     75     90     91   5     0.00000     0.00000     1.25520  0.0
     89     75     90     97   5     0.00000     0.00000     1.25520  0.0
     89     75     90     98   5     0.00000     0.00000     1.25520  0.0
     75     90     91     92   5     4.74884    -0.63178     1.67360  0.0
     75     90     91     96   5     4.74884    -0.63178     1.67360  0.0
     75     90     91     99   5     0.00000     0.00000     1.25520  0.0
     97     90     91     92   5     4.74884    -0.63178     1.67360  0.0
     97     90     91     96   5     4.74884    -0.63178     1.67360  0.0
     97     90     91     99   5     0.00000     0.00000     1.25520  0.0
     98     90     91     92   5     0.00000     0.00000     1.25520  0.0
     98     90     91     96   5     0.00000     0.00000     1.25520  0.0
     98     90     91     99   5     0.00000     0.00000     1.25520  0.0
     75     90     97    110   5     0.00000     0.00000     1.25520  0.0
     75     90     97    111   5     0.00000     0.00000     1.25520  0.0
     75     90     97    112   5     4.74884    -0.63178     1.67360  0.0
     91     90     97    110   5     0.00000     0.00000     1.25520  0.0
     91     90     97    111   5     0.00000     0.00000     1.25520  0.0
     91     90     97    112   5     4.74884    -0.63178     1.67360  0.0
     98     90     97    110   5     0.00000     0.00000     1.25520  0.0
     98     90     97    111   5     0.00000     0.00000     1.25520  0.0
     98     90     97    112   5     0.00000     0.00000     1.25520  0.0
     90     91     92     93   5     4.74884    -0.63178     1.67360  0.0
     90     91     92    100   5     0.00000     0.00000     1.25520  0.0
     90     91     92    101   5     0.00000     0.00000     1.25520  0.0
     96     91     92     93   5     4.74884    -0.63178     1.67360  0.0
     96     91     92    100   5     0.00000     0.00000     1.25520  0.0
     96     91     92    101   5     0.00000     0.00000     1.25520  0.0
     99     91     92     93   5     0.00000     0.00000     1.25520  0.0
     99     91     92    100   5     0.00000     0.00000     1.25520  0.0
     99     91     92    101   5     0.00000     0.00000     1.25520  0.0
     90     91     96     95   5     4.74884    -0.63178     1.67360  0.0
     90     91     96    108   5     0.00000     0.00000     1.25520  0.0
     90     91     96    109   5     0.00000     0.00000     1.25520  0.0
     92     91     96     95   5     4.74884    -0.63178     1.67360  0.0
     92     91     96    108   5     0.00000     0.00000     1.25520  0.0
     92     91     96    109   5     0.00000     0.00000     1.25520  0.0
     99     91     96     95   5     0.00000     0.00000     1.25520  0.0
     99     91     96    108   5     0.00000     0.00000     1.25520  0.0
     99     91     96    109   5     0.00000     0.00000     1.25520  0.0
     91     92     93     94   5     4.74884    -0.63178     1.67360  0.0
     91     92     93    102   5     0.00000     0.00000     1.25520  0.0
     91     92     93    103   5     0.00000     0.00000     1.25520  0.0
    100     92     93     94   5     0.00000     0.00000     1.25520  0.0
    100     92     93    102   5     0.00000     0.00000     1.25520  0.0
    100     92     93    103   5     0.00000     0.00000     1.25520  0.0
    101     92     93     94   5     0.00000     0.00000     1.25520  0.0
    101     92     93    102   5     0.00000     0.00000     1.25520  0.0
    101     92     93    103   5     0.00000     0.00000     1.25520  0.0
     92     93     94     95   5     4.74884    -0.63178     1.67360  0.0
     92     93     94    104   5     0.00000     0.00000     1.25520  0.0
     92     93     94    105   5     0.00000     0.00000     1.25520  0.0
    102     93     94     95   5     0.00000     0.00000     1.25520  0.0
    102     93     94    104   5     0.00000     0.00000     1.25520  0.0
    102     93     94    105   5     0.00000     0.00000     1.25520  0.0
    103     93     94     95   5     0.00000     0.00000     1.25520  0.0
    103     93     94    104   5     0.00000     0.00000     1.25520  0.0
    103     93     94    105   5     0.00000     0.00000     1.25520  0.0
     93     94     95     96   5     4.74884    -0.63178     1.67360  0.0
     93     94     95    106   5     0.00000     0.00000     1.25520  0.0
     93     94     95    107   5     0.00000     0.00000     1.25520  0.0
    104     94     95     96   5     0.00000     0.00000     1.25520  0.0
    104     94     95    106   5     0.00000     0.00000     1.25520  0.0
    104     94     95    107   5     0.00000     0.00000     1.25520  0.0
    105     94     95     96   5     0.00000     0.00000     1.25520  0.0
    105     94     95    106   5     0.00000     0.00000     1.25520  0.0
    105     94     95    107   5     0.00000     0.00000     1.25520  0.0
     94     95     96     91   5     4.74884    -0.63178     1.67360  0.0
     94     95     96    108   5     0.00000     0.00000     1.25520  0.0
     94     95     96    109   5     0.00000     0.00000     1.25520  0.0
    106     95     96     91   5     0.00000     0.00000     1.25520  0.0
    106     95     96    108   5     0.00000     0.00000     1.25520  0.0
    106     95     96    109   5     0.00000     0.00000     1.25520  0.0
    107     95     96     91   5     0.00000     0.00000     1.25520  0.0
    107     95     96    108   5     0.00000     0.00000     1.25520  0.0
    107     95     96    109   5     0.00000     0.00000     1.25520  0.0
     90     97    112    113   5     4.74884    -0.63178     1.67360  0.0
     90     97    112    119   5     4.74884    -0.63178     1.67360  0.0
     90     97    112    120   5     0.00000     0.00000     1.25520  0.0
    110     97    112    113   5     0.00000     0.00000     1.25520  0.0
    110     97    112    119   5     0.00000     0.00000     1.25520  0.0
    110     97    112    120   5     0.00000     0.00000     1.25520  0.0
    111     97    112    113   5     0.00000     0.00000     1.25520  0.0
    111     97    112    119   5     0.00000     0.00000     1.25520  0.0
    111     97    112    120   5     0.00000     0.00000     1.25520  0.0
     97    112    113    114   5     4.74884    -0.63178     1.67360  0.0
     97    112    113    118   5     4.74884    -0.63178     1.67360  0.0
     97    112    113    121   5     0.00000     0.00000     1.25520  0.0
    119    112    113    114   5     4.74884    -0.63178     1.67360  0.0
    119    112    113    118   5     4.74884    -0.63178     1.67360  0.0
    119    112    113    121   5     0.00000     0.00000     1.25520  0.0
    120    112    113    114   5     0.00000     0.00000     1.25520  0.0
    120    112    113    118   5     0.00000     0.00000     1.25520  0.0
    120    112    113    121   5     0.00000     0.00000     1.25520  0.0
     97    112    119    132   5     0.00000     0.00000     1.25520  0.0
     97    112    119    133   5     0.00000     0.00000     1.25520  0.0
     97    112    119    134   5     4.74884    -0.63178     1.67360  0.0
    113    112    119    132   5     0.00000     0.00000     1.25520  0.0
    113    112    119    133   5     0.00000     0.00000     1.25520  0.0
    113    112    119    134   5     4.74884    -0.63178     1.67360  0.0
    120    112    119    132   5     0.00000     0.00000     1.25520  0.0
    120    112    119    133   5     0.00000     0.00000     1.25520  0.0
    120    112    119    134   5     0.00000     0.00000     1.25520  0.0
    112    113    114    115   5     4.74884    -0.63178     1.67360  0.0
    112    113    114    122   5     0.00000     0.00000     1.25520  0.0
    112    113    114    123   5     0.00000     0.00000     1.25520  0.0
    118    113    114    115   5     4.74884    -0.63178     1.67360  0.0
    118    113    114    122   5     0.00000     0.00000     1.25520  0.0
    118    113    114    123   5     0.00000     0.00000     1.25520  0.0
    121    113    114    115   5     0.00000     0.00000     1.25520  0.0
    121    113    114    122   5     0.00000     0.00000     1.25520  0.0
    121    113    114    123   5     0.00000     0.00000     1.25520  0.0
    112    113    118    117   5     4.74884    -0.63178     1.67360  0.0
    112    113    118    130   5     0.00000     0.00000     1.25520  0.0
    112    113    118    131   5     0.00000     0.00000     1.25520  0.0
    114    113    118    117   5     4.74884    -0.63178     1.67360  0.0
    114    113    118    130   5     0.00000     0.00000     1.25520  0.0
    114    113    118    131   5     0.00000     0.00000     1.25520  0.0
    121    113    118    117   5     0.00000     0.00000     1.25520  0.0
    121    113    118    130   5     0.00000     0.00000     1.25520  0.0
    121    113    118    131   5     0.00000     0.00000     1.25520  0.0
    113    114    115    116   5     4.74884    -0.63178     1.67360  0.0
    113    114    115    124   5     0.00000     0.00000     1.25520  0.0
    113    114    115    125   5     0.00000     0.00000     1.25520  0.0
    122    114    115    116   5     0.00000     0.00000     1.25520  0.0
    122    114    115    124   5     0.00000     0.00000     1.25520  0.0
    122    114    115    125   5     0.00000     0.00000     1.25520  0.0
    123    114    115    116   5     0.00000     0.00000     1.25520  0.0
    123    114    115    124   5     0.00000     0.00000     1.25520  0.0
    123    114    115    125   5     0.00000     0.00000     1.25520  0.0
    114    115    116    117   5     4.74884    -0.63178     1.67360  0.0
    114    115    116    126   5     0.00000     0.00000     1.25520  0.0
    114    115    116    127   5     0.00000     0.00000     1.25520  0.0
    124    115    116    117   5     0.00000     0.00000     1.25520  0.0
    124    115    116    126   5     0.00000     0.00000     1.25520  0.0
    124    115    116    127   5     0.00000     0.00000     1.25520  0.0
    125    115    116    117   5     0.00000     0.00000     1.25520  0.0
    125    115    116    126   5     0.00000     0.00000     1.25520  0.0
    125    115    116    127   5     0.00000     0.00000     1.25520  0.0
    115    116    117    118   5     4.74884    -0.63178     1.67360  0.0
    115    116    117    128   5     0.00000     0.00000     1.25520  0.0
    115    116    117    129   5     0.00000     0.00000     1.25520  0.0
    126    116    117    118   5     0.00000     0.00000     1.25520  0.0
    126    116    117    128   5     0.00000     0.00000     1.25520  0.0
    126    116    117    129   5     0.00000     0.00000     1.25520  0.0
    127    116    117    118   5     0.00000     0.00000     1.25520  0.0
    127    116    117    128   5     0.00000     0.00000     1.25520  0.0
    127    116    117    129   5     0.00000     0.00000     1.25520  0.0
    116    117    118    113   5     4.74884    -0.63178     1.67360  0.0
    116    117    118    130   5     0.00000     0.00000     1.25520  0.0
    116    117    118    131   5     0.00000     0.00000     1.25520  0.0
    128    117    118    113   5     0.00000     0.00000     1.25520  0.0
    128    117    118    130   5     0.00000     0.00000     1.25520  0.0
    128    117    118    131   5     0.00000     0.00000     1.25520  0.0
    129    117    118    113   5     0.00000     0.00000     1.25520  0.0
    129    117    118    130   5     0.00000     0.00000     1.25520  0.0
    129    117    118    131   5     0.00000     0.00000     1.25520  0.0
    112    119    134    135   5     4.74884    -0.63178     1.67360  0.0
    112    119    134    141   5     4.74884    -0.63178     1.67360  0.0
    112    119    134    142   5     0.00000     0.00000     1.25520  0.0
    132    119    134    135   5     0.00000     0.00000     1.25520  0.0
    132    119    134    141   5     0.00000     0.00000     1.25520  0.0
    132    119    134    142   5     0.00000     0.00000     1.25520  0.0
    133    119    134    135   5     0.00000     0.00000     1.25520  0.0
    133    119    134    141   5     0.00000     0.00000     1.25520  0.0
    133    119    134    142   5     0.00000     0.00000     1.25520  0.0
    119    134    135    136   5     4.74884    -0.63178     1.67360  0.0
    119    134    135    140   5     4.74884    -0.63178     1.67360  0.0
    119    134    135    143   5     0.00000     0.00000     1.25520  0.0
    141    134    135    136   5     4.74884    -0.63178     1.67360  0.0
    141    134    135    140   5     4.74884    -0.63178     1.67360  0.0
    141    134    135    143   5     0.00000     0.00000     1.25520  0.0
    142    134    135    136   5     0.00000     0.00000     1.25520  0.0
    142    134    135    140   5     0.00000     0.00000     1.25520  0.0
    142    134    135    143   5     0.00000     0.00000     1.25520  0.0
    119    134    141    154   5     0.00000     0.00000     1.25520  0.0
    119    134    141    155   5     0.00000     0.00000     1.25520  0.0
    119    134    141    156   5     4.74884    -0.63178     1.67360  0.0
    135    134    141    154   5     0.00000     0.00000     1.25520  0.0
    135    134    141    155   5     0.00000     0.00000     1.25520  0.0
    135    134    141    156   5     4.74884    -0.63178     1.67360  0.0
    142    134    141    154   5     0.00000     0.00000     1.25520  0.0
    142    134    141    155   5     0.00000     0.00000     1.25520  0.0
    142    134    141    156   5     0.00000     0.00000     1.25520  0.0
    134    135    136    137   5     4.74884    -0.63178     1.67360  0.0
    134    135    136    144   5     0.00000     0.00000     1.25520  0.0
    134    135    136    145   5     0.00000     0.00000     1.25520  0.0
    140    135    136    137   5     4.74884    -0.63178     1.67360  0.0
    140    135    136    144   5     0.00000     0.00000     1.25520  0.0
    140    135    136    145   5     0.00000     0.00000     1.25520  0.0
    143    135    136    137   5     0.00000     0.00000     1.25520  0.0
    143    135    136    144   5     0.00000     0.00000     1.25520  0.0
    143    135    136    145   5     0.00000     0.00000     1.25520  0.0
    134    135    140    139   5     4.74884    -0.63178     1.67360  0.0
    134    135    140    152   5     0.00000     0.00000     1.25520  0.0
    134    135    140    153   5     0.00000     0.00000     1.25520  0.0
    136    135    140    139   5     4.74884    -0.63178     1.67360  0.0
    136    135    140    152   5     0.00000     0.00000     1.25520  0.0
    136    135    140    153   5     0.00000     0.00000     1.25520  0.0
    143    135    140    139   5     0.00000     0.00000     1.25520  0.0
    143    135    140    152   5     0.00000     0.00000     1.25520  0.0
    143    135    140    153   5     0.00000     0.00000     1.25520  0.0
    135    136    137    138   5     4.74884    -0.63178     1.67360  0.0
    135    136    137    146   5     0.00000     0.00000     1.25520  0.0
    135    136    137    147   5     0.00000     0.00000     1.25520  0.0
    144    136    137    138   5     0.00000     0.00000     1.25520  0.0
    144    136    137    146   5     0.00000     0.00000     1.25520  0.0
    144    136    137    147   5     0.00000     0.00000     1.25520  0.0
    145    136    137    138   5     0.00000     0.00000     1.25520  0.0
    145    136    137    146   5     0.00000     0.00000     1.25520  0.0
    145    136    137    147   5     0.00000     0.00000     1.25520  0.0
    136    137    138    139   5     4.74884    -0.63178     1.67360  0.0
    136    137    138    148   5     0.00000     0.00000     1.25520  0.0
    136    137    138    149   5     0.00000     0.00000     1.25520  0.0
    146    137    138    139   5     0.00000     0.00000     1.25520  0.0
    146    137    138    148   5     0.00000     0.00000     1.25520  0.0
    146    137    138    149   5     0.00000     0.00000     1.25520  0.0
    147    137    138    139   5     0.00000     0.00000     1.25520  0.0
    147    137    138    148   5     0.00000     0.00000     1.25520  0.0
    147    137    138    149   5     0.00000     0.00000     1.25520  0.0
    137    138    139    140   5     4.74884    -0.63178     1.67360  0.0
    137    138    139    150   5     0.00000     0.00000     1.25520  0.0
    137    138    139    151   5     0.00000     0.00000     1.25520  0.0
    148    138    139    140   5     0.00000     0.00000     1.25520  0.0
    148    138    139    150   5     0.00000     0.00000     1.25520  0.0
    148    138    139    151   5     0.00000     0.00000     1.25520  0.0
    149    138    139    140   5     0.00000     0.00000     1.25520  0.0
    149    138    139    150   5     0.00000     0.00000     1.25520  0.0
    149    138    139    151   5     0.00000     0.00000     1.25520  0.0
    138    139    140    135   5     4.74884    -0.63178     1.67360  0.0
    138    139    140    152   5     0.00000     0.00000     1.25520  0.0
    138    139    140    153   5     0.00000     0.00000     1.25520  0.0
    150    139    140    135   5     0.00000     0.00000     1.25520  0.0
    150    139    140    152   5     0.00000     0.00000     1.25520  0.0
    150    139    140    153   5     0.00000     0.00000     1.25520  0.0
    151    139    140    135   5     0.00000     0.00000     1.25520  0.0
    151    139    140    152   5     0.00000     0.00000     1.25520  0.0
    151    139    140    153   5     0.00000     0.00000     1.25520  0.0
    134    141    156    157   5     4.74884    -0.63178     1.67360  0.0
    134    141    156    163   5     4.74884    -0.63178     1.67360  0.0
    134    141    156    164   5     0.00000     0.00000     1.25520  0.0
    154    141    156    157   5     0.00000     0.00000     1.25520  0.0
    154    141    156    163   5     0.00000     0.00000     1.25520  0.0
    154    141    156    164   5     0.00000     0.00000     1.25520  0.0
    155    141    156    157   5     0.00000     0.00000     1.25520  0.0
    155    141    156    163   5     0.00000     0.00000     1.25520  0.0
    155    141    156    164   5     0.00000     0.00000     1.25520  0.0
    141    156    157    158   5     4.74884    -0.63178     1.67360  0.0
    141    156    157    162   5     4.74884    -0.63178     1.67360  0.0
    141    156    157    165   5     0.00000     0.00000     1.25520  0.0
    163    156    157    158   5     4.74884    -0.63178     1.67360  0.0
    163    156    157    162   5     4.74884    -0.63178     1.67360  0.0
    163    156    157    165   5     0.00000     0.00000     1.25520  0.0
    164    156    157    158   5     0.00000     0.00000     1.25520  0.0
    164    156    157    162   5     0.00000     0.00000     1.25520  0.0
    164    156    157    165   5     0.00000     0.00000     1.25520  0.0
    141    156    163    176   5     0.00000     0.00000     1.25520  0.0
    141    156    163    177   5     0.00000     0.00000     1.25520  0.0
    141    156    163    178   5     4.74884    -0.63178     1.67360  0.0
    157    156    163    176   5     0.00000     0.00000     1.25520  0.0
    157    156    163    177   5     0.00000     0.00000     1.25520  0.0
    157    156    163    178   5     4.74884    -0.63178     1.67360  0.0
    164    156    163    176   5     0.00000     0.00000     1.25520  0.0
    164    156    163    177   5     0.00000     0.00000     1.25520  0.0
    164    156    163    178   5     0.00000     0.00000     1.25520  0.0
    156    157    158    159   5     4.74884    -0.63178     1.67360  0.0
    156    157    158    166   5     0.00000     0.00000     1.25520  0.0
    156    157    158    167   5     0.00000     0.00000     1.25520  0.0
    162    157    158    159   5     4.74884    -0.63178     1.67360  0.0
    162    157    158    166   5     0.00000     0.00000     1.25520  0.0
    162    157    158    167   5     0.00000     0.00000     1.25520  0.0
    165    157    158    159   5     0.00000     0.00000     1.25520  0.0
    165    157    158    166   5     0.00000     0.00000     1.25520  0.0
    165    157    158    167   5     0.00000     0.00000     1.25520  0.0
    156    157    162    161   5     4.74884    -0.63178     1.67360  0.0
    156    157    162    174   5     0.00000     0.00000     1.25520  0.0
    156    157    162    175   5     0.00000     0.00000     1.25520  0.0
    158    157    162    161   5     4.74884    -0.63178     1.67360  0.0
    158    157    162    174   5     0.00000     0.00000     1.25520  0.0
    158    157    162    175   5     0.00000     0.00000     1.25520  0.0
    165    157    162    161   5     0.00000     0.00000     1.25520  0.0
    165    157    162    174   5     0.00000     0.00000     1.25520  0.0
    165    157    162    175   5     0.00000     0.00000     1.25520  0.0
    157    158    159    160   5     4.74884    -0.63178     1.67360  0.0
    157    158    159    168   5     0.00000     0.00000     1.25520  0.0
    157    158    159    169   5     0.00000     0.00000     1.25520  0.0
    166    158    159    160   5     0.00000     0.00000     1.25520  0.0
    166    158    159    168   5     0.00000     0.00000     1.25520  0.0
    166    158    159    169   5     0.00000     0.00000     1.25520  0.0
    167    158    159    160   5     0.00000     0.00000     1.25520  0.0
    167    158    159    168   5     0.00000     0.00000     1.25520  0.0
    167    158    159    169   5     0.00000     0.00000     1.25520  0.0
    158    159    160    161   5     4.74884    -0.63178     1.67360  0.0
    158    159    160    170   5     0.00000     0.00000     1.25520  0.0
    158    159    160    171   5     0.00000     0.00000     1.25520  0.0
    168    159    160    161   5     0.00000     0.00000     1.25520  0.0
    168    159    160    170   5     0.00000     0.00000     1.25520  0.0
    168    159    160    171   5     0.00000     0.00000     1.25520  0.0
    169    159    160    161   5     0.00000     0.00000     1.25520  0.0
    169    159    160    170   5     0.00000     0.00000     1.25520  0.0
    169    159    160    171   5     0.00000     0.00000     1.25520  0.0
    159    160    161    162   5     4.74884    -0.63178     1.67360  0.0
    159    160    161    172   5     0.00000     0.00000     1.25520  0.0
    159    160    161    173   5     0.00000     0.00000     1.25520  0.0
    170    160    161    162   5     0.00000     0.00000     1.25520  0.0
    170    160    161    172   5     0.00000     0.00000     1.25520  0.0
    170    160    161    173   5     0.00000     0.00000     1.25520  0.0
    171    160    161    162   5     0.00000     0.00000     1.25520  0.0
    171    160    161    172   5     0.00000     0.00000     1.25520  0.0
    171    160    161    173   5     0.00000     0.00000     1.25520  0.0
    160    161    162    157   5     4.74884    -0.63178     1.67360  0.0
    160    161    162    174   5     0.00000     0.00000     1.25520  0.0
    160    161    162    175   5     0.00000     0.00000     1.25520  0.0
    172    161    162    157   5     0.00000     0.00000     1.25520  0.0
    172    161    162    174   5     0.00000     0.00000     1.25520  0.0
    172    161    162    175   5     0.00000     0.00000     1.25520  0.0
    173    161    162    157   5     0.00000     0.00000     1.25520  0.0
    173    161    162    174   5     0.00000     0.00000     1.25520  0.0
    173    161    162    175   5     0.00000     0.00000     1.25520  0.0
    156    163    178    179   5     4.74884    -0.63178     1.67360  0.0
    156    163    178    185   5     4.74884    -0.63178     1.67360  0.0
    156    163    178    186   5     0.00000     0.00000     1.25520  0.0
    176    163    178    179   5     0.00000     0.00000     1.25520  0.0
    176    163    178    185   5     0.00000     0.00000     1.25520  0.0
    176    163    178    186   5     0.00000     0.00000     1.25520  0.0
    177    163    178    179   5     0.00000     0.00000     1.25520  0.0
    177    163    178    185   5     0.00000     0.00000     1.25520  0.0
    177    163    178    186   5     0.00000     0.00000     1.25520  0.0
    163    178    179    180   5     4.74884    -0.63178     1.67360  0.0
    163    178    179    184   5     4.74884    -0.63178     1.67360  0.0
    163    178    179    187   5     0.00000     0.00000     1.25520  0.0
    185    178    179    180   5     4.74884    -0.63178     1.67360  0.0
    185    178    179    184   5     4.74884    -0.63178     1.67360  0.0
    185    178    179    187   5     0.00000     0.00000     1.25520  0.0
    186    178    179    180   5     0.00000     0.00000     1.25520  0.0
    186    178    179    184   5     0.00000     0.00000     1.25520  0.0
    186    178    179    187   5     0.00000     0.00000     1.25520  0.0
    163    178    185    198   5     0.00000     0.00000     1.25520  0.0
    163    178    185    199   5     0.00000     0.00000     1.25520  0.0
    163    178    185    200   5     4.74884    -0.63178     1.67360  0.0
    179    178    185    198   5     0.00000     0.00000     1.25520  0.0
    179    178    185    199   5     0.00000     0.00000     1.25520  0.0
    179    178    185    200   5     4.74884    -0.63178     1.67360  0.0
    186    178    185    198   5     0.00000     0.00000     1.25520  0.0
    186    178    185    199   5     0.00000     0.00000     1.25520  0.0
    186    178    185    200   5     0.00000     0.00000     1.25520  0.0
    178    179    180    181   5     4.74884    -0.63178     1.67360  0.0
    178    179    180    188   5     0.00000     0.00000     1.25520  0.0
    178    179    180    189   5     0.00000     0.00000     1.25520  0.0
    184    179    180    181   5     4.74884    -0.63178     1.67360  0.0
    184    179    180    188   5     0.00000     0.00000     1.25520  0.0
    184    179    180    189   5     0.00000     0.00000     1.25520  0.0
    187    179    180    181   5     0.00000     0.00000     1.25520  0.0
    187    179    180    188   5     0.00000     0.00000     1.25520  0.0
    187    179    180    189   5     0.00000     0.00000     1.25520  0.0
    178    179    184    183   5     4.74884    -0.63178     1.67360  0.0
    178    179    184    196   5     0.00000     0.00000     1.25520  0.0
    178    179    184    197   5     0.00000     0.00000     1.25520  0.0
    180    179    184    183   5     4.74884    -0.63178     1.67360  0.0
    180    179    184    196   5     0.00000     0.00000     1.25520  0.0
    180    179    184    197   5     0.00000     0.00000     1.25520  0.0
    187    179    184    183   5     0.00000     0.00000     1.25520  0.0
    187    179    184    196   5     0.00000     0.00000     1.25520  0.0
    187    179    184    197   5     0.00000     0.00000     1.25520  0.0
    179    180    181    182   5     4.74884    -0.63178     1.67360  0.0
    179    180    181    190   5     0.00000     0.00000     1.25520  0.0
    179    180    181    191   5     0.00000     0.00000     1.25520  0.0
    188    180    181    182   5     0.00000     0.00000     1.25520  0.0
    188    180    181    190   5     0.00000     0.00000     1.25520  0.0
    188    180    181    191   5     0.00000     0.00000     1.25520  0.0
    189    180    181    182   5     0.00000     0.00000     1.25520  0.0
    189    180    181    190   5     0.00000     0.00000     1.25520  0.0
    189    180    181    191   5     0.00000     0.00000     1.25520  0.0
    180    181    182    183   5     4.74884    -0.63178     1.67360  0.0
    180    181    182    192   5     0.00000     0.00000     1.25520  0.0
    180    181    182    193   5     0.00000     0.00000     1.25520  0.0
    190    181    182    183   5     0.00000     0.00000     1.25520  0.0
    190    181    182    192   5     0.00000     0.00000     1.25520  0.0
    190    181    182    193   5     0.00000     0.00000     1.25520  0.0
    191    181    182    183   5     0.00000     0.00000     1.25520  0.0
    191    181    182    192   5     0.00000     0.00000     1.25520  0.0
    191    181    182    193   5     0.00000     0.00000     1.25520  0.0
    181    182    183    184   5     4.74884    -0.63178     1.67360  0.0
    181    182    183    194   5     0.00000     0.00000     1.25520  0.0
    181    182    183    195   5     0.00000     0.00000     1.25520  0.0
    192    182    183    184   5     0.00000     0.00000     1.25520  0.0
    192    182    183    194   5     0.00000     0.00000     1.25520  0.0
    192    182    183    195   5     0.00000     0.00000     1.25520  0.0
    193    182    183    184   5     0.00000     0.00000     1.25520  0.0
    193    182    183    194   5     0.00000     0.00000     1.25520  0.0
    193    182    183    195   5     0.00000     0.00000     1.25520  0.0
    182    183    184    179   5     4.74884    -0.63178     1.67360  0.0
    182    183    184    196   5     0.00000     0.00000     1.25520  0.0
    182    183    184    197   5     0.00000     0.00000     1.25520  0.0
    194    183    184    179   5     0.00000     0.00000     1.25520  0.0
    194    183    184    196   5     0.00000     0.00000     1.25520  0.0
    194    183    184    197   5     0.00000     0.00000     1.25520  0.0
    195    183    184    179   5     0.00000     0.00000     1.25520  0.0
    195    183    184    196   5     0.00000     0.00000     1.25520  0.0
    195    183    184    197   5     0.00000     0.00000     1.25520  0.0
    178    185    200    201   5     4.74884    -0.63178     1.67360  0.0
    178    185    200    207   5     4.74884    -0.63178     1.67360  0.0
    178    185    200    208   5     0.00000     0.00000     1.25520  0.0
    198    185    200    201   5     0.00000     0.00000     1.25520  0.0
    198    185    200    207   5     0.00000     0.00000     1.25520  0.0
    198    185    200    208   5     0.00000     0.00000     1.25520  0.0
    199    185    200    201   5     0.00000     0.00000     1.25520  0.0
    199    185    200    207   5     0.00000     0.00000     1.25520  0.0
    199    185    200    208   5     0.00000     0.00000     1.25520  0.0
    185    200    201    202   5     4.74884    -0.63178     1.67360  0.0
    185    200    201    206   5     4.74884    -0.63178     1.67360  0.0
    185    200    201    209   5     0.00000     0.00000     1.25520  0.0
    207    200    201    202   5     4.74884    -0.63178     1.67360  0.0
    207    200    201    206   5     4.74884    -0.63178     1.67360  0.0
    207    200    201    209   5     0.00000     0.00000     1.25520  0.0
    208    200    201    202   5     0.00000     0.00000     1.25520  0.0
    208    200    201    206   5     0.00000     0.00000     1.25520  0.0
    208    200    201    209   5     0.00000     0.00000     1.25520  0.0
    185    200    207    220   5     0.00000     0.00000     1.25520  0.0
    185    200    207    221   5     0.00000     0.00000     1.25520  0.0
    185    200    207    222   5     4.74884    -0.63178     1.67360  0.0
    201    200    207    220   5     0.00000     0.00000     1.25520  0.0
    201    200    207    221   5     0.00000     0.00000     1.25520  0.0
    201    200    207    222   5     4.74884    -0.63178     1.67360  0.0
    208    200    207    220   5     0.00000     0.00000     1.25520  0.0
    208    200    207    221   5     0.00000     0.00000     1.25520  0.0
    208    200    207    222   5     0.00000     0.00000     1.25520  0.0
    200    201    202    203   5     4.74884    -0.63178     1.67360  0.0
    200    201    202    210   5     0.00000     0.00000     1.25520  0.0
    200    201    202    211   5     0.00000     0.00000     1.25520  0.0
    206    201    202    203   5     4.74884    -0.63178     1.67360  0.0
    206    201    202    210   5     0.00000     0.00000     1.25520  0.0
    206    201    202    211   5     0.00000     0.00000     1.25520  0.0
    209    201    202    203   5     0.00000     0.00000     1.25520  0.0
    209    201    202    210   5     0.00000     0.00000     1.25520  0.0
    209    201    202    211   5     0.00000     0.00000     1.25520  0.0
    200    201    206    205   5     4.74884    -0.63178     1.67360  0.0
    200    201    206    218   5     0.00000     0.00000     1.25520  0.0
    200    201    206    219   5     0.00000     0.00000     1.25520  0.0
    202    201    206    205   5     4.74884    -0.63178     1.67360  0.0
    202    201    206    218   5     0.00000     0.00000     1.25520  0.0
    202    201    206    219   5     0.00000     0.00000     1.25520  0.0
    209    201    206    205   5     0.00000     0.00000     1.25520  0.0
    209    201    206    218   5     0.00000     0.00000     1.25520  0.0
    209    201    206    219   5     0.00000     0.00000     1.25520  0.0
    201    202    203    204   5     4.74884    -0.63178     1.67360  0.0
    201    202    203    212   5     0.00000     0.00000     1.25520  0.0
    201    202    203    213   5     0.00000     0.00000     1.25520  0.0
    210    202    203    204   5     0.00000     0.00000     1.25520  0.0
    210    202    203    212   5     0.00000     0.00000     1.25520  0.0
    210    202    203    213   5     0.00000     0.00000     1.25520  0.0
    211    202    203    204   5     0.00000     0.00000     1.25520  0.0
    211    202    203    212   5     0.00000     0.00000     1.25520  0.0
    211    202    203    213   5     0.00000     0.00000     1.25520  0.0
    202    203    204    205   5     4.74884    -0.63178     1.67360  0.0
    202    203    204    214   5     0.00000     0.00000     1.25520  0.0
    202    203    204    215   5     0.00000     0.00000     1.25520  0.0
    212    203    204    205   5     0.00000     0.00000     1.25520  0.0
    212    203    204    214   5     0.00000     0.00000     1.25520  0.0
    212    203    204    215   5     0.00000     0.00000     1.25520  0.0
    213    203    204    205   5     0.00000     0.00000     1.25520  0.0
    213    203    204    214   5     0.00000     0.00000     1.25520  0.0
    213    203    204    215   5     0.00000     0.00000     1.25520  0.0
    203    204    205    206   5     4.74884    -0.63178     1.67360  0.0
    203    204    205    216   5     0.00000     0.00000     1.25520  0.0
    203    204    205    217   5     0.00000     0.00000     1.25520  0.0
    214    204    205    206   5     0.00000     0.00000     1.25520  0.0
    214    204    205    216   5     0.00000     0.00000     1.25520  0.0
    214    204    205    217   5     0.00000     0.00000     1.25520  0.0
    215    204    205    206   5     0.00000     0.00000     1.25520  0.0
    215    204    205    216   5     0.00000     0.00000     1.25520  0.0
    215    204    205    217   5     0.00000     0.00000     1.25520  0.0
    204    205    206    201   5     4.74884    -0.63178     1.67360  0.0
    204    205    206    218   5     0.00000     0.00000     1.25520  0.0
    204    205    206    219   5     0.00000     0.00000     1.25520  0.0
    216    205    206    201   5     0.00000     0.00000     1.25520  0.0
    216    205    206    218   5     0.00000     0.00000     1.25520  0.0
    216    205    206    219   5     0.00000     0.00000     1.25520  0.0
    217    205    206    201   5     0.00000     0.00000     1.25520  0.0
    217    205    206    218   5     0.00000     0.00000     1.25520  0.0
    217    205    206    219   5     0.00000     0.00000     1.25520  0.0
    200    207    222    223   5     4.74884    -0.63178     1.67360  0.0
    200    207    222    229   5     4.74884    -0.63178     1.67360  0.0
    200    207    222    230   5     0.00000     0.00000     1.25520  0.0
    220    207    222    223   5     0.00000     0.00000     1.25520  0.0
    220    207    222    229   5     0.00000     0.00000     1.25520  0.0
    220    207    222    230   5     0.00000     0.00000     1.25520  0.0
    221    207    222    223   5     0.00000     0.00000     1.25520  0.0
    221    207    222    229   5     0.00000     0.00000     1.25520  0.0
    221    207    222    230   5     0.00000     0.00000     1.25520  0.0
    207    222    223    224   5     4.74884    -0.63178     1.67360  0.0
    207    222    223    228   5     4.74884    -0.63178     1.67360  0.0
    207    222    223    231   5     0.00000     0.00000     1.25520  0.0
    229    222    223    224   5     4.74884    -0.63178     1.67360  0.0
    229    222    223    228   5     4.74884    -0.63178     1.67360  0.0
    229    222    223    231   5     0.00000     0.00000     1.25520  0.0
    230    222    223    224   5     0.00000     0.00000     1.25520  0.0
    230    222    223    228   5     0.00000     0.00000     1.25520  0.0
    230    222    223    231   5     0.00000     0.00000     1.25520  0.0
    207    222    229    242   5     0.00000     0.00000     1.25520  0.0
    207    222    229    243   5     0.00000     0.00000     1.25520  0.0
    207    222    229    244   5     4.74884    -0.63178     1.67360  0.0
    223    222    229    242   5     0.00000     0.00000     1.25520  0.0
    223    222    229    243   5     0.00000     0.00000     1.25520  0.0
    223    222    229    244   5     4.74884    -0.63178     1.67360  0.0
    230    222    229    242   5     0.00000     0.00000     1.25520  0.0
    230    222    229    243   5     0.00000     0.00000     1.25520  0.0
    230    222    229    244   5     0.00000     0.00000     1.25520  0.0
    222    223    224    225   5     4.74884    -0.63178     1.67360  0.0
    222    223    224    232   5     0.00000     0.00000     1.25520  0.0
    222    223    224    233   5     0.00000     0.00000     1.25520  0.0
    228    223    224    225   5     4.74884    -0.63178     1.67360  0.0
    228    223    224    232   5     0.00000     0.00000     1.25520  0.0
    228    223    224    233   5     0.00000     0.00000     1.25520  0.0
    231    223    224    225   5     0.00000     0.00000     1.25520  0.0
    231    223    224    232   5     0.00000     0.00000     1.25520  0.0
    231    223    224    233   5     0.00000     0.00000     1.25520  0.0
    222    223    228    227   5     4.74884    -0.63178     1.67360  0.0
    222    223    228    240   5     0.00000     0.00000     1.25520  0.0
    222    223    228    241   5     0.00000     0.00000     1.25520  0.0
    224    223    228    227   5     4.74884    -0.63178     1.67360  0.0
    224    223    228    240   5     0.00000     0.00000     1.25520  0.0
    224    223    228    241   5     0.00000     0.00000     1.25520  0.0
    231    223    228    227   5     0.00000     0.00000     1.25520  0.0
    231    223    228    240   5     0.00000     0.00000     1.25520  0.0
    231    223    228    241   5     0.00000     0.00000     1.25520  0.0
    223    224    225    226   5     4.74884    -0.63178     1.67360  0.0
    223    224    225    234   5     0.00000     0.00000     1.25520  0.0
    223    224    225    235   5     0.00000     0.00000     1.25520  0.0
    232    224    225    226   5     0.00000     0.00000     1.25520  0.0
    232    224    225    234   5     0.00000     0.00000     1.25520  0.0
    232    224    225    235   5     0.00000     0.00000     1.25520  0.0
    233    224    225    226   5     0.00000     0.00000     1.25520  0.0
    233    224    225    234   5     0.00000     0.00000     1.25520  0.0
    233    224    225    235   5     0.00000     0.00000     1.25520  0.0
    224    225    226    227   5     4.74884    -0.63178     1.67360  0.0
    224    225    226    236   5     0.00000     0.00000     1.25520  0.0
    224    225    226    237   5     0.00000     0.00000     1.25520  0.0
    234    225    226    227   5     0.00000     0.00000     1.25520  0.0
    234    225    226    236   5     0.00000     0.00000     1.25520  0.0
    234    225    226    237   5     0.00000     0.00000     1.25520  0.0
    235    225    226    227   5     0.00000     0.00000     1.25520  0.0
    235    225    226    236   5     0.00000     0.00000     1.25520  0.0
    235    225    226    237   5     0.00000     0.00000     1.25520  0.0
    225    226    227    228   5     4.74884    -0.63178     1.67360  0.0
    225    226    227    238   5     0.00000     0.00000     1.25520  0.0
    225    226    227    239   5     0.00000     0.00000     1.25520  0.0
    236    226    227    228   5     0.00000     0.00000     1.25520  0.0
    236    226    227    238   5     0.00000     0.00000     1.25520  0.0
    236    226    227    239   5     0.00000     0.00000     1.25520  0.0
    237    226    227    228   5     0.00000     0.00000     1.25520  0.0
    237    226    227    238   5     0.00000     0.00000     1.25520  0.0
    237    226    227    239   5     0.00000     0.00000     1.25520  0.0
    226    227    228    223   5     4.74884    -0.63178     1.67360  0.0
    226    227    228    240   5     0.00000     0.00000     1.25520  0.0
    226    227    228    241   5     0.00000     0.00000     1.25520  0.0
    238    227    228    223   5     0.00000     0.00000     1.25520  0.0
    238    227    228    240   5     0.00000     0.00000     1.25520  0.0
    238    227    228    241   5     0.00000     0.00000     1.25520  0.0
    239    227    228    223   5     0.00000     0.00000     1.25520  0.0
    239    227    228    240   5     0.00000     0.00000     1.25520  0.0
    239    227    228    241   5     0.00000     0.00000     1.25520  0.0
    222    229    244    245   5     4.74884    -0.63178     1.67360  0.0
    222    229    244    251   5     4.74884    -0.63178     1.67360  0.0
    222    229    244    252   5     0.00000     0.00000     1.25520  0.0
    242    229    244    245   5     0.00000     0.00000     1.25520  0.0
    242    229    244    251   5     0.00000     0.00000     1.25520  0.0
    242    229    244    252   5     0.00000     0.00000     1.25520  0.0
    243    229    244    245   5     0.00000     0.00000     1.25520  0.0
    243    229    244    251   5     0.00000     0.00000     1.25520  0.0
    243    229    244    252   5     0.00000     0.00000     1.25520  0.0
    229    244    245    246   5     4.74884    -0.63178     1.67360  0.0
    229    244    245    250   5     4.74884    -0.63178     1.67360  0.0
    229    244    245    253   5     0.00000     0.00000     1.25520  0.0
    251    244    245    246   5     4.74884    -0.63178     1.67360  0.0
    251    244    245    250   5     4.74884    -0.63178     1.67360  0.0
    251    244    245    253   5     0.00000     0.00000     1.25520  0.0
    252    244    245    246   5     0.00000     0.00000     1.25520  0.0
    252    244    245    250   5     0.00000     0.00000     1.25520  0.0
    252    244    245    253   5     0.00000     0.00000     1.25520  0.0
    229    244    251    264   5     0.00000     0.00000     1.25520  0.0
    229    244    251    265   5     0.00000     0.00000     1.25520  0.0
    229    244    251    266   5     4.74884    -0.63178     1.67360  0.0
    245    244    251    264   5     0.00000     0.00000     1.25520  0.0
    245    244    251    265   5     0.00000     0.00000     1.25520  0.0
    245    244    251    266   5     4.74884    -0.63178     1.67360  0.0
    252    244    251    264   5     0.00000     0.00000     1.25520  0.0
    252    244    251    265   5     0.00000     0.00000     1.25520  0.0
    252    244    251    266   5     0.00000     0.00000     1.25520  0.0
    244    245    246    247   5     4.74884    -0.63178     1.67360  0.0
    244    245    246    254   5     0.00000     0.00000     1.25520  0.0
    244    245    246    255   5     0.00000     0.00000     1.25520  0.0
    250    245    246    247   5     4.74884    -0.63178     1.67360  0.0
    250    245    246    254   5     0.00000     0.00000     1.25520  0.0
    250    245    246    255   5     0.00000     0.00000     1.25520  0.0
    253    245    246    247   5     0.00000     0.00000     1.25520  0.0
    253    245    246    254   5     0.00000     0.00000     1.25520  0.0
    253    245    246    255   5     0.00000     0.00000     1.25520  0.0
    244    245    250    249   5     4.74884    -0.63178     1.67360  0.0
    244    245    250    262   5     0.00000     0.00000     1.25520  0.0
    244    245    250    263   5     0.00000     0.00000     1.25520  0.0
    246    245    250    249   5     4.74884    -0.63178     1.67360  0.0
    246    245    250    262   5     0.00000     0.00000     1.25520  0.0
    246    245    250    263   5     0.00000     0.00000     1.25520  0.0
    253    245    250    249   5     0.00000     0.00000     1.25520  0.0
    253    245    250    262   5     0.00000     0.00000     1.25520  0.0
    253    245    250    263   5     0.00000     0.00000     1.25520  0.0
    245    246    247    248   5     4.74884    -0.63178     1.67360  0.0
    245    246    247    256   5     0.00000     0.00000     1.25520  0.0
    245    246    247    257   5     0.00000     0.00000     1.25520  0.0
    254    246    247    248   5     0.00000     0.00000     1.25520  0.0
    254    246    247    256   5     0.00000     0.00000     1.25520  0.0
    254    246    247    257   5     0.00000     0.00000     1.25520  0.0
    255    246    247    248   5     0.00000     0.00000     1.25520  0.0
    255    246    247    256   5     0.00000     0.00000     1.25520  0.0
    255    246    247    257   5     0.00000     0.00000     1.25520  0.0
    246    247    248    249   5     4.74884    -0.63178     1.67360  0.0
    246    247    248    258   5     0.00000     0.00000     1.25520  0.0
    246    247    248    259   5     0.00000     0.00000     1.25520  0.0
    256    247    248    249   5     0.00000     0.00000     1.25520  0.0
    256    247    248    258   5     0.00000     0.00000     1.25520  0.0
    256    247    248    259   5     0.00000     0.00000     1.25520  0.0
    257    247    248    249   5     0.00000     0.00000     1.25520  0.0
    257    247    248    258   5     0.00000     0.00000     1.25520  0.0
    257    247    248    259   5     0.00000     0.00000     1.25520  0.0
    247    248    249    250   5     4.74884    -0.63178     1.67360  0.0
    247    248    249    260   5     0.00000     0.00000     1.25520  0.0
    247    248    249    261   5     0.00000     0.00000     1.25520  0.0
    258    248    249    250   5     0.00000     0.00000     1.25520  0.0
    258    248    249    260   5     0.00000     0.00000     1.25520  0.0
    258    248    249    261   5     0.00000     0.00000     1.25520  0.0
    259    248    249    250   5     0.00000     0.00000     1.25520  0.0
    259    248    249    260   5     0.00000     0.00000     1.25520  0.0
    259    248    249    261   5     0.00000     0.00000     1.25520  0.0
    248    249    250    245   5     4.74884    -0.63178     1.67360  0.0
    248    249    250    262   5     0.00000     0.00000     1.25520  0.0
    248    249    250    263   5     0.00000     0.00000     1.25520  0.0
    260    249    250    245   5     0.00000     0.00000     1.25520  0.0
    260    249    250    262   5     0.00000     0.00000     1.25520  0.0
    260    249    250    263   5     0.00000     0.00000     1.25520  0.0
    261    249    250    245   5     0.00000     0.00000     1.25520  0.0
    261    249    250    262   5     0.00000     0.00000     1.25520  0.0
    261    249    250    263   5     0.00000     0.00000     1.25520  0.0
    244    251    266    267   5     4.74884    -0.63178     1.67360  0.0
    244    251    266    273   5     4.74884    -0.63178     1.67360  0.0
    244    251    266    274   5     0.00000     0.00000     1.25520  0.0
    264    251    266    267   5     0.00000     0.00000     1.25520  0.0
    264    251    266    273   5     0.00000     0.00000     1.25520  0.0
    264    251    266    274   5     0.00000     0.00000     1.25520  0.0
    265    251    266    267   5     0.00000     0.00000     1.25520  0.0
    265    251    266    273   5     0.00000     0.00000     1.25520  0.0
    265    251    266    274   5     0.00000     0.00000     1.25520  0.0
    251    266    267    268   5     4.74884    -0.63178     1.67360  0.0
    251    266    267    272   5     4.74884    -0.63178     1.67360  0.0
    251    266    267    275   5     0.00000     0.00000     1.25520  0.0
    273    266    267    268   5     4.74884    -0.63178     1.67360  0.0
    273    266    267    272   5     4.74884    -0.63178     1.67360  0.0
    273    266    267    275   5     0.00000     0.00000     1.25520  0.0
    274    266    267    268   5     0.00000     0.00000     1.25520  0.0
    274    266    267    272   5     0.00000     0.00000     1.25520  0.0
    274    266    267    275   5     0.00000     0.00000     1.25520  0.0
    251    266    273    286   5     0.00000     0.00000     1.25520  0.0
    251    266    273    287   5     0.00000     0.00000     1.25520  0.0
    251    266    273    288   5     4.74884    -0.63178     1.67360  0.0
    267    266    273    286   5     0.00000     0.00000     1.25520  0.0
    267    266    273    287   5     0.00000     0.00000     1.25520  0.0
    267    266    273    288   5     4.74884    -0.63178     1.67360  0.0
    274    266    273    286   5     0.00000     0.00000     1.25520  0.0
    274    266    273    287   5     0.00000     0.00000     1.25520  0.0
    274    266    273    288   5     0.00000     0.00000     1.25520  0.0
    266    267    268    269   5     4.74884    -0.63178     1.67360  0.0
    266    267    268    276   5     0.00000     0.00000     1.25520  0.0
    266    267    268    277   5     0.00000     0.00000     1.25520  0.0
    272    267    268    269   5     4.74884    -0.63178     1.67360  0.0
    272    267    268    276   5     0.00000     0.00000     1.25520  0.0
    272    267    268    277   5     0.00000     0.00000     1.25520  0.0
    275    267    268    269   5     0.00000     0.00000     1.25520  0.0
    275    267    268    276   5     0.00000     0.00000     1.25520  0.0
    275    267    268    277   5     0.00000     0.00000     1.25520  0.0
    266    267    272    271   5     4.74884    -0.63178     1.67360  0.0
    266    267    272    284   5     0.00000     0.00000     1.25520  0.0
    266    267    272    285   5     0.00000     0.00000     1.25520  0.0
    268    267    272    271   5     4.74884    -0.63178     1.67360  0.0
    268    267    272    284   5     0.00000     0.00000     1.25520  0.0
    268    267    272    285   5     0.00000     0.00000     1.25520  0.0
    275    267    272    271   5     0.00000     0.00000     1.25520  0.0
    275    267    272    284   5     0.00000     0.00000     1.25520  0.0
    275    267    272    285   5     0.00000     0.00000     1.25520  0.0
    267    268    269    270   5     4.74884    -0.63178     1.67360  0.0
    267    268    269    278   5     0.00000     0.00000     1.25520  0.0
    267    268    269    279   5     0.00000     0.00000     1.25520  0.0
    276    268    269    270   5     0.00000     0.00000     1.25520  0.0
    276    268    269    278   5     0.00000     0.00000     1.25520  0.0
    276    268    269    279   5     0.00000     0.00000     1.25520  0.0
    277    268    269    270   5     0.00000     0.00000     1.25520  0.0
    277    268    269    278   5     0.00000     0.00000     1.25520  0.0
    277    268    269    279   5     0.00000     0.00000     1.25520  0.0
    268    269    270    271   5     4.74884    -0.63178     1.67360  0.0
    268    269    270    280   5     0.00000     0.00000     1.25520  0.0
    268    269    270    281   5     0.00000     0.00000     1.25520  0.0
    278    269    270    271   5     0.00000     0.00000     1.25520  0.0
    278    269    270    280   5     0.00000     0.00000     1.25520  0.0
    278    269    270    281   5     0.00000     0.00000     1.25520  0.0
    279    269    270    271   5     0.00000     0.00000     1.25520  0.0
    279    269    270    280   5     0.00000     0.00000     1.25520  0.0
    279    269    270    281   5     0.00000     0.00000     1.25520  0.0
    269    270    271    272   5     4.74884    -0.63178     1.67360  0.0
    269    270    271    282   5     0.00000     0.00000     1.25520  0.0
    269    270    271    283   5     0.00000     0.00000     1.25520  0.0
    280    270    271    272   5     0.00000     0.00000     1.25520  0.0
    280    270    271    282   5     0.00000     0.00000     1.25520  0.0
    280    270    271    283   5     0.00000     0.00000     1.25520  0.0
    281    270    271    272   5     0.00000     0.00000     1.25520  0.0
    281    270    271    282   5     0.00000     0.00000     1.25520  0.0
    281    270    271    283   5     0.00000     0.00000     1.25520  0.0
    270    271    272    267   5     4.74884    -0.63178     1.67360  0.0
    270    271    272    284   5     0.00000     0.00000     1.25520  0.0
    270    271    272    285   5     0.00000     0.00000     1.25520  0.0
    282    271    272    267   5     0.00000     0.00000     1.25520  0.0
    282    271    272    284   5     0.00000     0.00000     1.25520  0.0
    282    271    272    285   5     0.00000     0.00000     1.25520  0.0
    283    271    272    267   5     0.00000     0.00000     1.25520  0.0
    283    271    272    284   5     0.00000     0.00000     1.25520  0.0
    283    271    272    285   5     0.00000     0.00000     1.25520  0.0
    266    273    288    289   5     4.74884    -0.63178     1.67360  0.0
    266    273    288    295   5     4.74884    -0.63178     1.67360  0.0
    266    273    288    296   5     0.00000     0.00000     1.25520  0.0
    286    273    288    289   5     0.00000     0.00000     1.25520  0.0
    286    273    288    295   5     0.00000     0.00000     1.25520  0.0
    286    273    288    296   5     0.00000     0.00000     1.25520  0.0
    287    273    288    289   5     0.00000     0.00000     1.25520  0.0
    287    273    288    295   5     0.00000     0.00000     1.25520  0.0
    287    273    288    296   5     0.00000     0.00000     1.25520  0.0
    273    288    289    290   5     4.74884    -0.63178     1.67360  0.0
    273    288    289    294   5     4.74884    -0.63178     1.67360  0.0
    273    288    289    297   5     0.00000     0.00000     1.25520  0.0
    295    288    289    290   5     4.74884    -0.63178     1.67360  0.0
    295    288    289    294   5     4.74884    -0.63178     1.67360  0.0
    295    288    289    297   5     0.00000     0.00000     1.25520  0.0
    296    288    289    290   5     0.00000     0.00000     1.25520  0.0
    296    288    289    294   5     0.00000     0.00000     1.25520  0.0
    296    288    289    297   5     0.00000     0.00000     1.25520  0.0
    273    288    295    308   5     0.00000     0.00000     1.25520  0.0
    273    288    295    309   5     0.00000     0.00000     1.25520  0.0
    273    288    295    310   5     4.74884    -0.63178     1.67360  0.0
    289    288    295    308   5     0.00000     0.00000     1.25520  0.0
    289    288    295    309   5     0.00000     0.00000     1.25520  0.0
    289    288    295    310   5     4.74884    -0.63178     1.67360  0.0
    296    288    295    308   5     0.00000     0.00000     1.25520  0.0
    296    288    295    309   5     0.00000     0.00000     1.25520  0.0
    296    288    295    310   5     0.00000     0.00000     1.25520  0.0
    288    289    290    291   5     4.74884    -0.63178     1.67360  0.0
    288    289    290    298   5     0.00000     0.00000     1.25520  0.0
    288    289    290    299   5     0.00000     0.00000     1.25520  0.0
    294    289    290    291   5     4.74884    -0.63178     1.67360  0.0
    294    289    290    298   5     0.00000     0.00000     1.25520  0.0
    294    289    290    299   5     0.00000     0.00000     1.25520  0.0
    297    289    290    291   5     0.00000     0.00000     1.25520  0.0
    297    289    290    298   5     0.00000     0.00000     1.25520  0.0
    297    289    290    299   5     0.00000     0.00000     1.25520  0.0
    288    289    294    293   5     4.74884    -0.63178     1.67360  0.0
    288    289    294    306   5     0.00000     0.00000     1.25520  0.0
    288    289    294    307   5     0.00000     0.00000     1.25520  0.0
    290    289    294    293   5     4.74884    -0.63178     1.67360  0.0
    290    289    294    306   5     0.00000     0.00000     1.25520  0.0
    290    289    294    307   5     0.00000     0.00000     1.25520  0.0
    297    289    294    293   5     0.00000     0.00000     1.25520  0.0
    297    289    294    306   5     0.00000     0.00000     1.25520  0.0
    297    289    294    307   5     0.00000     0.00000     1.25520  0.0
    289    290    291    292   5     4.74884    -0.63178     1.67360  0.0
    289    290    291    300   5     0.00000     0.00000     1.25520  0.0
    289    290    291    301   5     0.00000     0.00000     1.25520  0.0
    298    290    291    292   5     0.00000     0.00000     1.25520  0.0
    298    290    291    300   5     0.00000     0.00000     1.25520  0.0
    298    290    291    301   5     0.00000     0.00000     1.25520  0.0
    299    290    291    292   5     0.00000     0.00000     1.25520  0.0
    299    290    291    300   5     0.00000     0.00000     1.25520  0.0
    299    290    291    301   5     0.00000     0.00000     1.25520  0.0
    290    291    292    293   5     4.74884    -0.63178     1.67360  0.0
    290    291    292    302   5     0.00000     0.00000     1.25520  0.0
    290    291    292    303   5     0.00000     0.00000     1.25520  0.0
    300    291    292    293   5     0.00000     0.00000     1.25520  0.0
    300    291    292    302   5     0.00000     0.00000     1.25520  0.0
    300    291    292    303   5     0.00000     0.00000     1.25520  0.0
    301    291    292    293   5     0.00000     0.00000     1.25520  0.0
    301    291    292    302   5     0.00000     0.00000     1.25520  0.0
    301    291    292    303   5     0.00000     0.00000     1.25520  0.0
    291    292    293    294   5     4.74884    -0.63178     1.67360  0.0
    291    292    293    304   5     0.00000     0.00000     1.25520  0.0
    291    292    293    305   5     0.00000     0.00000     1.25520  0.0
    302    292    293    294   5     0.00000     0.00000     1.25520  0.0
    302    292    293    304   5     0.00000     0.00000     1.25520  0.0
    302    292    293    305   5     0.00000     0.00000     1.25520  0.0
    303    292    293    294   5     0.00000     0.00000     1.25520  0.0
    303    292    293    304   5     0.00000     0.00000     1.25520  0.0
    303    292    293    305   5     0.00000     0.00000     1.25520  0.0
    292    293    294    289   5     4.74884    -0.63178     1.67360  0.0
    292    293    294    306   5     0.00000     0.00000     1.25520  0.0
    292    293    294    307   5     0.00000     0.00000     1.25520  0.0
    304    293    294    289   5     0.00000     0.00000     1.25520  0.0
    304    293    294    306   5     0.00000     0.00000     1.25520  0.0
    304    293    294    307   5     0.00000     0.00000     1.25520  0.0
    305    293    294    289   5     0.00000     0.00000     1.25520  0.0
    305    293    294    306   5     0.00000     0.00000     1.25520  0.0
    305    293    294    307   5     0.00000     0.00000     1.25520  0.0
    288    295    310    311   5     4.74884    -0.63178     1.67360  0.0
    288    295    310    317   5     4.74884    -0.63178     1.67360  0.0
    288    295    310    318   5     0.00000     0.00000     1.25520  0.0
    308    295    310    311   5     0.00000     0.00000     1.25520  0.0
    308    295    310    317   5     0.00000     0.00000     1.25520  0.0
    308    295    310    318   5     0.00000     0.00000     1.25520  0.0
    309    295    310    311   5     0.00000     0.00000     1.25520  0.0
    309    295    310    317   5     0.00000     0.00000     1.25520  0.0
    309    295    310    318   5     0.00000     0.00000     1.25520  0.0
    295    310    311    312   5     4.74884    -0.63178     1.67360  0.0
    295    310    311    316   5     4.74884    -0.63178     1.67360  0.0
    295    310    311    319   5     0.00000     0.00000     1.25520  0.0
    317    310    311    312   5     4.74884    -0.63178     1.67360  0.0
    317    310    311    316   5     4.74884    -0.63178     1.67360  0.0
    317    310    311    319   5     0.00000     0.00000     1.25520  0.0
    318    310    311    312   5     0.00000     0.00000     1.25520  0.0
    318    310    311    316   5     0.00000     0.00000     1.25520  0.0
    318    310    311    319   5     0.00000     0.00000     1.25520  0.0
    295    310    317    330   5     0.00000     0.00000     1.25520  0.0
    295    310    317    331   5     0.00000     0.00000     1.25520  0.0
    295    310    317    332   5     4.74884    -0.63178     1.67360  0.0
    311    310    317    330   5     0.00000     0.00000     1.25520  0.0
    311    310    317    331   5     0.00000     0.00000     1.25520  0.0
    311    310    317    332   5     4.74884    -0.63178     1.67360  0.0
    318    310    317    330   5     0.00000     0.00000     1.25520  0.0
    318    310    317    331   5     0.00000     0.00000     1.25520  0.0
    318    310    317    332   5     0.00000     0.00000     1.25520  0.0
    310    311    312    313   5     4.74884    -0.63178     1.67360  0.0
    310    311    312    320   5     0.00000     0.00000     1.25520  0.0
    310    311    312    321   5     0.00000     0.00000     1.25520  0.0
    316    311    312    313   5     4.74884    -0.63178     1.67360  0.0
    316    311    312    320   5     0.00000     0.00000     1.25520  0.0
    316    311    312    321   5     0.00000     0.00000     1.25520  0.0
    319    311    312    313   5     0.00000     0.00000     1.25520  0.0
    319    311    312    320   5     0.00000     0.00000     1.25520  0.0
    319    311    312    321   5     0.00000     0.00000     1.25520  0.0
    310    311    316    315   5     4.74884    -0.63178     1.67360  0.0
    310    311    316    328   5     0.00000     0.00000     1.25520  0.0
    310    311    316    329   5     0.00000     0.00000     1.25520  0.0
    312    311    316    315   5     4.74884    -0.63178     1.67360  0.0
    312    311    316    328   5     0.00000     0.00000     1.25520  0.0
    312    311    316    329   5     0.00000     0.00000     1.25520  0.0
    319    311    316    315   5     0.00000     0.00000     1.25520  0.0
    319    311    316    328   5     0.00000     0.00000     1.25520  0.0
    319    311    316    329   5     0.00000     0.00000     1.25520  0.0
    311    312    313    314   5     4.74884    -0.63178     1.67360  0.0
    311    312    313    322   5     0.00000     0.00000     1.25520  0.0
    311    312    313    323   5     0.00000     0.00000     1.25520  0.0
    320    312    313    314   5     0.00000     0.00000     1.25520  0.0
    320    312    313    322   5     0.00000     0.00000     1.25520  0.0
    320    312    313    323   5     0.00000     0.00000     1.25520  0.0
    321    312    313    314   5     0.00000     0.00000     1.25520  0.0
    321    312    313    322   5     0.00000     0.00000     1.25520  0.0
    321    312    313    323   5     0.00000     0.00000     1.25520  0.0
    312    313    314    315   5     4.74884    -0.63178     1.67360  0.0
    312    313    314    324   5     0.00000     0.00000     1.25520  0.0
    312    313    314    325   5     0.00000     0.00000     1.25520  0.0
    322    313    314    315   5     0.00000     0.00000     1.25520  0.0
    322    313    314    324   5     0.00000     0.00000     1.25520  0.0
    322    313    314    325   5     0.00000     0.00000     1.25520  0.0
    323    313    314    315   5     0.00000     0.00000     1.25520  0.0
    323    313    314    324   5     0.00000     0.00000     1.25520  0.0
    323    313    314    325   5     0.00000     0.00000     1.25520  0.0
    313    314    315    316   5     4.74884    -0.63178     1.67360  0.0
    313    314    315    326   5     0.00000     0.00000     1.25520  0.0
    313    314    315    327   5     0.00000     0.00000     1.25520  0.0
    324    314    315    316   5     0.00000     0.00000     1.25520  0.0
    324    314    315    326   5     0.00000     0.00000     1.25520  0.0
    324    314    315    327   5     0.00000     0.00000     1.25520  0.0
    325    314    315    316   5     0.00000     0.00000     1.25520  0.0
    325    314    315    326   5     0.00000     0.00000     1.25520  0.0
    325    314    315    327   5     0.00000     0.00000     1.25520  0.0
    314    315    316    311   5     4.74884    -0.63178     1.67360  0.0
    314    315    316    328   5     0.00000     0.00000     1.25520  0.0
    314    315    316    329   5     0.00000     0.00000     1.25520  0.0
    326    315    316    311   5     0.00000     0.00000     1.25520  0.0
    326    315    316    328   5     0.00000     0.00000     1.25520  0.0
    326    315    316    329   5     0.00000     0.00000     1.25520  0.0
    327    315    316    311   5     0.00000     0.00000     1.25520  0.0
    327    315    316    328   5     0.00000     0.00000     1.25520  0.0
    327    315    316    329   5     0.00000     0.00000     1.25520  0.0
    310    317    332    333   5     4.74884    -0.63178     1.67360  0.0
    310    317    332    339   5     4.74884    -0.63178     1.67360  0.0
    310    317    332    340   5     0.00000     0.00000     1.25520  0.0
    330    317    332    333   5     0.00000     0.00000     1.25520  0.0
    330    317    332    339   5     0.00000     0.00000     1.25520  0.0
    330    317    332    340   5     0.00000     0.00000     1.25520  0.0
    331    317    332    333   5     0.00000     0.00000     1.25520  0.0
    331    317    332    339   5     0.00000     0.00000     1.25520  0.0
    331    317    332    340   5     0.00000     0.00000     1.25520  0.0
    317    332    333    334   5     4.74884    -0.63178     1.67360  0.0
    317    332    333    338   5     4.74884    -0.63178     1.67360  0.0
    317    332    333    341   5     0.00000     0.00000     1.25520  0.0
    339    332    333    334   5     4.74884    -0.63178     1.67360  0.0
    339    332    333    338   5     4.74884    -0.63178     1.67360  0.0
    339    332    333    341   5     0.00000     0.00000     1.25520  0.0
    340    332    333    334   5     0.00000     0.00000     1.25520  0.0
    340    332    333    338   5     0.00000     0.00000     1.25520  0.0
    340    332    333    341   5     0.00000     0.00000     1.25520  0.0
    317    332    339    352   5     0.00000     0.00000     1.25520  0.0
    317    332    339    353   5     0.00000     0.00000     1.25520  0.0
    317    332    339    354   5     4.74884    -0.63178     1.67360  0.0
    333    332    339    352   5     0.00000     0.00000     1.25520  0.0
    333    332    339    353   5     0.00000     0.00000     1.25520  0.0
    333    332    339    354   5     4.74884    -0.63178     1.67360  0.0
    340    332    339    352   5     0.00000     0.00000     1.25520  0.0
    340    332    339    353   5     0.00000     0.00000     1.25520  0.0
    340    332    339    354   5     0.00000     0.00000     1.25520  0.0
    332    333    334    335   5     4.74884    -0.63178     1.67360  0.0
    332    333    334    342   5     0.00000     0.00000     1.25520  0.0
    332    333    334    343   5     0.00000     0.00000     1.25520  0.0
    338    333    334    335   5     4.74884    -0.63178     1.67360  0.0
    338    333    334    342   5     0.00000     0.00000     1.25520  0.0
    338    333    334    343   5     0.00000     0.00000     1.25520  0.0
    341    333    334    335   5     0.00000     0.00000     1.25520  0.0
    341    333    334    342   5     0.00000     0.00000     1.25520  0.0
    341    333    334    343   5     0.00000     0.00000     1.25520  0.0
    332    333    338    337   5     4.74884    -0.63178     1.67360  0.0
    332    333    338    350   5     0.00000     0.00000     1.25520  0.0
    332    333    338    351   5     0.00000     0.00000     1.25520  0.0
    334    333    338    337   5     4.74884    -0.63178     1.67360  0.0
    334    333    338    350   5     0.00000     0.00000     1.25520  0.0
    334    333    338    351   5     0.00000     0.00000     1.25520  0.0
    341    333    338    337   5     0.00000     0.00000     1.25520  0.0
    341    333    338    350   5     0.00000     0.00000     1.25520  0.0
    341    333    338    351   5     0.00000     0.00000     1.25520  0.0
    333    334    335    336   5     4.74884    -0.63178     1.67360  0.0
    333    334    335    344   5     0.00000     0.00000     1.25520  0.0
    333    334    335    345   5     0.00000     0.00000     1.25520  0.0
    342    334    335    336   5     0.00000     0.00000     1.25520  0.0
    342    334    335    344   5     0.00000     0.00000     1.25520  0.0
    342    334    335    345   5     0.00000     0.00000     1.25520  0.0
    343    334    335    336   5     0.00000     0.00000     1.25520  0.0
    343    334    335    344   5     0.00000     0.00000     1.25520  0.0
    343    334    335    345   5     0.00000     0.00000     1.25520  0.0
    334    335    336    337   5     4.74884    -0.63178     1.67360  0.0
    334    335    336    346   5     0.00000     0.00000     1.25520  0.0
    334    335    336    347   5     0.00000     0.00000     1.25520  0.0
    344    335    336    337   5     0.00000     0.00000     1.25520  0.0
    344    335    336    346   5     0.00000     0.00000     1.25520  0.0
    344    335    336    347   5     0.00000     0.00000     1.25520  0.0
    345    335    336    337   5     0.00000     0.00000     1.25520  0.0
    345    335    336    346   5     0.00000     0.00000     1.25520  0.0
    345    335    336    347   5     0.00000     0.00000     1.25520  0.0
    335    336    337    338   5     4.74884    -0.63178     1.67360  0.0
    335    336    337    348   5     0.00000     0.00000     1.25520  0.0
    335    336    337    349   5     0.00000     0.00000     1.25520  0.0
    346    336    337    338   5     0.00000     0.00000     1.25520  0.0
    346    336    337    348   5     0.00000     0.00000     1.25520  0.0
    346    336    337    349   5     0.00000     0.00000     1.25520  0.0
    347    336    337    338   5     0.00000     0.00000     1.25520  0.0
    347    336    337    348   5     0.00000     0.00000     1.25520  0.0
    347    336    337    349   5     0.00000     0.00000     1.25520  0.0
    336    337    338    333   5     4.74884    -0.63178     1.67360  0.0
    336    337    338    350   5     0.00000     0.00000     1.25520  0.0
    336    337    338    351   5     0.00000     0.00000     1.25520  0.0
    348    337    338    333   5     0.00000     0.00000     1.25520  0.0
    348    337    338    350   5     0.00000     0.00000     1.25520  0.0
    348    337    338    351   5     0.00000     0.00000     1.25520  0.0
    349    337    338    333   5     0.00000     0.00000     1.25520  0.0
    349    337    338    350   5     0.00000     0.00000     1.25520  0.0
    349    337    338    351   5     0.00000     0.00000     1.25520  0.0
    332    339    354    355   5     4.74884    -0.63178     1.67360  0.0
    332    339    354    361   5     4.74884    -0.63178     1.67360  0.0
    332    339    354    362   5     0.00000     0.00000     1.25520  0.0
    352    339    354    355   5     0.00000     0.00000     1.25520  0.0
    352    339    354    361   5     0.00000     0.00000     1.25520  0.0
    352    339    354    362   5     0.00000     0.00000     1.25520  0.0
    353    339    354    355   5     0.00000     0.00000     1.25520  0.0
    353    339    354    361   5     0.00000     0.00000     1.25520  0.0
    353    339    354    362   5     0.00000     0.00000     1.25520  0.0
    339    354    355    356   5     4.74884    -0.63178     1.67360  0.0
    339    354    355    360   5     4.74884    -0.63178     1.67360  0.0
    339    354    355    363   5     0.00000     0.00000     1.25520  0.0
    361    354    355    356   5     4.74884    -0.63178     1.67360  0.0
    361    354    355    360   5     4.74884    -0.63178     1.67360  0.0
    361    354    355    363   5     0.00000     0.00000     1.25520  0.0
    362    354    355    356   5     0.00000     0.00000     1.25520  0.0
    362    354    355    360   5     0.00000     0.00000     1.25520  0.0
    362    354    355    363   5     0.00000     0.00000     1.25520  0.0
    339    354    361    374   5     0.00000     0.00000     1.25520  0.0
    339    354    361    375   5     0.00000     0.00000     1.25520  0.0
    339    354    361    376   5     4.74884    -0.63178     1.67360  0.0
    355    354    361    374   5     0.00000     0.00000     1.25520  0.0
    355    354    361    375   5     0.00000     0.00000     1.25520  0.0
    355    354    361    376   5     4.74884    -0.63178     1.67360  0.0
    362    354    361    374   5     0.00000     0.00000     1.25520  0.0
    362    354    361    375   5     0.00000     0.00000     1.25520  0.0
    362    354    361    376   5     0.00000     0.00000     1.25520  0.0
    354    355    356    357   5     4.74884    -0.63178     1.67360  0.0
    354    355    356    364   5     0.00000     0.00000     1.25520  0.0
    354    355    356    365   5     0.00000     0.00000     1.25520  0.0
    360    355    356    357   5     4.74884    -0.63178     1.67360  0.0
    360    355    356    364   5     0.00000     0.00000     1.25520  0.0
    360    355    356    365   5     0.00000     0.00000     1.25520  0.0
    363    355    356    357   5     0.00000     0.00000     1.25520  0.0
    363    355    356    364   5     0.00000     0.00000     1.25520  0.0
    363    355    356    365   5     0.00000     0.00000     1.25520  0.0
    354    355    360    359   5     4.74884    -0.63178     1.67360  0.0
    354    355    360    372   5     0.00000     0.00000     1.25520  0.0
    354    355    360    373   5     0.00000     0.00000     1.25520  0.0
    356    355    360    359   5     4.74884    -0.63178     1.67360  0.0
    356    355    360    372   5     0.00000     0.00000     1.25520  0.0
    356    355    360    373   5     0.00000     0.00000     1.25520  0.0
    363    355    360    359   5     0.00000     0.00000     1.25520  0.0
    363    355    360    372   5     0.00000     0.00000     1.25520  0.0
    363    355    360    373   5     0.00000     0.00000     1.25520  0.0
    355    356    357    358   5     4.74884    -0.63178     1.67360  0.0
    355    356    357    366   5     0.00000     0.00000     1.25520  0.0
    355    356    357    367   5     0.00000     0.00000     1.25520  0.0
    364    356    357    358   5     0.00000     0.00000     1.25520  0.0
    364    356    357    366   5     0.00000     0.00000     1.25520  0.0
    364    356    357    367   5     0.00000     0.00000     1.25520  0.0
    365    356    357    358   5     0.00000     0.00000     1.25520  0.0
    365    356    357    366   5     0.00000     0.00000     1.25520  0.0
    365    356    357    367   5     0.00000     0.00000     1.25520  0.0
    356    357    358    359   5     4.74884    -0.63178     1.67360  0.0
    356    357    358    368   5     0.00000     0.00000     1.25520  0.0
    356    357    358    369   5     0.00000     0.00000     1.25520  0.0
    366    357    358    359   5     0.00000     0.00000     1.25520  0.0
    366    357    358    368   5     0.00000     0.00000     1.25520  0.0
    366    357    358    369   5     0.00000     0.00000     1.25520  0.0
    367    357    358    359   5     0.00000     0.00000     1.25520  0.0
    367    357    358    368   5     0.00000     0.00000     1.25520  0.0
    367    357    358    369   5     0.00000     0.00000     1.25520  0.0
    357    358    359    360   5     4.74884    -0.63178     1.67360  0.0
    357    358    359    370   5     0.00000     0.00000     1.25520  0.0
    357    358    359    371   5     0.00000     0.00000     1.25520  0.0
    368    358    359    360   5     0.00000     0.00000     1.25520  0.0
    368    358    359    370   5     0.00000     0.00000     1.25520  0.0
    368    358    359    371   5     0.00000     0.00000     1.25520  0.0
    369    358    359    360   5     0.00000     0.00000     1.25520  0.0
    369    358    359    370   5     0.00000     0.00000     1.25520  0.0
    369    358    359    371   5     0.00000     0.00000     1.25520  0.0
    358    359    360    355   5     4.74884    -0.63178     1.67360  0.0
    358    359    360    372   5     0.00000     0.00000     1.25520  0.0
    358    359    360    373   5     0.00000     0.00000     1.25520  0.0
    370    359    360    355   5     0.00000     0.00000     1.25520  0.0
    370    359    360    372   5     0.00000     0.00000     1.25520  0.0
    370    359    360    373   5     0.00000     0.00000     1.25520  0.0
    371    359    360    355   5     0.00000     0.00000     1.25520  0.0
    371    359    360    372   5     0.00000     0.00000     1.25520  0.0
    371    359    360    373   5     0.00000     0.00000     1.25520  0.0
    354    361    376    377   5     4.74884    -0.63178     1.67360  0.0
    354    361    376    383   5     4.74884    -0.63178     1.67360  0.0
    354    361    376    384   5     0.00000     0.00000     1.25520  0.0
    374    361    376    377   5     0.00000     0.00000     1.25520  0.0
    374    361    376    383   5     0.00000     0.00000     1.25520  0.0
    374    361    376    384   5     0.00000     0.00000     1.25520  0.0
    375    361    376    377   5     0.00000     0.00000     1.25520  0.0
    375    361    376    383   5     0.00000     0.00000     1.25520  0.0
    375    361    376    384   5     0.00000     0.00000     1.25520  0.0
    361    376    377    378   5     4.74884    -0.63178     1.67360  0.0
    361    376    377    382   5     4.74884    -0.63178     1.67360  0.0
    361    376    377    385   5     0.00000     0.00000     1.25520  0.0
    383    376    377    378   5     4.74884    -0.63178     1.67360  0.0
    383    376    377    382   5     4.74884    -0.63178     1.67360  0.0
    383    376    377    385   5     0.00000     0.00000     1.25520  0.0
    384    376    377    378   5     0.00000     0.00000     1.25520  0.0
    384    376    377    382   5     0.00000     0.00000     1.25520  0.0
    384    376    377    385   5     0.00000     0.00000     1.25520  0.0
    361    376    383    396   5     0.00000     0.00000     1.25520  0.0
    361    376    383    397   5     0.00000     0.00000     1.25520  0.0
    361    376    383    398   5     4.74884    -0.63178     1.67360  0.0
    377    376    383    396   5     0.00000     0.00000     1.25520  0.0
    377    376    383    397   5     0.00000     0.00000     1.25520  0.0
    377    376    383    398   5     4.74884    -0.63178     1.67360  0.0
    384    376    383    396   5     0.00000     0.00000     1.25520  0.0
    384    376    383    397   5     0.00000     0.00000     1.25520  0.0
    384    376    383    398   5     0.00000     0.00000     1.25520  0.0
    376    377    378    379   5     4.74884    -0.63178     1.67360  0.0
    376    377    378    386   5     0.00000     0.00000     1.25520  0.0
    376    377    378    387   5     0.00000     0.00000     1.25520  0.0
    382    377    378    379   5     4.74884    -0.63178     1.67360  0.0
    382    377    378    386   5     0.00000     0.00000     1.25520  0.0
    382    377    378    387   5     0.00000     0.00000     1.25520  0.0
    385    377    378    379   5     0.00000     0.00000     1.25520  0.0
    385    377    378    386   5     0.00000     0.00000     1.25520  0.0
    385    377    378    387   5     0.00000     0.00000     1.25520  0.0
    376    377    382    381   5     4.74884    -0.63178     1.67360  0.0
    376    377    382    394   5     0.00000     0.00000     1.25520  0.0
    376    377    382    395   5     0.00000     0.00000     1.25520  0.0
    378    377    382    381   5     4.74884    -0.63178     1.67360  0.0
    378    377    382    394   5     0.00000     0.00000     1.25520  0.0
    378    377    382    395   5     0.00000     0.00000     1.25520  0.0
    385    377    382    381   5     0.00000     0.00000     1.25520  0.0
    385    377    382    394   5     0.00000     0.00000     1.25520  0.0
    385    377    382    395   5     0.00000     0.00000     1.25520  0.0
    377    378    379    380   5     4.74884    -0.63178     1.67360  0.0
    377    378    379    388   5     0.00000     0.00000     1.25520  0.0
    377    378    379    389   5     0.00000     0.00000     1.25520  0.0
    386    378    379    380   5     0.00000     0.00000     1.25520  0.0
    386    378    379    388   5     0.00000     0.00000     1.25520  0.0
    386    378    379    389   5     0.00000     0.00000     1.25520  0.0
    387    378    379    380   5     0.00000     0.00000     1.25520  0.0
    387    378    379    388   5     0.00000     0.00000     1.25520  0.0
    387    378    379    389   5     0.00000     0.00000     1.25520  0.0
    378    379    380    381   5     4.74884    -0.63178     1.67360  0.0
    378    379    380    390   5     0.00000     0.00000     1.25520  0.0
    378    379    380    391   5     0.00000     0.00000     1.25520  0.0
    388    379    380    381   5     0.00000     0.00000     1.25520  0.0
    388    379    380    390   5     0.00000     0.00000     1.25520  0.0
    388    379    380    391   5     0.00000     0.00000     1.25520  0.0
    389    379    380    381   5     0.00000     0.00000     1.25520  0.0
    389    379    380    390   5     0.00000     0.00000     1.25520  0.0
    389    379    380    391   5     0.00000     0.00000     1.25520  0.0
    379    380    381    382   5     4.74884    -0.63178     1.67360  0.0
    379    380    381    392   5     0.00000     0.00000     1.25520  0.0
    379    380    381    393   5     0.00000     0.00000     1.25520  0.0
    390    380    381    382   5     0.00000     0.00000     1.25520  0.0
    390    380    381    392   5     0.00000     0.00000     1.25520  0.0
    390    380    381    393   5     0.00000     0.00000     1.25520  0.0
    391    380    381    382   5     0.00000     0.00000     1.25520  0.0
    391    380    381    392   5     0.00000     0.00000     1.25520  0.0
    391    380    381    393   5     0.00000     0.00000     1.25520  0.0
    380    381    382    377   5     4.74884    -0.63178     1.67360  0.0
    380    381    382    394   5     0.00000     0.00000     1.25520  0.0
    380    381    382    395   5     0.00000     0.00000     1.25520  0.0
    392    381    382    377   5     0.00000     0.00000     1.25520  0.0
    392    381    382    394   5     0.00000     0.00000     1.25520  0.0
    392    381    382    395   5     0.00000     0.00000     1.25520  0.0
    393    381    382    377   5     0.00000     0.00000     1.25520  0.0
    393    381    382    394   5     0.00000     0.00000     1.25520  0.0
    393    381    382    395   5     0.00000     0.00000     1.25520  0.0
    376    383    398    399   5     4.74884    -0.63178     1.67360  0.0
    376    383    398    405   5     4.74884    -0.63178     1.67360  0.0
    376    383    398    406   5     0.00000     0.00000     1.25520  0.0
    396    383    398    399   5     0.00000     0.00000     1.25520  0.0
    396    383    398    405   5     0.00000     0.00000     1.25520  0.0
    396    383    398    406   5     0.00000     0.00000     1.25520  0.0
    397    383    398    399   5     0.00000     0.00000     1.25520  0.0
    397    383    398    405   5     0.00000     0.00000     1.25520  0.0
    397    383    398    406   5     0.00000     0.00000     1.25520  0.0
    383    398    399    400   5     4.74884    -0.63178     1.67360  0.0
    383    398    399    404   5     4.74884    -0.63178     1.67360  0.0
    383    398    399    407   5     0.00000     0.00000     1.25520  0.0
    405    398    399    400   5     4.74884    -0.63178     1.67360  0.0
    405    398    399    404   5     4.74884    -0.63178     1.67360  0.0
    405    398    399    407   5     0.00000     0.00000     1.25520  0.0
    406    398    399    400   5     0.00000     0.00000     1.25520  0.0
    406    398    399    404   5     0.00000     0.00000     1.25520  0.0
    406    398    399    407   5     0.00000     0.00000     1.25520  0.0
    383    398    405    418   5     0.00000     0.00000     1.25520  0.0
    383    398    405    419   5     0.00000     0.00000     1.25520  0.0
    383    398    405    420   5     4.74884    -0.63178     1.67360  0.0
    399    398    405    418   5     0.00000     0.00000     1.25520  0.0
    399    398    405    419   5     0.00000     0.00000     1.25520  0.0
    399    398    405    420   5     4.74884    -0.63178     1.67360  0.0
    406    398    405    418   5     0.00000     0.00000     1.25520  0.0
    406    398    405    419   5     0.00000     0.00000     1.25520  0.0
    406    398    405    420   5     0.00000     0.00000     1.25520  0.0
    398    399    400    401   5     4.74884    -0.63178     1.67360  0.0
    398    399    400    408   5     0.00000     0.00000     1.25520  0.0
    398    399    400    409   5     0.00000     0.00000     1.25520  0.0
    404    399    400    401   5     4.74884    -0.63178     1.67360  0.0
    404    399    400    408   5     0.00000     0.00000     1.25520  0.0
    404    399    400    409   5     0.00000     0.00000     1.25520  0.0
    407    399    400    401   5     0.00000     0.00000     1.25520  0.0
    407    399    400    408   5     0.00000     0.00000     1.25520  0.0
    407    399    400    409   5     0.00000     0.00000     1.25520  0.0
    398    399    404    403   5     4.74884    -0.63178     1.67360  0.0
    398    399    404    416   5     0.00000     0.00000     1.25520  0.0
    398    399    404    417   5     0.00000     0.00000     1.25520  0.0
    400    399    404    403   5     4.74884    -0.63178     1.67360  0.0
    400    399    404    416   5     0.00000     0.00000     1.25520  0.0
    400    399    404    417   5     0.00000     0.00000     1.25520  0.0
    407    399    404    403   5     0.00000     0.00000     1.25520  0.0
    407    399    404    416   5     0.00000     0.00000     1.25520  0.0
    407    399    404    417   5     0.00000     0.00000     1.25520  0.0
    399    400    401    402   5     4.74884    -0.63178     1.67360  0.0
    399    400    401    410   5     0.00000     0.00000     1.25520  0.0
    399    400    401    411   5     0.00000     0.00000     1.25520  0.0
    408    400    401    402   5     0.00000     0.00000     1.25520  0.0
    408    400    401    410   5     0.00000     0.00000     1.25520  0.0
    408    400    401    411   5     0.00000     0.00000     1.25520  0.0
    409    400    401    402   5     0.00000     0.00000     1.25520  0.0
    409    400    401    410   5     0.00000     0.00000     1.25520  0.0
    409    400    401    411   5     0.00000     0.00000     1.25520  0.0
    400    401    402    403   5     4.74884    -0.63178     1.67360  0.0
    400    401    402    412   5     0.00000     0.00000     1.25520  0.0
    400    401    402    413   5     0.00000     0.00000     1.25520  0.0
    410    401    402    403   5     0.00000     0.00000     1.25520  0.0
    410    401    402    412   5     0.00000     0.00000     1.25520  0.0
    410    401    402    413   5     0.00000     0.00000     1.25520  0.0
    411    401    402    403   5     0.00000     0.00000     1.25520  0.0
    411    401    402    412   5     0.00000     0.00000     1.25520  0.0
    411    401    402    413   5     0.00000     0.00000     1.25520  0.0
    401    402    403    404   5     4.74884    -0.63178     1.67360  0.0
    401    402    403    414   5     0.00000     0.00000     1.25520  0.0
    401    402    403    415   5     0.00000     0.00000     1.25520  0.0
    412    402    403    404   5     0.00000     0.00000     1.25520  0.0
    412    402    403    414   5     0.00000     0.00000     1.25520  0.0
    412    402    403    415   5     0.00000     0.00000     1.25520  0.0
    413    402    403    404   5     0.00000     0.00000     1.25520  0.0
    413    402    403    414   5     0.00000     0.00000     1.25520  0.0
    413    402    403    415   5     0.00000     0.00000     1.25520  0.0
    402    403    404    399   5     4.74884    -0.63178     1.67360  0.0
    402    403    404    416   5     0.00000     0.00000     1.25520  0.0
    402    403    404    417   5     0.00000     0.00000     1.25520  0.0
    414    403    404    399   5     0.00000     0.00000     1.25520  0.0
    414    403    404    416   5     0.00000     0.00000     1.25520  0.0
    414    403    404    417   5     0.00000     0.00000     1.25520  0.0
    415    403    404    399   5     0.00000     0.00000     1.25520  0.0
    415    403    404    416   5     0.00000     0.00000     1.25520  0.0
    415    403    404    417   5     0.00000     0.00000     1.25520  0.0
    398    405    420    421   5     4.74884    -0.63178     1.67360  0.0
    398    405    420    427   5     4.74884    -0.63178     1.67360  0.0
    398    405    420    428   5     0.00000     0.00000     1.25520  0.0
    418    405    420    421   5     0.00000     0.00000     1.25520  0.0
    418    405    420    427   5     0.00000     0.00000     1.25520  0.0
    418    405    420    428   5     0.00000     0.00000     1.25520  0.0
    419    405    420    421   5     0.00000     0.00000     1.25520  0.0
    419    405    420    427   5     0.00000     0.00000     1.25520  0.0
    419    405    420    428   5     0.00000     0.00000     1.25520  0.0
    405    420    421    422   5     4.74884    -0.63178     1.67360  0.0
    405    420    421    426   5     4.74884    -0.63178     1.67360  0.0
    405    420    421    429   5     0.00000     0.00000     1.25520  0.0
    427    420    421    422   5     4.74884    -0.63178     1.67360  0.0
    427    420    421    426   5     4.74884    -0.63178     1.67360  0.0
    427    420    421    429   5     0.00000     0.00000     1.25520  0.0
    428    420    421    422   5     0.00000     0.00000     1.25520  0.0
    428    420    421    426   5     0.00000     0.00000     1.25520  0.0
    428    420    421    429   5     0.00000     0.00000     1.25520  0.0
    405    420    427    440   5     0.00000     0.00000     1.25520  0.0
    405    420    427    441   5     0.00000     0.00000     1.25520  0.0
    405    420    427    442   5     0.00000     0.00000     1.25520  0.0
    421    420    427    440   5     0.00000     0.00000     1.25520  0.0
    421    420    427    441   5     0.00000     0.00000     1.25520  0.0
    421    420    427    442   5     0.00000     0.00000     1.25520  0.0
    428    420    427    440   5     0.00000     0.00000     1.25520  0.0
    428    420    427    441   5     0.00000     0.00000     1.25520  0.0
    428    420    427    442   5     0.00000     0.00000     1.25520  0.0
    420    421    422    423   5     4.74884    -0.63178     1.67360  0.0
    420    421    422    430   5     0.00000     0.00000     1.25520  0.0
    420    421    422    431   5     0.00000     0.00000     1.25520  0.0
    426    421    422    423   5     4.74884    -0.63178     1.67360  0.0
    426    421    422    430   5     0.00000     0.00000     1.25520  0.0
    426    421    422    431   5     0.00000     0.00000     1.25520  0.0
    429    421    422    423   5     0.00000     0.00000     1.25520  0.0
    429    421    422    430   5     0.00000     0.00000     1.25520  0.0
    429    421    422    431   5     0.00000     0.00000     1.25520  0.0
    420    421    426    425   5     4.74884    -0.63178     1.67360  0.0
    420    421    426    438   5     0.00000     0.00000     1.25520  0.0
    420    421    426    439   5     0.00000     0.00000     1.25520  0.0
    422    421    426    425   5     4.74884    -0.63178     1.67360  0.0
    422    421    426    438   5     0.00000     0.00000     1.25520  0.0
    422    421    426    439   5     0.00000     0.00000     1.25520  0.0
    429    421    426    425   5     0.00000     0.00000     1.25520  0.0
    429    421    426    438   5     0.00000     0.00000     1.25520  0.0
    429    421    426    439   5     0.00000     0.00000     1.25520  0.0
    421    422    423    424   5     4.74884    -0.63178     1.67360  0.0
    421    422    423    432   5     0.00000     0.00000     1.25520  0.0
    421    422    423    433   5     0.00000     0.00000     1.25520  0.0
    430    422    423    424   5     0.00000     0.00000     1.25520  0.0
    430    422    423    432   5     0.00000     0.00000     1.25520  0.0
    430    422    423    433   5     0.00000     0.00000     1.25520  0.0
    431    422    423    424   5     0.00000     0.00000     1.25520  0.0
    431    422    423    432   5     0.00000     0.00000     1.25520  0.0
    431    422    423    433   5     0.00000     0.00000     1.25520  0.0
    422    423    424    425   5     4.74884    -0.63178     1.67360  0.0
    422    423    424    434   5     0.00000     0.00000     1.25520  0.0
    422    423    424    435   5     0.00000     0.00000     1.25520  0.0
    432    423    424    425   5     0.00000     0.00000     1.25520  0.0
    432    423    424    434   5     0.00000     0.00000     1.25520  0.0
    432    423    424    435   5     0.00000     0.00000     1.25520  0.0
    433    423    424    425   5     0.00000     0.00000     1.25520  0.0
    433    423    424    434   5     0.00000     0.00000     1.25520  0.0
    433    423    424    435   5     0.00000     0.00000     1.25520  0.0
    423    424    425    426   5     4.74884    -0.63178     1.67360  0.0
    423    424    425    436   5     0.00000     0.00000     1.25520  0.0
    423    424    425    437   5     0.00000     0.00000     1.25520  0.0
    434    424    425    426   5     0.00000     0.00000     1.25520  0.0
    434    424    425    436   5     0.00000     0.00000     1.25520  0.0
    434    424    425    437   5     0.00000     0.00000     1.25520  0.0
    435    424    425    426   5     0.00000     0.00000     1.25520  0.0
    435    424    425    436   5     0.00000     0.00000     1.25520  0.0
    435    424    425    437   5     0.00000     0.00000     1.25520  0.0
    424    425    426    421   5     4.74884    -0.63178     1.67360  0.0
    424    425    426    438   5     0.00000     0.00000     1.25520  0.0
    424    425    426    439   5     0.00000     0.00000     1.25520  0.0
    436    425    426    421   5     0.00000     0.00000     1.25520  0.0
    436    425    426    438   5     0.00000     0.00000     1.25520  0.0
    436    425    426    439   5     0.00000     0.00000     1.25520  0.0
    437    425    426    421   5     0.00000     0.00000     1.25520  0.0
    437    425    426    438   5     0.00000     0.00000     1.25520  0.0
    437    425    426    439   5     0.00000     0.00000     1.25520  0.0
